<event>
 4    1  0.4025504E+000  0.2070025E+03  0.7546771E-02  0.1143962E+00
         21   -1    0    0  501  502  0.00000000000E+00  0.00000000000E+00  0.21381660993E+03  0.21381660993E+03  0.00000000000E+00 0.  1.
         21   -1    0    0  502  503 -0.00000000000E+00 -0.00000000000E+00 -0.20486090765E+03  0.20486090765E+03  0.00000000000E+00 0. -1.
          6    1    1    2  501    0 -0.77574130196E+02  0.83086106286E+02  0.35349425734E+02  0.20999911579E+03  0.17300000000E+03 0. -1.
         -6    1    1    2    0  503  0.77574130196E+02 -0.83086106286E+02 -0.26393723453E+02  0.20867840178E+03  0.17300000000E+03 0.  1.
<mgrwt>
<rscale>  2 0.20700253E+03</rscale>
<asrwt>0</asrwt>
<pdfrwt beam="1">  1       21 0.32894863E-01 0.20700253E+03</pdfrwt>
<pdfrwt beam="2">  1       21 0.31517063E-01 0.20700253E+03</pdfrwt>
<totfact> 0.85570449E+04</totfact>
</mgrwt>
</event>
<event>
 4    1  0.4025504E+000  0.2972138E+03  0.7546771E-02  0.1086642E+00
         21   -1    0    0  501  502  0.00000000000E+00  0.00000000000E+00  0.26064548155E+03  0.26064548155E+03  0.00000000000E+00 0.  1.
         21   -1    0    0  502  503 -0.00000000000E+00 -0.00000000000E+00 -0.34525338305E+03  0.34525338305E+03  0.00000000000E+00 0. -1.
          6    1    1    2  501    0  0.18350972803E+03  0.15726156592E+03 -0.83359787626E+02  0.30868248183E+03  0.17300000000E+03 0.  1.
         -6    1    1    2    0  503 -0.18350972803E+03 -0.15726156592E+03 -0.12481138761E+01  0.29721638277E+03  0.17300000000E+03 0. -1.
<mgrwt>
<rscale>  2 0.29721376E+03</rscale>
<asrwt>0</asrwt>
<pdfrwt beam="1">  1       21 0.40099305E-01 0.29721376E+03</pdfrwt>
<pdfrwt beam="2">  1       21 0.53115905E-01 0.29721376E+03</pdfrwt>
<totfact> 0.19096293E+04</totfact>
</mgrwt>
</event>
<event>
 4    1  0.4025504E+000  0.1931369E+03  0.7546771E-02  0.1155662E+00
         21   -1    0    0  503  502  0.00000000000E+00  0.00000000000E+00  0.33915240587E+03  0.33915240587E+03  0.00000000000E+00 0. -1.
         21   -1    0    0  501  503 -0.00000000000E+00 -0.00000000000E+00 -0.46345584178E+03  0.46345584178E+03  0.00000000000E+00 0. -1.
          6    1    1    2  501    0 -0.65850645583E+02  0.55105036150E+02 -0.41261771306E+03  0.45558231930E+03  0.17300000000E+03 0. -1.
         -6    1    1    2    0  502  0.65850645583E+02 -0.55105036150E+02  0.28831427715E+03  0.34702592834E+03  0.17300000000E+03 0. -1.
<mgrwt>
<rscale>  2 0.19313693E+03</rscale>
<asrwt>0</asrwt>
<pdfrwt beam="1">  1       21 0.52177293E-01 0.19313693E+03</pdfrwt>
<pdfrwt beam="2">  1       21 0.71300899E-01 0.19313693E+03</pdfrwt>
<totfact> 0.61989318E+03</totfact>
</mgrwt>
</event>
<event>
 4    1  0.4025504E+000  0.2151750E+03  0.7546771E-02  0.1137532E+00
         21   -1    0    0  503  502  0.00000000000E+00  0.00000000000E+00  0.66817962036E+03  0.66817962036E+03  0.00000000000E+00 0.  1.
         21   -1    0    0  501  503 -0.00000000000E+00 -0.00000000000E+00 -0.21598907680E+03  0.21598907680E+03  0.00000000000E+00 0.  1.
          6    1    1    2  501    0 -0.50091699064E+02 -0.11773745870E+03 -0.13823749829E+03  0.25575357950E+03  0.17300000000E+03 0.  1.
         -6    1    1    2    0  502  0.50091699064E+02  0.11773745870E+03  0.59042804185E+03  0.62841511765E+03  0.17300000000E+03 0.  1.
<mgrwt>
<rscale>  2 0.21517502E+03</rscale>
<asrwt>0</asrwt>
<pdfrwt beam="1">  1       21 0.10279686E+00 0.21517502E+03</pdfrwt>
<pdfrwt beam="2">  1       21 0.33229089E-01 0.21517502E+03</pdfrwt>
<totfact> 0.65928068E+03</totfact>
</mgrwt>
</event>
<event>
 4    1  0.4025504E+000  0.1883517E+03  0.7546771E-02  0.1159956E+00
         21   -1    0    0  503  502  0.00000000000E+00  0.00000000000E+00  0.13661012655E+03  0.13661012655E+03  0.00000000000E+00 0. -1.
         21   -1    0    0  501  503 -0.00000000000E+00 -0.00000000000E+00 -0.28155923471E+03  0.28155923471E+03  0.00000000000E+00 0. -1.
          6    1    1    2  501    0  0.63536720363E+02 -0.38864344391E+02 -0.13074510868E+03  0.22928287233E+03  0.17300000000E+03 0. -1.
         -6    1    1    2    0  502 -0.63536720363E+02  0.38864344391E+02 -0.14203999478E+02  0.18888648893E+03  0.17300000000E+03 0. -1.
<mgrwt>
<rscale>  2 0.18835167E+03</rscale>
<asrwt>0</asrwt>
<pdfrwt beam="1">  1       21 0.21016942E-01 0.18835167E+03</pdfrwt>
<pdfrwt beam="2">  1       21 0.43316805E-01 0.18835167E+03</pdfrwt>
<totfact> 0.10794903E+05</totfact>
</mgrwt>
</event>
<event>
 4    1  0.4025504E+000  0.1814511E+03  0.7546771E-02  0.1166406E+00
         21   -1    0    0  503  502  0.00000000000E+00  0.00000000000E+00  0.80563563372E+03  0.80563563372E+03  0.00000000000E+00 0. -1.
         21   -1    0    0  501  503 -0.00000000000E+00 -0.00000000000E+00 -0.56900190875E+02  0.56900190875E+02  0.00000000000E+00 0. -1.
          6    1    1    2  501    0  0.35002803854E+02  0.42074856926E+02  0.14544413445E+03  0.23254781467E+03  0.17300000000E+03 0. -1.
         -6    1    1    2    0  502 -0.35002803854E+02 -0.42074856926E+02  0.60329130839E+03  0.62998800992E+03  0.17300000000E+03 0. -1.
<mgrwt>
<rscale>  2 0.18145107E+03</rscale>
<asrwt>0</asrwt>
<pdfrwt beam="1">  1       21 0.12394394E+00 0.18145107E+03</pdfrwt>
<pdfrwt beam="2">  1       21 0.87538761E-02 0.18145107E+03</pdfrwt>
<totfact> 0.50259297E+04</totfact>
</mgrwt>
</event>
<event>
 4    1  0.4025504E+000  0.1735906E+03  0.7546771E-02  0.1174154E+00
         21   -1    0    0  501  502  0.00000000000E+00  0.00000000000E+00  0.22672420598E+03  0.22672420598E+03  0.00000000000E+00 0. -1.
         21   -1    0    0  502  503 -0.00000000000E+00 -0.00000000000E+00 -0.23413089231E+03  0.23413089231E+03  0.00000000000E+00 0. -1.
          6    1    1    2  501    0 -0.97828781037E+01 -0.10439842116E+02  0.14780696985E+03  0.22799253353E+03  0.17300000000E+03 0. -1.
         -6    1    1    2    0  503  0.97828781037E+01  0.10439842116E+02 -0.15521365617E+03  0.23286256477E+03  0.17300000000E+03 0. -1.
<mgrwt>
<rscale>  2 0.17359060E+03</rscale>
<asrwt>0</asrwt>
<pdfrwt beam="1">  1       21 0.34880647E-01 0.17359060E+03</pdfrwt>
<pdfrwt beam="2">  1       21 0.36020137E-01 0.17359060E+03</pdfrwt>
<totfact> 0.59396543E+04</totfact>
</mgrwt>
</event>
<event>
 4    1  0.4025504E+000  0.1996317E+03  0.7546771E-02  0.1150050E+00
         21   -1    0    0  501  502  0.00000000000E+00  0.00000000000E+00  0.92744953845E+03  0.92744953845E+03  0.00000000000E+00 0. -1.
         21   -1    0    0  502  503 -0.00000000000E+00 -0.00000000000E+00 -0.88473325407E+02  0.88473325407E+02  0.00000000000E+00 0. -1.
          6    1    1    2  501    0 -0.12335362837E+02  0.98851731626E+02  0.78377579005E+03  0.80879992278E+03  0.17300000000E+03 0. -1.
         -6    1    1    2    0  503  0.12335362837E+02 -0.98851731626E+02  0.55200422994E+02  0.20712294108E+03  0.17300000000E+03 0. -1.
<mgrwt>
<rscale>  2 0.19963173E+03</rscale>
<asrwt>0</asrwt>
<pdfrwt beam="1">  1       21 0.14268454E+00 0.19963173E+03</pdfrwt>
<pdfrwt beam="2">  1       21 0.13611281E-01 0.19963173E+03</pdfrwt>
<totfact> 0.15861105E+04</totfact>
</mgrwt>
</event>
<event>
 4    1  0.4025504E+000  0.1774418E+03  0.7546771E-02  0.1170302E+00
         21   -1    0    0  503  502  0.00000000000E+00  0.00000000000E+00  0.10443987198E+03  0.10443987198E+03  0.00000000000E+00 0. -1.
         21   -1    0    0  501  503 -0.00000000000E+00 -0.00000000000E+00 -0.36984735381E+03  0.36984735381E+03  0.00000000000E+00 0. -1.
          6    1    1    2  501    0 -0.53506936849E+01 -0.39089138812E+02 -0.23466922903E+03  0.29420271540E+03  0.17300000000E+03 0.  1.
         -6    1    1    2    0  502  0.53506936849E+01  0.39089138812E+02 -0.30738252806E+02  0.18008451039E+03  0.17300000000E+03 0.  1.
<mgrwt>
<rscale>  2 0.17744180E+03</rscale>
<asrwt>0</asrwt>
<pdfrwt beam="1">  1       21 0.16067673E-01 0.17744180E+03</pdfrwt>
<pdfrwt beam="2">  1       21 0.56899592E-01 0.17744180E+03</pdfrwt>
<totfact> 0.10100784E+05</totfact>
</mgrwt>
</event>
<event>
 4    1  0.4025504E+000  0.2153121E+03  0.7546771E-02  0.1137427E+00
         21   -1    0    0  501  502  0.00000000000E+00  0.00000000000E+00  0.13405872547E+04  0.13405872547E+04  0.00000000000E+00 0. -1.
         21   -1    0    0  502  503 -0.00000000000E+00 -0.00000000000E+00 -0.89940064636E+02  0.89940064636E+02  0.00000000000E+00 0. -1.
          6    1    1    2  501    0 -0.90416599607E+02  0.90857881817E+02  0.11864782427E+04  0.12058565157E+04  0.17300000000E+03 0. -1.
         -6    1    1    2    0  503  0.90416599607E+02 -0.90857881817E+02  0.64168947344E+02  0.22467080357E+03  0.17300000000E+03 0. -1.
<mgrwt>
<rscale>  2 0.21531214E+03</rscale>
<asrwt>0</asrwt>
<pdfrwt beam="1">  1       21 0.20624418E+00 0.21531214E+03</pdfrwt>
<pdfrwt beam="2">  1       21 0.13836934E-01 0.21531214E+03</pdfrwt>
<totfact> 0.54527308E+03</totfact>
</mgrwt>
</event>
<event>
 4    1  0.4025504E+000  0.2079518E+03  0.7546771E-02  0.1143198E+00
         21   -1    0    0  501  502  0.00000000000E+00  0.00000000000E+00  0.97935385591E+02  0.97935385591E+02  0.00000000000E+00 0.  1.
         21   -1    0    0  502  503 -0.00000000000E+00 -0.00000000000E+00 -0.67546628373E+03  0.67546628373E+03  0.00000000000E+00 0. -1.
          6    1    1    2  501    0 -0.71866697652E+02  0.90278167664E+02 -0.51632643636E+03  0.55663000160E+03  0.17300000000E+03 0. -1.
         -6    1    1    2    0  503  0.71866697652E+02 -0.90278167664E+02 -0.61204461780E+02  0.21677166773E+03  0.17300000000E+03 0.  1.
<mgrwt>
<rscale>  2 0.20795184E+03</rscale>
<asrwt>0</asrwt>
<pdfrwt beam="1">  1       21 0.15066983E-01 0.20795184E+03</pdfrwt>
<pdfrwt beam="2">  1       21 0.10391789E+00 0.20795184E+03</pdfrwt>
<totfact> 0.28888312E+04</totfact>
</mgrwt>
</event>
<event>
 4    1  0.4025504E+000  0.1810065E+03  0.7546771E-02  0.1166833E+00
         21   -1    0    0  501  502  0.00000000000E+00  0.00000000000E+00  0.15378035850E+03  0.15378035850E+03  0.00000000000E+00 0.  1.
         21   -1    0    0  502  503 -0.00000000000E+00 -0.00000000000E+00 -0.49009281377E+03  0.49009281377E+03  0.00000000000E+00 0.  1.
          6    1    1    2  501    0  0.34431157651E+01  0.53127149912E+02  0.73892247085E+02  0.19550809007E+03  0.17300000000E+03 0. -1.
         -6    1    1    2    0  503 -0.34431157651E+01 -0.53127149912E+02 -0.41020470236E+03  0.44836508220E+03  0.17300000000E+03 0. -1.
<mgrwt>
<rscale>  2 0.18100649E+03</rscale>
<asrwt>0</asrwt>
<pdfrwt beam="1">  1       21 0.23658517E-01 0.18100649E+03</pdfrwt>
<pdfrwt beam="2">  1       21 0.75398893E-01 0.18100649E+03</pdfrwt>
<totfact> 0.26607348E+04</totfact>
</mgrwt>
</event>
<event>
 4    1  0.4025504E+000  0.1812597E+03  0.7546771E-02  0.1166589E+00
         21   -1    0    0  503  502  0.00000000000E+00  0.00000000000E+00  0.15087315792E+04  0.15087315792E+04  0.00000000000E+00 0.  1.
         21   -1    0    0  501  503 -0.00000000000E+00 -0.00000000000E+00 -0.35844459795E+02  0.35844459795E+02  0.00000000000E+00 0.  1.
          6    1    1    2  501    0 -0.20841269449E+02  0.49917239816E+02  0.25262577259E+03  0.31092582768E+03  0.17300000000E+03 0.  1.
         -6    1    1    2    0  502  0.20841269449E+02 -0.49917239816E+02  0.12202613468E+04  0.12336502113E+04  0.17300000000E+03 0.  1.
<mgrwt>
<rscale>  2 0.18125973E+03</rscale>
<asrwt>0</asrwt>
<pdfrwt beam="1">  1       21 0.23211250E+00 0.18125973E+03</pdfrwt>
<pdfrwt beam="2">  1       21 0.55145335E-02 0.18125973E+03</pdfrwt>
<totfact> 0.19529450E+04</totfact>
</mgrwt>
</event>
<event>
 4    1  0.4025504E+000  0.1800769E+03  0.7546771E-02  0.1167729E+00
         21   -1    0    0  501  502  0.00000000000E+00  0.00000000000E+00  0.12919439542E+03  0.12919439542E+03  0.00000000000E+00 0. -1.
         21   -1    0    0  502  503 -0.00000000000E+00 -0.00000000000E+00 -0.32044369453E+03  0.32044369453E+03  0.00000000000E+00 0. -1.
          6    1    1    2  501    0  0.65877570530E+01 -0.49550785989E+02  0.90343091205E+01  0.18030334904E+03  0.17300000000E+03 0. -1.
         -6    1    1    2    0  503 -0.65877570530E+01  0.49550785989E+02 -0.20028360823E+03  0.26933474091E+03  0.17300000000E+03 0. -1.
<mgrwt>
<rscale>  2 0.18007687E+03</rscale>
<asrwt>0</asrwt>
<pdfrwt beam="1">  1       21 0.19876061E-01 0.18007687E+03</pdfrwt>
<pdfrwt beam="2">  1       21 0.49299029E-01 0.18007687E+03</pdfrwt>
<totfact> 0.92088940E+04</totfact>
</mgrwt>
</event>
<event>
 4    1  0.4025504E+000  0.1742332E+03  0.7546771E-02  0.1173504E+00
         21   -1    0    0  501  502  0.00000000000E+00  0.00000000000E+00  0.15205616226E+03  0.15205616226E+03  0.00000000000E+00 0.  1.
         21   -1    0    0  502  503 -0.00000000000E+00 -0.00000000000E+00 -0.29496470546E+03  0.29496470546E+03  0.00000000000E+00 0.  1.
          6    1    1    2  501    0  0.12832941043E+02  0.16233650585E+02  0.55604505551E+02  0.18289088776E+03  0.17300000000E+03 0. -1.
         -6    1    1    2    0  503 -0.12832941043E+02 -0.16233650585E+02 -0.19851304875E+03  0.26412997996E+03  0.17300000000E+03 0. -1.
<mgrwt>
<rscale>  2 0.17423322E+03</rscale>
<asrwt>0</asrwt>
<pdfrwt beam="1">  1       21 0.23393256E-01 0.17423322E+03</pdfrwt>
<pdfrwt beam="2">  1       21 0.45379185E-01 0.17423322E+03</pdfrwt>
<totfact> 0.80661278E+04</totfact>
</mgrwt>
</event>
<event>
 4    1  0.4025504E+000  0.2053437E+03  0.7546771E-02  0.1145307E+00
         21   -1    0    0  503  502  0.00000000000E+00  0.00000000000E+00  0.64895806439E+02  0.64895806439E+02  0.00000000000E+00 0.  1.
         21   -1    0    0  501  503 -0.00000000000E+00 -0.00000000000E+00 -0.10478279364E+04  0.10478279364E+04  0.00000000000E+00 0.  1.
          6    1    1    2  501    0 -0.95134921506E+02  0.56448088999E+02 -0.83438898416E+03  0.85928517788E+03  0.17300000000E+03 0.  1.
         -6    1    1    2    0  502  0.95134921506E+02 -0.56448088999E+02 -0.14854314580E+03  0.25343856495E+03  0.17300000000E+03 0.  1.
<mgrwt>
<rscale>  2 0.20534371E+03</rscale>
<asrwt>0</asrwt>
<pdfrwt beam="1">  1       21 0.99839701E-02 0.20534371E+03</pdfrwt>
<pdfrwt beam="2">  1       21 0.16120430E+00 0.20534371E+03</pdfrwt>
<totfact> 0.19896661E+04</totfact>
</mgrwt>
</event>
<event>
 4    1  0.4025504E+000  0.2294928E+03  0.7546771E-02  0.1126997E+00
         21   -1    0    0  503  502  0.00000000000E+00  0.00000000000E+00  0.15664289612E+03  0.15664289612E+03  0.00000000000E+00 0.  1.
         21   -1    0    0  501  503 -0.00000000000E+00 -0.00000000000E+00 -0.34814491311E+03  0.34814491311E+03  0.00000000000E+00 0. -1.
          6    1    1    2  501    0  0.66858497327E+02 -0.13515868759E+03 -0.14245710278E+03  0.27011285721E+03  0.17300000000E+03 0. -1.
         -6    1    1    2    0  502 -0.66858497327E+02  0.13515868759E+03 -0.49044914202E+02  0.23467495202E+03  0.17300000000E+03 0.  1.
<mgrwt>
<rscale>  2 0.22949277E+03</rscale>
<asrwt>0</asrwt>
<pdfrwt beam="1">  1       21 0.24098907E-01 0.22949277E+03</pdfrwt>
<pdfrwt beam="2">  1       21 0.53560755E-01 0.22949277E+03</pdfrwt>
<totfact> 0.52685714E+04</totfact>
</mgrwt>
</event>
<event>
 4    1  0.4025504E+000  0.2077494E+03  0.7546771E-02  0.1143361E+00
         21   -1    0    0  501  502  0.00000000000E+00  0.00000000000E+00  0.30084672992E+03  0.30084672992E+03  0.00000000000E+00 0. -1.
         21   -1    0    0  502  503 -0.00000000000E+00 -0.00000000000E+00 -0.14348135014E+03  0.14348135014E+03  0.00000000000E+00 0. -1.
          6    1    1    2  501    0  0.54187030707E+02  0.10146225857E+03  0.81317357243E+02  0.22309714655E+03  0.17300000000E+03 0. -1.
         -6    1    1    2    0  503 -0.54187030707E+02 -0.10146225857E+03  0.76048022535E+02  0.22123093351E+03  0.17300000000E+03 0. -1.
<mgrwt>
<rscale>  2 0.20774943E+03</rscale>
<asrwt>0</asrwt>
<pdfrwt beam="1">  1       21 0.46284112E-01 0.20774943E+03</pdfrwt>
<pdfrwt beam="2">  1       21 0.22074054E-01 0.20774943E+03</pdfrwt>
<totfact> 0.85236063E+04</totfact>
</mgrwt>
</event>
<event>
 4    1  0.4025504E+000  0.2783701E+03  0.7546771E-02  0.1096583E+00
         21   -1    0    0  501  502  0.00000000000E+00  0.00000000000E+00  0.25123136123E+03  0.25123136123E+03  0.00000000000E+00 0.  1.
         21   -1    0    0  502  503 -0.00000000000E+00 -0.00000000000E+00 -0.30963301318E+03  0.30963301318E+03  0.00000000000E+00 0.  1.
          6    1    1    2  501    0 -0.20581406084E+03  0.72121228178E+02 -0.46605093110E+02  0.28224445769E+03  0.17300000000E+03 0.  1.
         -6    1    1    2    0  503  0.20581406084E+03 -0.72121228178E+02 -0.11796558836E+02  0.27861991672E+03  0.17300000000E+03 0.  1.
<mgrwt>
<rscale>  2 0.27837008E+03</rscale>
<asrwt>0</asrwt>
<pdfrwt beam="1">  1       21 0.38650979E-01 0.27837008E+03</pdfrwt>
<pdfrwt beam="2">  1       21 0.47635848E-01 0.27837008E+03</pdfrwt>
<totfact> 0.26088474E+04</totfact>
</mgrwt>
</event>
<event>
 4    1  0.4025504E+000  0.2599538E+03  0.7546771E-02  0.1107171E+00
         21   -1    0    0  503  502  0.00000000000E+00  0.00000000000E+00  0.18003493658E+03  0.18003493658E+03  0.00000000000E+00 0.  1.
         21   -1    0    0  501  503 -0.00000000000E+00 -0.00000000000E+00 -0.37631345733E+03  0.37631345733E+03  0.00000000000E+00 0. -1.
          6    1    1    2  501    0 -0.17680209495E+03  0.79924848324E+02 -0.84057805820E+02  0.27320628997E+03  0.17300000000E+03 0. -1.
         -6    1    1    2    0  502  0.17680209495E+03 -0.79924848324E+02 -0.11222071493E+03  0.28314210393E+03  0.17300000000E+03 0.  1.
<mgrwt>
<rscale>  2 0.25995377E+03</rscale>
<asrwt>0</asrwt>
<pdfrwt beam="1">  1       21 0.27697683E-01 0.25995377E+03</pdfrwt>
<pdfrwt beam="2">  1       21 0.57894378E-01 0.25995377E+03</pdfrwt>
<totfact> 0.33697853E+04</totfact>
</mgrwt>
</event>
<event>
 4    1  0.4025504E+000  0.1903830E+03  0.7546771E-02  0.1158116E+00
         21   -1    0    0  501  502  0.00000000000E+00  0.00000000000E+00  0.10069164550E+03  0.10069164550E+03  0.00000000000E+00 0.  1.
         21   -1    0    0  502  503 -0.00000000000E+00 -0.00000000000E+00 -0.48478437758E+03  0.48478437758E+03  0.00000000000E+00 0. -1.
          6    1    1    2  501    0  0.78054851193E+02 -0.14970249032E+02 -0.43506727863E+02  0.19529081781E+03  0.17300000000E+03 0.  1.
         -6    1    1    2    0  503 -0.78054851193E+02  0.14970249032E+02 -0.34058600421E+03  0.39018520527E+03  0.17300000000E+03 0. -1.
<mgrwt>
<rscale>  2 0.19038295E+03</rscale>
<asrwt>0</asrwt>
<pdfrwt beam="1">  1       21 0.15491022E-01 0.19038295E+03</pdfrwt>
<pdfrwt beam="2">  1       21 0.74582212E-01 0.19038295E+03</pdfrwt>
<totfact> 0.59613615E+04</totfact>
</mgrwt>
</event>
<event>
 4    1  0.4025504E+000  0.1952146E+03  0.7546771E-02  0.1153840E+00
         21   -1    0    0  501  502  0.00000000000E+00  0.00000000000E+00  0.25839514006E+03  0.25839514006E+03  0.00000000000E+00 0. -1.
         21   -1    0    0  502  503 -0.00000000000E+00 -0.00000000000E+00 -0.27227288921E+03  0.27227288921E+03  0.00000000000E+00 0. -1.
          6    1    1    2  501    0  0.90426690790E+02 -0.16607589478E+01  0.17269217622E+03  0.26063639856E+03  0.17300000000E+03 0. -1.
         -6    1    1    2    0  503 -0.90426690790E+02  0.16607589478E+01 -0.18656992537E+03  0.27003163071E+03  0.17300000000E+03 0. -1.
<mgrwt>
<rscale>  2 0.19521461E+03</rscale>
<asrwt>0</asrwt>
<pdfrwt beam="1">  1       21 0.39753099E-01 0.19521461E+03</pdfrwt>
<pdfrwt beam="2">  1       21 0.41888137E-01 0.19521461E+03</pdfrwt>
<totfact> 0.33415674E+04</totfact>
</mgrwt>
</event>
<event>
 4    1  0.4025504E+000  0.1972899E+03  0.7546771E-02  0.1152046E+00
         21   -1    0    0  501  502  0.00000000000E+00  0.00000000000E+00  0.13554640369E+03  0.13554640369E+03  0.00000000000E+00 0.  1.
         21   -1    0    0  502  503 -0.00000000000E+00 -0.00000000000E+00 -0.37674725627E+03  0.37674725627E+03  0.00000000000E+00 0.  1.
          6    1    1    2  501    0 -0.91716407026E+02 -0.24132863085E+02  0.43077378974E+01  0.19733689722E+03  0.17300000000E+03 0.  1.
         -6    1    1    2    0  503  0.91716407026E+02  0.24132863085E+02 -0.24550859047E+03  0.31495676274E+03  0.17300000000E+03 0.  1.
<mgrwt>
<rscale>  2 0.19728987E+03</rscale>
<asrwt>0</asrwt>
<pdfrwt beam="1">  1       21 0.20853293E-01 0.19728987E+03</pdfrwt>
<pdfrwt beam="2">  1       21 0.57961115E-01 0.19728987E+03</pdfrwt>
<totfact> 0.59435423E+04</totfact>
</mgrwt>
</event>
<event>
 4    1  0.4025504E+000  0.2037752E+03  0.7546771E-02  0.1146592E+00
         21   -1    0    0  503  502  0.00000000000E+00  0.00000000000E+00  0.23979940117E+03  0.23979940117E+03  0.00000000000E+00 0. -1.
         21   -1    0    0  501  503 -0.00000000000E+00 -0.00000000000E+00 -0.34545339202E+03  0.34545339202E+03  0.00000000000E+00 0. -1.
          6    1    1    2  501    0  0.89912926387E+02 -0.59253520045E+02 -0.25948377859E+03  0.32993354682E+03  0.17300000000E+03 0. -1.
         -6    1    1    2    0  502 -0.89912926387E+02  0.59253520045E+02  0.15382978773E+03  0.25531924636E+03  0.17300000000E+03 0. -1.
<mgrwt>
<rscale>  2 0.20377516E+03</rscale>
<asrwt>0</asrwt>
<pdfrwt beam="1">  1       21 0.36892216E-01 0.20377516E+03</pdfrwt>
<pdfrwt beam="2">  1       21 0.53146676E-01 0.20377516E+03</pdfrwt>
<totfact> 0.23607615E+04</totfact>
</mgrwt>
</event>
<event>
 4    1  0.4025504E+000  0.3148861E+03  0.7546771E-02  0.1078027E+00
         21   -1    0    0  501  502  0.00000000000E+00  0.00000000000E+00  0.14544506831E+03  0.14544506831E+03  0.00000000000E+00 0. -1.
         21   -1    0    0  502  503 -0.00000000000E+00 -0.00000000000E+00 -0.99308968924E+03  0.99308968924E+03  0.00000000000E+00 0.  1.
          6    1    1    2  501    0 -0.24650524861E+03 -0.91974949513E+02 -0.74257820795E+03  0.80658268259E+03  0.17300000000E+03 0.  1.
         -6    1    1    2    0  503  0.24650524861E+03  0.91974949513E+02 -0.10506641298E+03  0.33195207495E+03  0.17300000000E+03 0. -1.
<mgrwt>
<rscale>  2 0.31488606E+03</rscale>
<asrwt>0</asrwt>
<pdfrwt beam="1">  1       21 0.22376164E-01 0.31488606E+03</pdfrwt>
<pdfrwt beam="2">  1       21 0.15278303E+00 0.31488606E+03</pdfrwt>
<totfact> 0.49058748E+03</totfact>
</mgrwt>
</event>
<event>
 4    1  0.4025504E+000  0.3101963E+03  0.7546771E-02  0.1080252E+00
         21   -1    0    0  501  502  0.00000000000E+00  0.00000000000E+00  0.34818195059E+03  0.34818195059E+03  0.00000000000E+00 0. -1.
         21   -1    0    0  502  503 -0.00000000000E+00 -0.00000000000E+00 -0.38126999774E+03  0.38126999774E+03  0.00000000000E+00 0.  1.
          6    1    1    2  501    0 -0.24199116632E+03  0.87937423974E+02  0.17478013231E+03  0.35604748245E+03  0.17300000000E+03 0. -1.
         -6    1    1    2    0  503  0.24199116632E+03 -0.87937423974E+02 -0.20786817945E+03  0.37340446588E+03  0.17300000000E+03 0.  1.
<mgrwt>
<rscale>  2 0.31019625E+03</rscale>
<asrwt>0</asrwt>
<pdfrwt beam="1">  1       21 0.53566454E-01 0.31019625E+03</pdfrwt>
<pdfrwt beam="2">  1       21 0.58656923E-01 0.31019625E+03</pdfrwt>
<totfact> 0.83908982E+03</totfact>
</mgrwt>
</event>
<event>
 4    1  0.4025504E+000  0.2100631E+03  0.7546771E-02  0.1141516E+00
         21   -1    0    0  501  502  0.00000000000E+00  0.00000000000E+00  0.75271599187E+02  0.75271599187E+02  0.00000000000E+00 0.  1.
         21   -1    0    0  502  503 -0.00000000000E+00 -0.00000000000E+00 -0.62995787535E+03  0.62995787535E+03  0.00000000000E+00 0.  1.
          6    1    1    2  501    0 -0.80933095238E+02 -0.87449153254E+02 -0.18444210431E+03  0.27954500560E+03  0.17300000000E+03 0.  1.
         -6    1    1    2    0  503  0.80933095238E+02  0.87449153254E+02 -0.37024417184E+03  0.42568446894E+03  0.17300000000E+03 0.  1.
<mgrwt>
<rscale>  2 0.21006313E+03</rscale>
<asrwt>0</asrwt>
<pdfrwt beam="1">  1       21 0.11580246E-01 0.21006313E+03</pdfrwt>
<pdfrwt beam="2">  1       21 0.96916592E-01 0.21006313E+03</pdfrwt>
<totfact> 0.54803871E+04</totfact>
</mgrwt>
</event>
<event>
 4    1  0.4025504E+000  0.2009443E+03  0.7546771E-02  0.1148945E+00
         21   -1    0    0  503  502  0.00000000000E+00  0.00000000000E+00  0.30355087412E+03  0.30355087412E+03  0.00000000000E+00 0. -1.
         21   -1    0    0  501  503 -0.00000000000E+00 -0.00000000000E+00 -0.20391044098E+03  0.20391044098E+03  0.00000000000E+00 0.  1.
          6    1    1    2  501    0 -0.99263352984E+02 -0.24421482918E+02 -0.99784118442E+02  0.22435572729E+03  0.17300000000E+03 0.  1.
         -6    1    1    2    0  502  0.99263352984E+02  0.24421482918E+02  0.19942455159E+03  0.28310558781E+03  0.17300000000E+03 0. -1.
<mgrwt>
<rscale>  2 0.20094433E+03</rscale>
<asrwt>0</asrwt>
<pdfrwt beam="1">  1       21 0.46700134E-01 0.20094433E+03</pdfrwt>
<pdfrwt beam="2">  1       21 0.31370837E-01 0.20094433E+03</pdfrwt>
<totfact> 0.42692218E+04</totfact>
</mgrwt>
</event>
<event>
 4    1  0.4025504E+000  0.1864210E+03  0.7546771E-02  0.1161730E+00
         21   -1    0    0  501  502  0.00000000000E+00  0.00000000000E+00  0.57134809750E+03  0.57134809750E+03  0.00000000000E+00 0. -1.
         21   -1    0    0  502  503 -0.00000000000E+00 -0.00000000000E+00 -0.62617028703E+02  0.62617028703E+02  0.00000000000E+00 0. -1.
          6    1    1    2  501    0 -0.51101492029E+02  0.47036431321E+02  0.30797568165E+03  0.36000251228E+03  0.17300000000E+03 0. -1.
         -6    1    1    2    0  503  0.51101492029E+02 -0.47036431321E+02  0.20075538714E+03  0.27396261392E+03  0.17300000000E+03 0. -1.
<mgrwt>
<rscale>  2 0.18642100E+03</rscale>
<asrwt>0</asrwt>
<pdfrwt beam="1">  1       21 0.87899704E-01 0.18642100E+03</pdfrwt>
<pdfrwt beam="2">  1       21 0.96333894E-02 0.18642100E+03</pdfrwt>
<totfact> 0.96401028E+04</totfact>
</mgrwt>
</event>
<event>
 4    1  0.4025504E+000  0.1860483E+03  0.7546771E-02  0.1162075E+00
         21   -1    0    0  501  502  0.00000000000E+00  0.00000000000E+00  0.46854387779E+02  0.46854387779E+02  0.00000000000E+00 0. -1.
         21   -1    0    0  502  503 -0.00000000000E+00 -0.00000000000E+00 -0.85021063637E+03  0.85021063637E+03  0.00000000000E+00 0. -1.
          6    1    1    2  501    0  0.62212711945E+02 -0.28540181536E+02 -0.23928053045E+03  0.30309921765E+03  0.17300000000E+03 0. -1.
         -6    1    1    2    0  503 -0.62212711945E+02  0.28540181536E+02 -0.56407571814E+03  0.59396580650E+03  0.17300000000E+03 0. -1.
<mgrwt>
<rscale>  2 0.18604828E+03</rscale>
<asrwt>0</asrwt>
<pdfrwt beam="1">  1       21 0.72083672E-02 0.18604828E+03</pdfrwt>
<pdfrwt beam="2">  1       21 0.13080164E+00 0.18604828E+03</pdfrwt>
<totfact> 0.61399309E+04</totfact>
</mgrwt>
</event>
<event>
 4    1  0.4025504E+000  0.1909860E+03  0.7546771E-02  0.1157575E+00
         21   -1    0    0  503  502  0.00000000000E+00  0.00000000000E+00  0.26857276700E+04  0.26857276700E+04  0.00000000000E+00 0. -1.
         21   -1    0    0  501  503 -0.00000000000E+00 -0.00000000000E+00 -0.13634839016E+02  0.13634839016E+02  0.00000000000E+00 0. -1.
          6    1    1    2  501    0  0.63675284983E+02  0.49920891072E+02  0.14206318610E+04  0.14334121954E+04  0.17300000000E+03 0. -1.
         -6    1    1    2    0  502 -0.63675284983E+02 -0.49920891072E+02  0.12514609700E+04  0.12659503136E+04  0.17300000000E+03 0. -1.
<mgrwt>
<rscale>  2 0.19098596E+03</rscale>
<asrwt>0</asrwt>
<pdfrwt beam="1">  1       21 0.41318845E+00 0.19098596E+03</pdfrwt>
<pdfrwt beam="2">  1       21 0.20976697E-02 0.19098596E+03</pdfrwt>
<totfact> 0.82195201E+03</totfact>
</mgrwt>
</event>
<event>
 4    1  0.4025504E+000  0.1880137E+03  0.7546771E-02  0.1160265E+00
         21   -1    0    0  503  502  0.00000000000E+00  0.00000000000E+00  0.13187983757E+03  0.13187983757E+03  0.00000000000E+00 0.  1.
         21   -1    0    0  501  503 -0.00000000000E+00 -0.00000000000E+00 -0.29397502194E+03  0.29397502194E+03  0.00000000000E+00 0.  1.
          6    1    1    2  501    0 -0.72502341168E+02  0.12789000498E+02 -0.14429094106E+03  0.23700004996E+03  0.17300000000E+03 0.  1.
         -6    1    1    2    0  502  0.72502341168E+02 -0.12789000498E+02 -0.17804243308E+02  0.18885480955E+03  0.17300000000E+03 0.  1.
<mgrwt>
<rscale>  2 0.18801369E+03</rscale>
<asrwt>0</asrwt>
<pdfrwt beam="1">  1       21 0.20289206E-01 0.18801369E+03</pdfrwt>
<pdfrwt beam="2">  1       21 0.45226926E-01 0.18801369E+03</pdfrwt>
<totfact> 0.10557328E+05</totfact>
</mgrwt>
</event>
<event>
 4    1  0.4025504E+000  0.1856572E+03  0.7546771E-02  0.1162438E+00
         21   -1    0    0  503  502  0.00000000000E+00  0.00000000000E+00  0.52567703333E+03  0.52567703333E+03  0.00000000000E+00 0. -1.
         21   -1    0    0  501  503 -0.00000000000E+00 -0.00000000000E+00 -0.67868107620E+02  0.67868107620E+02  0.00000000000E+00 0. -1.
          6    1    1    2  501    0 -0.46560659050E+02  0.48699974219E+02  0.17429260325E+03  0.25464974771E+03  0.17300000000E+03 0.  1.
         -6    1    1    2    0  502  0.46560659050E+02 -0.48699974219E+02  0.28351632246E+03  0.33889539324E+03  0.17300000000E+03 0.  1.
<mgrwt>
<rscale>  2 0.18565716E+03</rscale>
<asrwt>0</asrwt>
<pdfrwt beam="1">  1       21 0.80873387E-01 0.18565716E+03</pdfrwt>
<pdfrwt beam="2">  1       21 0.10441248E-01 0.18565716E+03</pdfrwt>
<totfact> 0.10116275E+05</totfact>
</mgrwt>
</event>
<event>
 4    1  0.4025504E+000  0.1990599E+03  0.7546771E-02  0.1150535E+00
         21   -1    0    0  501  502  0.00000000000E+00  0.00000000000E+00  0.88184736467E+03  0.88184736467E+03  0.00000000000E+00 0.  1.
         21   -1    0    0  502  503 -0.00000000000E+00 -0.00000000000E+00 -0.50715197493E+02  0.50715197493E+02  0.00000000000E+00 0. -1.
          6    1    1    2  501    0 -0.60040497885E+02 -0.78044673940E+02  0.57299769960E+03  0.60658980890E+03  0.17300000000E+03 0.  1.
         -6    1    1    2    0  503  0.60040497885E+02  0.78044673940E+02  0.25813446758E+03  0.32597275326E+03  0.17300000000E+03 0. -1.
<mgrwt>
<rscale>  2 0.19905987E+03</rscale>
<asrwt>0</asrwt>
<pdfrwt beam="1">  1       21 0.13566881E+00 0.19905987E+03</pdfrwt>
<pdfrwt beam="2">  1       21 0.78023388E-02 0.19905987E+03</pdfrwt>
<totfact> 0.48450226E+04</totfact>
</mgrwt>
</event>
<event>
 4    1  0.4025504E+000  0.1807542E+03  0.7546771E-02  0.1167075E+00
         21   -1    0    0  503  502  0.00000000000E+00  0.00000000000E+00  0.19810613375E+02  0.19810613375E+02  0.00000000000E+00 0. -1.
         21   -1    0    0  501  503 -0.00000000000E+00 -0.00000000000E+00 -0.16738604529E+04  0.16738604529E+04  0.00000000000E+00 0. -1.
          6    1    1    2  501    0 -0.89886184367E+01  0.51597462931E+02 -0.72428272922E+03  0.74649686221E+03  0.17300000000E+03 0. -1.
         -6    1    1    2    0  502  0.89886184367E+01 -0.51597462931E+02 -0.92976711032E+03  0.94717420408E+03  0.17300000000E+03 0. -1.
<mgrwt>
<rscale>  2 0.18075423E+03</rscale>
<asrwt>0</asrwt>
<pdfrwt beam="1">  1       21 0.30477881E-02 0.18075423E+03</pdfrwt>
<pdfrwt beam="2">  1       21 0.25751687E+00 0.18075423E+03</pdfrwt>
<totfact> 0.37404510E+04</totfact>
</mgrwt>
</event>
<event>
 4    1  0.4025504E+000  0.2170596E+03  0.7546771E-02  0.1136094E+00
         21   -1    0    0  501  502  0.00000000000E+00  0.00000000000E+00  0.29227424646E+02  0.29227424646E+02  0.00000000000E+00 0. -1.
         21   -1    0    0  502  503 -0.00000000000E+00 -0.00000000000E+00 -0.16512828331E+04  0.16512828331E+04  0.00000000000E+00 0.  1.
          6    1    1    2  501    0 -0.86803442411E+02 -0.98239718986E+02 -0.68144397012E+03  0.71517883387E+03  0.17300000000E+03 0. -1.
         -6    1    1    2    0  503  0.86803442411E+02  0.98239718986E+02 -0.94061143832E+03  0.96533142387E+03  0.17300000000E+03 0.  1.
<mgrwt>
<rscale>  2 0.21705962E+03</rscale>
<asrwt>0</asrwt>
<pdfrwt beam="1">  1       21 0.44965272E-02 0.21705962E+03</pdfrwt>
<pdfrwt beam="2">  1       21 0.25404349E+00 0.21705962E+03</pdfrwt>
<totfact> 0.19847171E+04</totfact>
</mgrwt>
</event>
<event>
 4    1  0.4025504E+000  0.1850930E+03  0.7546771E-02  0.1162963E+00
         21   -1    0    0  501  502  0.00000000000E+00  0.00000000000E+00  0.17012742330E+04  0.17012742330E+04  0.00000000000E+00 0. -1.
         21   -1    0    0  502  503 -0.00000000000E+00 -0.00000000000E+00 -0.29006621297E+02  0.29006621297E+02  0.00000000000E+00 0.  1.
          6    1    1    2  501    0  0.26316521738E+02  0.60314618932E+02  0.13145196197E+04  0.13274868147E+04  0.17300000000E+03 0. -1.
         -6    1    1    2    0  503 -0.26316521738E+02 -0.60314618932E+02  0.35774799205E+03  0.40279403967E+03  0.17300000000E+03 0.  1.
<mgrwt>
<rscale>  2 0.18509298E+03</rscale>
<asrwt>0</asrwt>
<pdfrwt beam="1">  1       21 0.26173442E+00 0.18509298E+03</pdfrwt>
<pdfrwt beam="2">  1       21 0.44625585E-02 0.18509298E+03</pdfrwt>
<totfact> 0.18638382E+04</totfact>
</mgrwt>
</event>
<event>
 4    1  0.4025504E+000  0.2007461E+03  0.7546771E-02  0.1149111E+00
         21   -1    0    0  503  502  0.00000000000E+00  0.00000000000E+00  0.16058893180E+03  0.16058893180E+03  0.00000000000E+00 0.  1.
         21   -1    0    0  501  503 -0.00000000000E+00 -0.00000000000E+00 -0.26478428280E+03  0.26478428280E+03  0.00000000000E+00 0.  1.
          6    1    1    2  501    0 -0.30546937264E+02  0.97143607163E+02 -0.34737274260E+01  0.20077615040E+03  0.17300000000E+03 0.  1.
         -6    1    1    2    0  502  0.30546937264E+02 -0.97143607163E+02 -0.10072162358E+03  0.22459706419E+03  0.17300000000E+03 0.  1.
<mgrwt>
<rscale>  2 0.20074610E+03</rscale>
<asrwt>0</asrwt>
<pdfrwt beam="1">  1       21 0.24705990E-01 0.20074610E+03</pdfrwt>
<pdfrwt beam="2">  1       21 0.40736043E-01 0.20074610E+03</pdfrwt>
<totfact> 0.89637144E+04</totfact>
</mgrwt>
</event>
<event>
 4    1  0.4025504E+000  0.2298871E+03  0.7546771E-02  0.1126719E+00
         21   -1    0    0  503  502  0.00000000000E+00  0.00000000000E+00  0.72190369723E+02  0.72190369723E+02  0.00000000000E+00 0. -1.
         21   -1    0    0  501  503 -0.00000000000E+00 -0.00000000000E+00 -0.17557921372E+04  0.17557921372E+04  0.00000000000E+00 0.  1.
          6    1    1    2  501    0 -0.98304428713E+02  0.11513182222E+03 -0.15397076977E+04  0.15567748365E+04  0.17300000000E+03 0.  1.
         -6    1    1    2    0  502  0.98304428713E+02 -0.11513182222E+03 -0.14389406982E+03  0.27120767047E+03  0.17300000000E+03 0.  1.
<mgrwt>
<rscale>  2 0.22988714E+03</rscale>
<asrwt>0</asrwt>
<pdfrwt beam="1">  1       21 0.11106212E-01 0.22988714E+03</pdfrwt>
<pdfrwt beam="2">  1       21 0.27012184E+00 0.22988714E+03</pdfrwt>
<totfact> 0.32872019E+03</totfact>
</mgrwt>
</event>
<event>
 4    1  0.4025504E+000  0.3012510E+03  0.7546771E-02  0.1084617E+00
         21   -1    0    0  501  502  0.00000000000E+00  0.00000000000E+00  0.18611224917E+03  0.18611224917E+03  0.00000000000E+00 0. -1.
         21   -1    0    0  502  503 -0.00000000000E+00 -0.00000000000E+00 -0.69211166111E+03  0.69211166111E+03  0.00000000000E+00 0. -1.
          6    1    1    2  501    0  0.24660578203E+03 -0.29612092474E+01 -0.14315180766E+02  0.30159095625E+03  0.17300000000E+03 0. -1.
         -6    1    1    2    0  503 -0.24660578203E+03  0.29612092474E+01 -0.49168423117E+03  0.57663295403E+03  0.17300000000E+03 0. -1.
<mgrwt>
<rscale>  2 0.30125103E+03</rscale>
<asrwt>0</asrwt>
<pdfrwt beam="1">  1       21 0.28632654E-01 0.30125103E+03</pdfrwt>
<pdfrwt beam="2">  1       21 0.10647872E+00 0.30125103E+03</pdfrwt>
<totfact> 0.77198953E+03</totfact>
</mgrwt>
</event>
<event>
 4    1  0.4025504E+000  0.3136476E+03  0.7546771E-02  0.1078611E+00
         21   -1    0    0  501  502  0.00000000000E+00  0.00000000000E+00  0.24689282250E+03  0.24689282250E+03  0.00000000000E+00 0.  1.
         21   -1    0    0  502  503 -0.00000000000E+00 -0.00000000000E+00 -0.50634799097E+03  0.50634799097E+03  0.00000000000E+00 0.  1.
          6    1    1    2  501    0 -0.20900485749E+03 -0.15736202458E+03  0.44125654397E+02  0.31673634242E+03  0.17300000000E+03 0.  1.
         -6    1    1    2    0  503  0.20900485749E+03  0.15736202458E+03 -0.30358082287E+03  0.43650447105E+03  0.17300000000E+03 0.  1.
<mgrwt>
<rscale>  2 0.31364763E+03</rscale>
<asrwt>0</asrwt>
<pdfrwt beam="1">  1       21 0.37983511E-01 0.31364763E+03</pdfrwt>
<pdfrwt beam="2">  1       21 0.77899691E-01 0.31364763E+03</pdfrwt>
<totfact> 0.91218398E+03</totfact>
</mgrwt>
</event>
<event>
 4    1  0.4025504E+000  0.2755175E+03  0.7546771E-02  0.1098163E+00
         21   -1    0    0  501  502  0.00000000000E+00  0.00000000000E+00  0.56819482465E+03  0.56819482465E+03  0.00000000000E+00 0.  1.
         21   -1    0    0  502  503 -0.00000000000E+00 -0.00000000000E+00 -0.25691294022E+03  0.25691294022E+03  0.00000000000E+00 0. -1.
          6    1    1    2  501    0 -0.10856246743E+03  0.18491907231E+03  0.44146249738E+03  0.52038352129E+03  0.17300000000E+03 0.  1.
         -6    1    1    2    0  503  0.10856246743E+03 -0.18491907231E+03 -0.13018061296E+03  0.30472424358E+03  0.17300000000E+03 0. -1.
<mgrwt>
<rscale>  2 0.27551746E+03</rscale>
<asrwt>0</asrwt>
<pdfrwt beam="1">  1       21 0.87414588E-01 0.27551746E+03</pdfrwt>
<pdfrwt beam="2">  1       21 0.39525068E-01 0.27551746E+03</pdfrwt>
<totfact> 0.65748153E+03</totfact>
</mgrwt>
</event>
<event>
 4    1  0.4025504E+000  0.1800803E+03  0.7546771E-02  0.1167725E+00
         21   -1    0    0  503  502  0.00000000000E+00  0.00000000000E+00  0.15172371929E+03  0.15172371929E+03  0.00000000000E+00 0.  1.
         21   -1    0    0  501  503 -0.00000000000E+00 -0.00000000000E+00 -0.21678200118E+03  0.21678200118E+03  0.00000000000E+00 0.  1.
          6    1    1    2  501    0 -0.16173640066E+02  0.47311153424E+02 -0.10691008397E+02  0.18039742108E+03  0.17300000000E+03 0.  1.
         -6    1    1    2    0  502  0.16173640066E+02 -0.47311153424E+02 -0.54367273500E+02  0.18810829939E+03  0.17300000000E+03 0.  1.
<mgrwt>
<rscale>  2 0.18008035E+03</rscale>
<asrwt>0</asrwt>
<pdfrwt beam="1">  1       21 0.23342111E-01 0.18008035E+03</pdfrwt>
<pdfrwt beam="2">  1       21 0.33351077E-01 0.18008035E+03</pdfrwt>
<totfact> 0.15003158E+05</totfact>
</mgrwt>
</event>
<event>
 4    1  0.4025504E+000  0.2382104E+03  0.7546771E-02  0.1120991E+00
         21   -1    0    0  501  502  0.00000000000E+00  0.00000000000E+00  0.32441145237E+04  0.32441145237E+04  0.00000000000E+00 0. -1.
         21   -1    0    0  502  503 -0.00000000000E+00 -0.00000000000E+00 -0.23628533166E+02  0.23628533166E+02  0.00000000000E+00 0. -1.
          6    1    1    2  501    0  0.20576545808E+01  0.16374047543E+03  0.24429294635E+04  0.24545159484E+04  0.17300000000E+03 0. -1.
         -6    1    1    2    0  503 -0.20576545808E+01 -0.16374047543E+03  0.77755652704E+03  0.81322710849E+03  0.17300000000E+03 0. -1.
<mgrwt>
<rscale>  2 0.23821036E+03</rscale>
<asrwt>0</asrwt>
<pdfrwt beam="1">  1       21 0.49909419E+00 0.23821036E+03</pdfrwt>
<pdfrwt beam="2">  1       21 0.36351615E-02 0.23821036E+03</pdfrwt>
<totfact> 0.82669952E+02</totfact>
</mgrwt>
</event>
<event>
 4    1  0.4025504E+000  0.1922647E+03  0.7546771E-02  0.1156434E+00
         21   -1    0    0  503  502  0.00000000000E+00  0.00000000000E+00  0.33610163536E+02  0.33610163536E+02  0.00000000000E+00 0.  1.
         21   -1    0    0  501  503 -0.00000000000E+00 -0.00000000000E+00 -0.11246086263E+04  0.11246086263E+04  0.00000000000E+00 0. -1.
          6    1    1    2  501    0 -0.66833572889E+02  0.50695183989E+02 -0.63144612768E+03  0.66006813308E+03  0.17300000000E+03 0.  1.
         -6    1    1    2    0  502  0.66833572889E+02 -0.50695183989E+02 -0.45955233506E+03  0.49815065674E+03  0.17300000000E+03 0. -1.
<mgrwt>
<rscale>  2 0.19226473E+03</rscale>
<asrwt>0</asrwt>
<pdfrwt beam="1">  1       21 0.51707936E-02 0.19226473E+03</pdfrwt>
<pdfrwt beam="2">  1       21 0.17301674E+00 0.19226473E+03</pdfrwt>
<totfact> 0.51661403E+04</totfact>
</mgrwt>
</event>
<event>
 4    1  0.4025504E+000  0.2410010E+03  0.7546771E-02  0.1119128E+00
         21   -1    0    0  503  502  0.00000000000E+00  0.00000000000E+00  0.16393145525E+04  0.16393145525E+04  0.00000000000E+00 0.  1.
         21   -1    0    0  501  503 -0.00000000000E+00 -0.00000000000E+00 -0.35452936074E+02  0.35452936074E+02  0.00000000000E+00 0.  1.
          6    1    1    2  501    0 -0.12165426832E+03  0.11555402141E+03  0.82306532528E+03  0.85762347365E+03  0.17300000000E+03 0.  1.
         -6    1    1    2    0  502  0.12165426832E+03 -0.11555402141E+03  0.78079629111E+03  0.81714401489E+03  0.17300000000E+03 0.  1.
<mgrwt>
<rscale>  2 0.24100102E+03</rscale>
<asrwt>0</asrwt>
<pdfrwt beam="1">  1       21 0.25220218E+00 0.24100102E+03</pdfrwt>
<pdfrwt beam="2">  1       21 0.54542991E-02 0.24100102E+03</pdfrwt>
<totfact> 0.14381853E+04</totfact>
</mgrwt>
</event>
<event>
 4    1  0.4025504E+000  0.2585861E+03  0.7546771E-02  0.1107996E+00
         21   -1    0    0  501  502  0.00000000000E+00  0.00000000000E+00  0.32175538219E+03  0.32175538219E+03  0.00000000000E+00 0.  1.
         21   -1    0    0  502  503 -0.00000000000E+00 -0.00000000000E+00 -0.21458472068E+03  0.21458472068E+03  0.00000000000E+00 0. -1.
          6    1    1    2  501    0  0.31222004686E+02 -0.18963896666E+03  0.59662586186E+01  0.25865488105E+03  0.17300000000E+03 0.  1.
         -6    1    1    2    0  503 -0.31222004686E+02  0.18963896666E+03  0.10120440289E+03  0.27768522182E+03  0.17300000000E+03 0. -1.
<mgrwt>
<rscale>  2 0.25858606E+03</rscale>
<asrwt>0</asrwt>
<pdfrwt beam="1">  1       21 0.49500828E-01 0.25858606E+03</pdfrwt>
<pdfrwt beam="2">  1       21 0.33013034E-01 0.25858606E+03</pdfrwt>
<totfact> 0.33300127E+04</totfact>
</mgrwt>
</event>
<event>
 4    1  0.4025504E+000  0.2258593E+03  0.7546771E-02  0.1129589E+00
         21   -1    0    0  501  502  0.00000000000E+00  0.00000000000E+00  0.79379933240E+02  0.79379933240E+02  0.00000000000E+00 0. -1.
         21   -1    0    0  502  503 -0.00000000000E+00 -0.00000000000E+00 -0.18745146190E+04  0.18745146190E+04  0.00000000000E+00 0. -1.
          6    1    1    2  501    0  0.43082990458E+02  0.13866239041E+03 -0.10559380709E+03  0.24932399539E+03  0.17300000000E+03 0. -1.
         -6    1    1    2    0  503 -0.43082990458E+02 -0.13866239041E+03 -0.16895408787E+04  0.17045705569E+04  0.17300000000E+03 0. -1.
<mgrwt>
<rscale>  2 0.22585925E+03</rscale>
<asrwt>0</asrwt>
<pdfrwt beam="1">  1       21 0.12212298E-01 0.22585925E+03</pdfrwt>
<pdfrwt beam="2">  1       21 0.28838686E+00 0.22585925E+03</pdfrwt>
<totfact> 0.21793944E+03</totfact>
</mgrwt>
</event>
<event>
 4    1  0.4025504E+000  0.1820600E+03  0.7546771E-02  0.1165824E+00
         21   -1    0    0  503  502  0.00000000000E+00  0.00000000000E+00  0.81073709196E+03  0.81073709196E+03  0.00000000000E+00 0.  1.
         21   -1    0    0  501  503 -0.00000000000E+00 -0.00000000000E+00 -0.64020623980E+02  0.64020623980E+02  0.00000000000E+00 0.  1.
          6    1    1    2  501    0 -0.46392308773E+02 -0.32628021725E+02  0.11042118863E+03  0.21292879799E+03  0.17300000000E+03 0. -1.
         -6    1    1    2    0  502  0.46392308773E+02  0.32628021725E+02  0.63629527934E+03  0.66182891794E+03  0.17300000000E+03 0. -1.
<mgrwt>
<rscale>  2 0.18205997E+03</rscale>
<asrwt>0</asrwt>
<pdfrwt beam="1">  1       21 0.12472878E+00 0.18205997E+03</pdfrwt>
<pdfrwt beam="2">  1       21 0.98493273E-02 0.18205997E+03</pdfrwt>
<totfact> 0.40210742E+04</totfact>
</mgrwt>
</event>
<event>
 4    1  0.4025504E+000  0.2004466E+03  0.7546771E-02  0.1149363E+00
         21   -1    0    0  501  502  0.00000000000E+00  0.00000000000E+00  0.14262815332E+03  0.14262815332E+03  0.00000000000E+00 0.  1.
         21   -1    0    0  502  503 -0.00000000000E+00 -0.00000000000E+00 -0.43549323688E+03  0.43549323688E+03  0.00000000000E+00 0.  1.
          6    1    1    2  501    0 -0.10058393896E+03 -0.11520040356E+02  0.25343309713E+02  0.20204238034E+03  0.17300000000E+03 0.  1.
         -6    1    1    2    0  503  0.10058393896E+03  0.11520040356E+02 -0.31820839327E+03  0.37607900986E+03  0.17300000000E+03 0.  1.
<mgrwt>
<rscale>  2 0.20044660E+03</rscale>
<asrwt>0</asrwt>
<pdfrwt beam="1">  1       21 0.21942793E-01 0.20044660E+03</pdfrwt>
<pdfrwt beam="2">  1       21 0.66998959E-01 0.20044660E+03</pdfrwt>
<totfact> 0.39412950E+04</totfact>
</mgrwt>
</event>
<event>
 4    1  0.4025504E+000  0.1846657E+03  0.7546771E-02  0.1163362E+00
         21   -1    0    0  501  502  0.00000000000E+00  0.00000000000E+00  0.37789905370E+02  0.37789905370E+02  0.00000000000E+00 0. -1.
         21   -1    0    0  502  503 -0.00000000000E+00 -0.00000000000E+00 -0.10012041410E+04  0.10012041410E+04  0.00000000000E+00 0.  1.
          6    1    1    2  501    0 -0.63929988395E+02  0.92395380027E+01 -0.31850686005E+03  0.36816848368E+03  0.17300000000E+03 0. -1.
         -6    1    1    2    0  503  0.63929988395E+02 -0.92395380027E+01 -0.64490737561E+03  0.67082556272E+03  0.17300000000E+03 0.  1.
<mgrwt>
<rscale>  2 0.18466568E+03</rscale>
<asrwt>0</asrwt>
<pdfrwt beam="1">  1       21 0.58138322E-02 0.18466568E+03</pdfrwt>
<pdfrwt beam="2">  1       21 0.15403139E+00 0.18466568E+03</pdfrwt>
<totfact> 0.58245488E+04</totfact>
</mgrwt>
</event>
<event>
 4    1  0.4025504E+000  0.2173924E+03  0.7546771E-02  0.1135842E+00
         21   -1    0    0  501  502  0.00000000000E+00  0.00000000000E+00  0.32035547899E+03  0.32035547899E+03  0.00000000000E+00 0.  1.
         21   -1    0    0  502  503 -0.00000000000E+00 -0.00000000000E+00 -0.30613007428E+03  0.30613007428E+03  0.00000000000E+00 0. -1.
          6    1    1    2  501    0  0.40078707629E+01 -0.13158422920E+03  0.23258373261E+03  0.31836247435E+03  0.17300000000E+03 0.  1.
         -6    1    1    2    0  503 -0.40078707629E+01  0.13158422920E+03 -0.21835832789E+03  0.30812307892E+03  0.17300000000E+03 0. -1.
<mgrwt>
<rscale>  2 0.21739244E+03</rscale>
<asrwt>0</asrwt>
<pdfrwt beam="1">  1       21 0.49285458E-01 0.21739244E+03</pdfrwt>
<pdfrwt beam="2">  1       21 0.47096934E-01 0.21739244E+03</pdfrwt>
<totfact> 0.16686686E+04</totfact>
</mgrwt>
</event>
<event>
 4    1  0.4025504E+000  0.1924586E+03  0.7546771E-02  0.1156262E+00
         21   -1    0    0  503  502  0.00000000000E+00  0.00000000000E+00  0.85256844270E+02  0.85256844270E+02  0.00000000000E+00 0. -1.
         21   -1    0    0  501  503 -0.00000000000E+00 -0.00000000000E+00 -0.72889370413E+03  0.72889370413E+03  0.00000000000E+00 0. -1.
          6    1    1    2  501    0 -0.79567536627E+02 -0.27934359064E+02 -0.58054412529E+03  0.61161409624E+03  0.17300000000E+03 0. -1.
         -6    1    1    2    0  502  0.79567536627E+02  0.27934359064E+02 -0.63092734570E+02  0.20253645217E+03  0.17300000000E+03 0. -1.
<mgrwt>
<rscale>  2 0.19245862E+03</rscale>
<asrwt>0</asrwt>
<pdfrwt beam="1">  1       21 0.13116438E-01 0.19245862E+03</pdfrwt>
<pdfrwt beam="2">  1       21 0.11213749E+00 0.19245862E+03</pdfrwt>
<totfact> 0.31185054E+04</totfact>
</mgrwt>
</event>
<event>
 4    1  0.4025504E+000  0.2558119E+03  0.7546771E-02  0.1109686E+00
         21   -1    0    0  501  502  0.00000000000E+00  0.00000000000E+00  0.11004104724E+03  0.11004104724E+03  0.00000000000E+00 0.  1.
         21   -1    0    0  502  503 -0.00000000000E+00 -0.00000000000E+00 -0.63030928294E+03  0.63030928294E+03  0.00000000000E+00 0.  1.
          6    1    1    2  501    0 -0.14842550762E+03 -0.11610587528E+03 -0.17212928616E+03  0.30833131002E+03  0.17300000000E+03 0.  1.
         -6    1    1    2    0  503  0.14842550762E+03  0.11610587528E+03 -0.34813894954E+03  0.43201902015E+03  0.17300000000E+03 0.  1.
<mgrwt>
<rscale>  2 0.25581186E+03</rscale>
<asrwt>0</asrwt>
<pdfrwt beam="1">  1       21 0.16929391E-01 0.25581186E+03</pdfrwt>
<pdfrwt beam="2">  1       21 0.96970662E-01 0.25581186E+03</pdfrwt>
<totfact> 0.26848075E+04</totfact>
</mgrwt>
</event>
<event>
 4    1  0.4025504E+000  0.1881228E+03  0.7546771E-02  0.1160165E+00
         21   -1    0    0  501  502  0.00000000000E+00  0.00000000000E+00  0.17829292955E+04  0.17829292955E+04  0.00000000000E+00 0. -1.
         21   -1    0    0  502  503 -0.00000000000E+00 -0.00000000000E+00 -0.22186794534E+02  0.22186794534E+02  0.00000000000E+00 0.  1.
          6    1    1    2  501    0  0.30180480194E+02 -0.67456113726E+02  0.58742493372E+03  0.61681297119E+03  0.17300000000E+03 0.  1.
         -6    1    1    2    0  503 -0.30180480194E+02  0.67456113726E+02  0.11733175673E+04  0.11883031189E+04  0.17300000000E+03 0. -1.
<mgrwt>
<rscale>  2 0.18812280E+03</rscale>
<asrwt>0</asrwt>
<pdfrwt beam="1">  1       21 0.27429670E+00 0.18812280E+03</pdfrwt>
<pdfrwt beam="2">  1       21 0.34133544E-02 0.18812280E+03</pdfrwt>
<totfact> 0.24619532E+04</totfact>
</mgrwt>
</event>
<event>
 4    1  0.4025504E+000  0.1977821E+03  0.7546771E-02  0.1151624E+00
         21   -1    0    0  501  502  0.00000000000E+00  0.00000000000E+00  0.71691105490E+02  0.71691105490E+02  0.00000000000E+00 0. -1.
         21   -1    0    0  502  503 -0.00000000000E+00 -0.00000000000E+00 -0.76952375898E+03  0.76952375898E+03  0.00000000000E+00 0. -1.
          6    1    1    2  501    0  0.53801328130E+02 -0.79335775147E+02 -0.12204775612E+03  0.23240783743E+03  0.17300000000E+03 0. -1.
         -6    1    1    2    0  503 -0.53801328130E+02  0.79335775147E+02 -0.57578489737E+03  0.60880702703E+03  0.17300000000E+03 0. -1.
<mgrwt>
<rscale>  2 0.19778207E+03</rscale>
<asrwt>0</asrwt>
<pdfrwt beam="1">  1       21 0.11029401E-01 0.19778207E+03</pdfrwt>
<pdfrwt beam="2">  1       21 0.11838827E+00 0.19778207E+03</pdfrwt>
<totfact> 0.37140167E+04</totfact>
</mgrwt>
</event>
<event>
 4    1  0.4025504E+000  0.2593883E+03  0.7546771E-02  0.1107511E+00
         21   -1    0    0  501  502  0.00000000000E+00  0.00000000000E+00  0.21556648982E+03  0.21556648982E+03  0.00000000000E+00 0. -1.
         21   -1    0    0  502  503 -0.00000000000E+00 -0.00000000000E+00 -0.44644501212E+03  0.44644501212E+03  0.00000000000E+00 0. -1.
          6    1    1    2  501    0  0.78691847954E+02 -0.17652439136E+03 -0.29700444934E+03  0.39432716189E+03  0.17300000000E+03 0. -1.
         -6    1    1    2    0  503 -0.78691847954E+02  0.17652439136E+03  0.66125927044E+02  0.26768434005E+03  0.17300000000E+03 0. -1.
<mgrwt>
<rscale>  2 0.25938826E+03</rscale>
<asrwt>0</asrwt>
<pdfrwt beam="1">  1       21 0.33164076E-01 0.25938826E+03</pdfrwt>
<pdfrwt beam="2">  1       21 0.68683847E-01 0.25938826E+03</pdfrwt>
<totfact> 0.16293796E+04</totfact>
</mgrwt>
</event>
<event>
 4    1  0.4025504E+000  0.1800132E+03  0.7546771E-02  0.1167790E+00
         21   -1    0    0  503  502  0.00000000000E+00  0.00000000000E+00  0.27501430569E+03  0.27501430569E+03  0.00000000000E+00 0.  1.
         21   -1    0    0  501  503 -0.00000000000E+00 -0.00000000000E+00 -0.21430157845E+03  0.21430157845E+03  0.00000000000E+00 0.  1.
          6    1    1    2  501    0  0.14981556472E+02 -0.47448003959E+02 -0.13379623500E+03  0.22429042025E+03  0.17300000000E+03 0.  1.
         -6    1    1    2    0  502 -0.14981556472E+02  0.47448003959E+02  0.19450896224E+03  0.26502546388E+03  0.17300000000E+03 0.  1.
<mgrwt>
<rscale>  2 0.18001322E+03</rscale>
<asrwt>0</asrwt>
<pdfrwt beam="1">  1       21 0.42309893E-01 0.18001322E+03</pdfrwt>
<pdfrwt beam="2">  1       21 0.32969474E-01 0.18001322E+03</pdfrwt>
<totfact> 0.47893971E+04</totfact>
</mgrwt>
</event>
<event>
 4    1  0.4025504E+000  0.2041679E+03  0.7546771E-02  0.1146269E+00
         21   -1    0    0  503  502  0.00000000000E+00  0.00000000000E+00  0.31004283345E+02  0.31004283345E+02  0.00000000000E+00 0. -1.
         21   -1    0    0  501  503 -0.00000000000E+00 -0.00000000000E+00 -0.15274560135E+04  0.15274560135E+04  0.00000000000E+00 0. -1.
          6    1    1    2  501    0  0.10410868166E+03 -0.30280751706E+02 -0.10179266421E+04  0.10381999761E+04  0.17300000000E+03 0. -1.
         -6    1    1    2    0  502 -0.10410868166E+03  0.30280751706E+02 -0.47852508803E+03  0.52026032079E+03  0.17300000000E+03 0. -1.
<mgrwt>
<rscale>  2 0.20416792E+03</rscale>
<asrwt>0</asrwt>
<pdfrwt beam="1">  1       21 0.47698897E-02 0.20416792E+03</pdfrwt>
<pdfrwt beam="2">  1       21 0.23499324E+00 0.20416792E+03</pdfrwt>
<totfact> 0.23555783E+04</totfact>
</mgrwt>
</event>
<event>
 4    1  0.4025504E+000  0.1926821E+03  0.7546771E-02  0.1156064E+00
         21   -1    0    0  501  502  0.00000000000E+00  0.00000000000E+00  0.59456787198E+02  0.59456787198E+02  0.00000000000E+00 0.  1.
         21   -1    0    0  502  503 -0.00000000000E+00 -0.00000000000E+00 -0.65251647953E+03  0.65251647953E+03  0.00000000000E+00 0.  1.
          6    1    1    2  501    0  0.80961790706E+02  0.25349063691E+02 -0.22266895154E+03  0.29446196454E+03  0.17300000000E+03 0.  1.
         -6    1    1    2    0  503 -0.80961790706E+02 -0.25349063691E+02 -0.37039074079E+03  0.41751130218E+03  0.17300000000E+03 0.  1.
<mgrwt>
<rscale>  2 0.19268209E+03</rscale>
<asrwt>0</asrwt>
<pdfrwt beam="1">  1       21 0.91471979E-02 0.19268209E+03</pdfrwt>
<pdfrwt beam="2">  1       21 0.10038715E+00 0.19268209E+03</pdfrwt>
<totfact> 0.77233154E+04</totfact>
</mgrwt>
</event>
<event>
 4    1  0.4025504E+000  0.2035625E+03  0.7546771E-02  0.1146768E+00
         21   -1    0    0  501  502  0.00000000000E+00  0.00000000000E+00  0.17189385699E+04  0.17189385699E+04  0.00000000000E+00 0. -1.
         21   -1    0    0  502  503 -0.00000000000E+00 -0.00000000000E+00 -0.31525921975E+02  0.31525921975E+02  0.00000000000E+00 0.  1.
          6    1    1    2  501    0 -0.28009873713E+01 -0.10724198923E+03  0.12682992884E+04  0.12845313444E+04  0.17300000000E+03 0. -1.
         -6    1    1    2    0  503  0.28009873713E+01  0.10724198923E+03  0.41911335952E+03  0.46593314747E+03  0.17300000000E+03 0.  1.
<mgrwt>
<rscale>  2 0.20356250E+03</rscale>
<asrwt>0</asrwt>
<pdfrwt beam="1">  1       21 0.26445201E+00 0.20356250E+03</pdfrwt>
<pdfrwt beam="2">  1       21 0.48501432E-02 0.20356250E+03</pdfrwt>
<totfact> 0.15349280E+04</totfact>
</mgrwt>
</event>
<event>
 4    1  0.4025504E+000  0.2348416E+03  0.7546771E-02  0.1123278E+00
         21   -1    0    0  501  502  0.00000000000E+00  0.00000000000E+00  0.41207699564E+03  0.41207699564E+03  0.00000000000E+00 0. -1.
         21   -1    0    0  502  503 -0.00000000000E+00 -0.00000000000E+00 -0.13383896400E+03  0.13383896400E+03  0.00000000000E+00 0.  1.
          6    1    1    2  501    0 -0.14823364416E+03 -0.56994373586E+02  0.13775051631E+03  0.27226049406E+03  0.17300000000E+03 0.  1.
         -6    1    1    2    0  503  0.14823364416E+03  0.56994373586E+02  0.14048751533E+03  0.27365546558E+03  0.17300000000E+03 0. -1.
<mgrwt>
<rscale>  2 0.23484159E+03</rscale>
<asrwt>0</asrwt>
<pdfrwt beam="1">  1       21 0.63396460E-01 0.23484159E+03</pdfrwt>
<pdfrwt beam="2">  1       21 0.20590610E-01 0.23484159E+03</pdfrwt>
<totfact> 0.49322936E+04</totfact>
</mgrwt>
</event>
<event>
 4    1  0.4025504E+000  0.2135720E+03  0.7546771E-02  0.1138768E+00
         21   -1    0    0  501  502  0.00000000000E+00  0.00000000000E+00  0.31503070413E+03  0.31503070413E+03  0.00000000000E+00 0.  1.
         21   -1    0    0  502  503 -0.00000000000E+00 -0.00000000000E+00 -0.22256975029E+03  0.22256975029E+03  0.00000000000E+00 0. -1.
          6    1    1    2  501    0  0.79577407334E+02 -0.96702851244E+02  0.20513359106E+03  0.29612969351E+03  0.17300000000E+03 0.  1.
         -6    1    1    2    0  503 -0.79577407334E+02  0.96702851244E+02 -0.11267263721E+03  0.24147076091E+03  0.17300000000E+03 0. -1.
<mgrwt>
<rscale>  2 0.21357201E+03</rscale>
<asrwt>0</asrwt>
<pdfrwt beam="1">  1       21 0.48466262E-01 0.21357201E+03</pdfrwt>
<pdfrwt beam="2">  1       21 0.34241500E-01 0.21357201E+03</pdfrwt>
<totfact> 0.33045442E+04</totfact>
</mgrwt>
</event>
<event>
 4    1  0.4025504E+000  0.2047144E+03  0.7546771E-02  0.1145821E+00
         21   -1    0    0  503  502  0.00000000000E+00  0.00000000000E+00  0.88690440115E+03  0.88690440115E+03  0.00000000000E+00 0.  1.
         21   -1    0    0  501  503 -0.00000000000E+00 -0.00000000000E+00 -0.77815237526E+02  0.77815237526E+02  0.00000000000E+00 0. -1.
          6    1    1    2  501    0 -0.46510680397E+00 -0.10944761058E+03  0.10224429004E+03  0.22882720693E+03  0.17300000000E+03 0. -1.
         -6    1    1    2    0  502  0.46510680397E+00  0.10944761058E+03  0.70684487359E+03  0.73589243175E+03  0.17300000000E+03 0.  1.
<mgrwt>
<rscale>  2 0.20471442E+03</rscale>
<asrwt>0</asrwt>
<pdfrwt beam="1">  1       21 0.13644682E+00 0.20471442E+03</pdfrwt>
<pdfrwt beam="2">  1       21 0.11971576E-01 0.20471442E+03</pdfrwt>
<totfact> 0.22356521E+04</totfact>
</mgrwt>
</event>
<event>
 4    1  0.4025504E+000  0.1741684E+03  0.7546771E-02  0.1173569E+00
         21   -1    0    0  501  502  0.00000000000E+00  0.00000000000E+00  0.31230450605E+03  0.31230450605E+03  0.00000000000E+00 0. -1.
         21   -1    0    0  502  503 -0.00000000000E+00 -0.00000000000E+00 -0.17795234528E+03  0.17795234528E+03  0.00000000000E+00 0. -1.
          6    1    1    2  501    0 -0.11226840274E+02  0.16721027660E+02  0.23237349933E+03  0.29039985865E+03  0.17300000000E+03 0. -1.
         -6    1    1    2    0  503  0.11226840274E+02 -0.16721027660E+02 -0.98021338572E+02  0.19985699268E+03  0.17300000000E+03 0. -1.
<mgrwt>
<rscale>  2 0.17416841E+03</rscale>
<asrwt>0</asrwt>
<pdfrwt beam="1">  1       21 0.48046847E-01 0.17416841E+03</pdfrwt>
<pdfrwt beam="2">  1       21 0.27377284E-01 0.17416841E+03</pdfrwt>
<totfact> 0.53131382E+04</totfact>
</mgrwt>
</event>
<event>
 4    1  0.4025504E+000  0.2111542E+03  0.7546771E-02  0.1140655E+00
         21   -1    0    0  503  502  0.00000000000E+00  0.00000000000E+00  0.26086614152E+04  0.26086614152E+04  0.00000000000E+00 0.  1.
         21   -1    0    0  501  503 -0.00000000000E+00 -0.00000000000E+00 -0.25631399547E+02  0.25631399547E+02  0.00000000000E+00 0.  1.
          6    1    1    2  501    0 -0.68002201839E+02 -0.10016389359E+03  0.53123664564E+03  0.57166290654E+03  0.17300000000E+03 0.  1.
         -6    1    1    2    0  502  0.68002201839E+02  0.10016389359E+03  0.20517933700E+04  0.20626299082E+04  0.17300000000E+03 0.  1.
<mgrwt>
<rscale>  2 0.21115422E+03</rscale>
<asrwt>0</asrwt>
<pdfrwt beam="1">  1       21 0.40133232E+00 0.21115422E+03</pdfrwt>
<pdfrwt beam="2">  1       21 0.39432943E-02 0.21115422E+03</pdfrwt>
<totfact> 0.33462345E+03</totfact>
</mgrwt>
</event>
<event>
 4    1  0.4025504E+000  0.1930755E+03  0.7546771E-02  0.1155716E+00
         21   -1    0    0  503  502  0.00000000000E+00  0.00000000000E+00  0.15450293712E+02  0.15450293712E+02  0.00000000000E+00 0.  1.
         21   -1    0    0  501  503 -0.00000000000E+00 -0.00000000000E+00 -0.29968254379E+04  0.29968254379E+04  0.00000000000E+00 0.  1.
          6    1    1    2  501    0 -0.58803436473E+02  0.62380403840E+02 -0.21555891135E+04  0.21642187008E+04  0.17300000000E+03 0.  1.
         -6    1    1    2    0  502  0.58803436473E+02 -0.62380403840E+02 -0.82578603069E+03  0.84805703075E+03  0.17300000000E+03 0.  1.
<mgrwt>
<rscale>  2 0.19307553E+03</rscale>
<asrwt>0</asrwt>
<pdfrwt beam="1">  1       21 0.23769681E-02 0.19307553E+03</pdfrwt>
<pdfrwt beam="2">  1       21 0.46105010E+00 0.19307553E+03</pdfrwt>
<totfact> 0.32567043E+03</totfact>
</mgrwt>
</event>
<event>
 4    1  0.4025504E+000  0.1980155E+03  0.7546771E-02  0.1151424E+00
         21   -1    0    0  501  502  0.00000000000E+00  0.00000000000E+00  0.82081026819E+03  0.82081026819E+03  0.00000000000E+00 0. -1.
         21   -1    0    0  502  503 -0.00000000000E+00 -0.00000000000E+00 -0.90241757780E+02  0.90241757780E+02  0.00000000000E+00 0. -1.
          6    1    1    2  501    0  0.11412362801E+02 -0.95660389883E+02  0.67779089022E+03  0.70612367407E+03  0.17300000000E+03 0. -1.
         -6    1    1    2    0  503 -0.11412362801E+02  0.95660389883E+02  0.52777620184E+02  0.20492835189E+03  0.17300000000E+03 0. -1.
<mgrwt>
<rscale>  2 0.19801554E+03</rscale>
<asrwt>0</asrwt>
<pdfrwt beam="1">  1       21 0.12627850E+00 0.19801554E+03</pdfrwt>
<pdfrwt beam="2">  1       21 0.13883348E-01 0.19801554E+03</pdfrwt>
<totfact> 0.20920175E+04</totfact>
</mgrwt>
</event>
<event>
 4    1  0.4025504E+000  0.2559991E+03  0.7546771E-02  0.1109571E+00
         21   -1    0    0  503  502  0.00000000000E+00  0.00000000000E+00  0.31919394808E+02  0.31919394808E+02  0.00000000000E+00 0. -1.
         21   -1    0    0  501  503 -0.00000000000E+00 -0.00000000000E+00 -0.29588355743E+04  0.29588355743E+04  0.00000000000E+00 0.  1.
          6    1    1    2  501    0  0.20914513325E+02 -0.18753429265E+03 -0.22907856208E+04  0.23050453983E+04  0.17300000000E+03 0.  1.
         -6    1    1    2    0  502 -0.20914513325E+02  0.18753429265E+03 -0.63613055870E+03  0.68570957081E+03  0.17300000000E+03 0. -1.
<mgrwt>
<rscale>  2 0.25599908E+03</rscale>
<asrwt>0</asrwt>
<pdfrwt beam="1">  1       21 0.49106751E-02 0.25599908E+03</pdfrwt>
<pdfrwt beam="2">  1       21 0.45520557E+00 0.25599908E+03</pdfrwt>
<totfact> 0.97673889E+02</totfact>
</mgrwt>
</event>
<event>
 4    1  0.4025504E+000  0.2152675E+03  0.7546771E-02  0.1137461E+00
         21   -1    0    0  503  502  0.00000000000E+00  0.00000000000E+00  0.81148426771E+02  0.81148426771E+02  0.00000000000E+00 0. -1.
         21   -1    0    0  501  503 -0.00000000000E+00 -0.00000000000E+00 -0.68896034507E+03  0.68896034507E+03  0.00000000000E+00 0. -1.
          6    1    1    2  501    0 -0.10210222167E+03  0.77370613636E+02 -0.46319829126E+03  0.51077659750E+03  0.17300000000E+03 0. -1.
         -6    1    1    2    0  502  0.10210222167E+03 -0.77370613636E+02 -0.14461362704E+03  0.25933217434E+03  0.17300000000E+03 0. -1.
<mgrwt>
<rscale>  2 0.21526745E+03</rscale>
<asrwt>0</asrwt>
<pdfrwt beam="1">  1       21 0.12484373E-01 0.21526745E+03</pdfrwt>
<pdfrwt beam="2">  1       21 0.10599390E+00 0.21526745E+03</pdfrwt>
<totfact> 0.38573595E+04</totfact>
</mgrwt>
</event>
<event>
 4    1  0.4025504E+000  0.2044868E+03  0.7546771E-02  0.1146008E+00
         21   -1    0    0  501  502  0.00000000000E+00  0.00000000000E+00  0.79023002966E+03  0.79023002966E+03  0.00000000000E+00 0.  1.
         21   -1    0    0  502  503 -0.00000000000E+00 -0.00000000000E+00 -0.20190393635E+03  0.20190393635E+03  0.00000000000E+00 0.  1.
          6    1    1    2  501    0 -0.10356172740E+03 -0.34070631352E+02  0.72029615330E+03  0.74875989994E+03  0.17300000000E+03 0.  1.
         -6    1    1    2    0  503  0.10356172740E+03  0.34070631352E+02 -0.13197005999E+03  0.24337406607E+03  0.17300000000E+03 0.  1.
<mgrwt>
<rscale>  2 0.20448677E+03</rscale>
<asrwt>0</asrwt>
<pdfrwt beam="1">  1       21 0.12157385E+00 0.20448677E+03</pdfrwt>
<pdfrwt beam="2">  1       21 0.31062144E-01 0.20448677E+03</pdfrwt>
<totfact> 0.50422390E+03</totfact>
</mgrwt>
</event>
<event>
 4    1  0.4025504E+000  0.2138999E+03  0.7546771E-02  0.1138514E+00
         21   -1    0    0  503  502  0.00000000000E+00  0.00000000000E+00  0.10650091269E+03  0.10650091269E+03  0.00000000000E+00 0.  1.
         21   -1    0    0  501  503 -0.00000000000E+00 -0.00000000000E+00 -0.49793529760E+03  0.49793529760E+03  0.00000000000E+00 0. -1.
          6    1    1    2  501    0 -0.11925385160E+03 -0.40033688537E+02 -0.30767259907E+03  0.37472070340E+03  0.17300000000E+03 0. -1.
         -6    1    1    2    0  502  0.11925385160E+03  0.40033688537E+02 -0.83761785836E+02  0.22971550689E+03  0.17300000000E+03 0.  1.
<mgrwt>
<rscale>  2 0.21389992E+03</rscale>
<asrwt>0</asrwt>
<pdfrwt beam="1">  1       21 0.16384756E-01 0.21389992E+03</pdfrwt>
<pdfrwt beam="2">  1       21 0.76605430E-01 0.21389992E+03</pdfrwt>
<totfact> 0.50096029E+04</totfact>
</mgrwt>
</event>
<event>
 4    1  0.4025504E+000  0.2304143E+03  0.7546771E-02  0.1126348E+00
         21   -1    0    0  501  502  0.00000000000E+00  0.00000000000E+00  0.36097496731E+03  0.36097496731E+03  0.00000000000E+00 0. -1.
         21   -1    0    0  502  503 -0.00000000000E+00 -0.00000000000E+00 -0.20565240640E+03  0.20565240640E+03  0.00000000000E+00 0. -1.
          6    1    1    2  501    0 -0.14621448384E+03  0.42226658484E+02  0.22886480000E+03  0.32476123945E+03  0.17300000000E+03 0. -1.
         -6    1    1    2    0  503  0.14621448384E+03 -0.42226658484E+02 -0.73542239098E+02  0.24186613426E+03  0.17300000000E+03 0. -1.
<mgrwt>
<rscale>  2 0.23041434E+03</rscale>
<asrwt>0</asrwt>
<pdfrwt beam="1">  1       21 0.55534610E-01 0.23041434E+03</pdfrwt>
<pdfrwt beam="2">  1       21 0.31638832E-01 0.23041434E+03</pdfrwt>
<totfact> 0.28769012E+04</totfact>
</mgrwt>
</event>
<event>
 4    1  0.4025504E+000  0.1845654E+03  0.7546771E-02  0.1163456E+00
         21   -1    0    0  501  502  0.00000000000E+00  0.00000000000E+00  0.98254556712E+02  0.98254556712E+02  0.00000000000E+00 0. -1.
         21   -1    0    0  502  503 -0.00000000000E+00 -0.00000000000E+00 -0.34726717699E+03  0.34726717699E+03  0.00000000000E+00 0.  1.
          6    1    1    2  501    0 -0.34116010993E+02 -0.54511438271E+02 -0.11546701029E+03  0.21770858865E+03  0.17300000000E+03 0.  1.
         -6    1    1    2    0  503  0.34116010993E+02  0.54511438271E+02 -0.13354560998E+03  0.22781314504E+03  0.17300000000E+03 0.  1.
<mgrwt>
<rscale>  2 0.18456543E+03</rscale>
<asrwt>0</asrwt>
<pdfrwt beam="1">  1       21 0.15116086E-01 0.18456543E+03</pdfrwt>
<pdfrwt beam="2">  1       21 0.53425719E-01 0.18456543E+03</pdfrwt>
<totfact> 0.12864066E+05</totfact>
</mgrwt>
</event>
<event>
 4    1  0.4025504E+000  0.1795079E+03  0.7546771E-02  0.1168280E+00
         21   -1    0    0  503  502  0.00000000000E+00  0.00000000000E+00  0.30405267619E+03  0.30405267619E+03  0.00000000000E+00 0.  1.
         21   -1    0    0  501  503 -0.00000000000E+00 -0.00000000000E+00 -0.23849673055E+03  0.23849673055E+03  0.00000000000E+00 0.  1.
          6    1    1    2  501    0 -0.42070538768E+02 -0.22894683348E+02 -0.16943342247E+03  0.24684161199E+03  0.17300000000E+03 0.  1.
         -6    1    1    2    0  502  0.42070538768E+02  0.22894683348E+02  0.23498936810E+03  0.29570779475E+03  0.17300000000E+03 0.  1.
<mgrwt>
<rscale>  2 0.17950793E+03</rscale>
<asrwt>0</asrwt>
<pdfrwt beam="1">  1       21 0.46777335E-01 0.17950793E+03</pdfrwt>
<pdfrwt beam="2">  1       21 0.36691805E-01 0.17950793E+03</pdfrwt>
<totfact> 0.31563712E+04</totfact>
</mgrwt>
</event>
<event>
 4    1  0.4025504E+000  0.1855098E+03  0.7546771E-02  0.1162575E+00
         21   -1    0    0  501  502  0.00000000000E+00  0.00000000000E+00  0.18323729762E+03  0.18323729762E+03  0.00000000000E+00 0.  1.
         21   -1    0    0  502  503 -0.00000000000E+00 -0.00000000000E+00 -0.32814198462E+03  0.32814198462E+03  0.00000000000E+00 0.  1.
          6    1    1    2  501    0  0.15049583130E+02 -0.65256500155E+02  0.94756671904E+02  0.20830921159E+03  0.17300000000E+03 0.  1.
         -6    1    1    2    0  503 -0.15049583130E+02  0.65256500155E+02 -0.23966135891E+03  0.30307007064E+03  0.17300000000E+03 0.  1.
<mgrwt>
<rscale>  2 0.18550984E+03</rscale>
<asrwt>0</asrwt>
<pdfrwt beam="1">  1       21 0.28190354E-01 0.18550984E+03</pdfrwt>
<pdfrwt beam="2">  1       21 0.50483382E-01 0.18550984E+03</pdfrwt>
<totfact> 0.45064083E+04</totfact>
</mgrwt>
</event>
<event>
 4    1  0.4025504E+000  0.1855464E+03  0.7546771E-02  0.1162541E+00
         21   -1    0    0  503  502  0.00000000000E+00  0.00000000000E+00  0.12538755151E+02  0.12538755151E+02  0.00000000000E+00 0. -1.
         21   -1    0    0  501  503 -0.00000000000E+00 -0.00000000000E+00 -0.28098411870E+04  0.28098411870E+04  0.00000000000E+00 0.  1.
          6    1    1    2  501    0  0.39338544299E+01 -0.66955082142E+02 -0.11854117603E+04  0.11998451982E+04  0.17300000000E+03 0. -1.
         -6    1    1    2    0  502 -0.39338544299E+01  0.66955082142E+02 -0.16118906716E+04  0.16225347440E+04  0.17300000000E+03 0.  1.
<mgrwt>
<rscale>  2 0.18554638E+03</rscale>
<asrwt>0</asrwt>
<pdfrwt beam="1">  1       21 0.19290381E-02 0.18554638E+03</pdfrwt>
<pdfrwt beam="2">  1       21 0.43228351E+00 0.18554638E+03</pdfrwt>
<totfact> 0.71668485E+03</totfact>
</mgrwt>
</event>
<event>
 4    1  0.4025504E+000  0.1774904E+03  0.7546771E-02  0.1170254E+00
         21   -1    0    0  501  502  0.00000000000E+00  0.00000000000E+00  0.50106430668E+02  0.50106430668E+02  0.00000000000E+00 0. -1.
         21   -1    0    0  502  503 -0.00000000000E+00 -0.00000000000E+00 -0.65363031304E+03  0.65363031304E+03  0.00000000000E+00 0. -1.
          6    1    1    2  501    0  0.38761633034E+02 -0.84492300339E+01 -0.23306863581E+03  0.29295706628E+03  0.17300000000E+03 0. -1.
         -6    1    1    2    0  503 -0.38761633034E+02  0.84492300339E+01 -0.37045524656E+03  0.41077967743E+03  0.17300000000E+03 0. -1.
<mgrwt>
<rscale>  2 0.17749043E+03</rscale>
<asrwt>0</asrwt>
<pdfrwt beam="1">  1       21 0.77086824E-02 0.17749043E+03</pdfrwt>
<pdfrwt beam="2">  1       21 0.10055850E+00 0.17749043E+03</pdfrwt>
<totfact> 0.10434281E+05</totfact>
</mgrwt>
</event>
<event>
 4    1  0.4025504E+000  0.1747375E+03  0.7546771E-02  0.1172996E+00
         21   -1    0    0  503  502  0.00000000000E+00  0.00000000000E+00  0.18599644328E+03  0.18599644328E+03  0.00000000000E+00 0.  1.
         21   -1    0    0  501  503 -0.00000000000E+00 -0.00000000000E+00 -0.16567628049E+03  0.16567628049E+03  0.00000000000E+00 0. -1.
          6    1    1    2  501    0 -0.21023749620E+02 -0.12735322290E+02 -0.66612483061E+01  0.17486440093E+03  0.17300000000E+03 0.  1.
         -6    1    1    2    0  502  0.21023749620E+02  0.12735322290E+02  0.26981411095E+02  0.17680832284E+03  0.17300000000E+03 0.  1.
<mgrwt>
<rscale>  2 0.17473748E+03</rscale>
<asrwt>0</asrwt>
<pdfrwt beam="1">  1       21 0.28614837E-01 0.17473748E+03</pdfrwt>
<pdfrwt beam="2">  1       21 0.25488658E-01 0.17473748E+03</pdfrwt>
<totfact> 0.17145014E+05</totfact>
</mgrwt>
</event>
<event>
 4    1  0.4025504E+000  0.2119388E+03  0.7546771E-02  0.1140040E+00
         21   -1    0    0  503  502  0.00000000000E+00  0.00000000000E+00  0.38050524195E+03  0.38050524195E+03  0.00000000000E+00 0. -1.
         21   -1    0    0  501  503 -0.00000000000E+00 -0.00000000000E+00 -0.12283192949E+03  0.12283192949E+03  0.00000000000E+00 0. -1.
          6    1    1    2  501    0  0.16655555802E+02 -0.12129154649E+03  0.79172141861E+02  0.22624383933E+03  0.17300000000E+03 0. -1.
         -6    1    1    2    0  502 -0.16655555802E+02  0.12129154649E+03  0.17850117060E+03  0.27709333210E+03  0.17300000000E+03 0. -1.
<mgrwt>
<rscale>  2 0.21193878E+03</rscale>
<asrwt>0</asrwt>
<pdfrwt beam="1">  1       21 0.58539267E-01 0.21193878E+03</pdfrwt>
<pdfrwt beam="2">  1       21 0.18897220E-01 0.21193878E+03</pdfrwt>
<totfact> 0.69484699E+04</totfact>
</mgrwt>
</event>
<event>
 4    1  0.4025504E+000  0.2343023E+03  0.7546771E-02  0.1123648E+00
         21   -1    0    0  501  502  0.00000000000E+00  0.00000000000E+00  0.61076896957E+03  0.61076896957E+03  0.00000000000E+00 0.  1.
         21   -1    0    0  502  503 -0.00000000000E+00 -0.00000000000E+00 -0.16136550309E+03  0.16136550309E+03  0.00000000000E+00 0.  1.
          6    1    1    2  501    0  0.21906523020E+02  0.15648859950E+03  0.48165747038E+03  0.53562253154E+03  0.17300000000E+03 0.  1.
         -6    1    1    2    0  503 -0.21906523020E+02 -0.15648859950E+03 -0.32254003900E+02  0.23651194112E+03  0.17300000000E+03 0.  1.
<mgrwt>
<rscale>  2 0.23430232E+03</rscale>
<asrwt>0</asrwt>
<pdfrwt beam="1">  1       21 0.93964456E-01 0.23430232E+03</pdfrwt>
<pdfrwt beam="2">  1       21 0.24825462E-01 0.23430232E+03</pdfrwt>
<totfact> 0.14218063E+04</totfact>
</mgrwt>
</event>
<event>
 4    1  0.4025504E+000  0.2136769E+03  0.7546771E-02  0.1138687E+00
         21   -1    0    0  503  502  0.00000000000E+00  0.00000000000E+00  0.24871483288E+03  0.24871483288E+03  0.00000000000E+00 0. -1.
         21   -1    0    0  501  503 -0.00000000000E+00 -0.00000000000E+00 -0.20916321909E+03  0.20916321909E+03  0.00000000000E+00 0.  1.
          6    1    1    2  501    0  0.64578344498E+02  0.10751015688E+03 -0.60299422814E+02  0.22202210881E+03  0.17300000000E+03 0.  1.
         -6    1    1    2    0  502 -0.64578344498E+02 -0.10751015688E+03  0.99851036604E+02  0.23585594315E+03  0.17300000000E+03 0. -1.
<mgrwt>
<rscale>  2 0.21367685E+03</rscale>
<asrwt>0</asrwt>
<pdfrwt beam="1">  1       21 0.38263820E-01 0.21367685E+03</pdfrwt>
<pdfrwt beam="2">  1       21 0.32178957E-01 0.21367685E+03</pdfrwt>
<totfact> 0.60604559E+04</totfact>
</mgrwt>
</event>
<event>
 4    1  0.4025504E+000  0.2182890E+03  0.7546771E-02  0.1135165E+00
         21   -1    0    0  503  502  0.00000000000E+00  0.00000000000E+00  0.56752476838E+03  0.56752476838E+03  0.00000000000E+00 0. -1.
         21   -1    0    0  501  503 -0.00000000000E+00 -0.00000000000E+00 -0.83996827910E+02  0.83996827910E+02  0.00000000000E+00 0. -1.
          6    1    1    2  501    0 -0.66723033453E+02  0.11519174263E+03  0.24846637417E+03  0.33073499945E+03  0.17300000000E+03 0. -1.
         -6    1    1    2    0  502  0.66723033453E+02 -0.11519174263E+03  0.23506156629E+03  0.32078659684E+03  0.17300000000E+03 0. -1.
<mgrwt>
<rscale>  2 0.21828903E+03</rscale>
<asrwt>0</asrwt>
<pdfrwt beam="1">  1       21 0.87311500E-01 0.21828903E+03</pdfrwt>
<pdfrwt beam="2">  1       21 0.12922589E-01 0.21828903E+03</pdfrwt>
<totfact> 0.57189694E+04</totfact>
</mgrwt>
</event>
<event>
 4    1  0.4025504E+000  0.1744471E+03  0.7546771E-02  0.1173288E+00
         21   -1    0    0  503  502  0.00000000000E+00  0.00000000000E+00  0.19250125321E+03  0.19250125321E+03  0.00000000000E+00 0. -1.
         21   -1    0    0  501  503 -0.00000000000E+00 -0.00000000000E+00 -0.17336977981E+03  0.17336977981E+03  0.00000000000E+00 0. -1.
          6    1    1    2  501    0 -0.20541287305E+02 -0.89922193307E+01 -0.44749656316E+02  0.18009535317E+03  0.17300000000E+03 0. -1.
         -6    1    1    2    0  502  0.20541287305E+02  0.89922193307E+01  0.63881129711E+02  0.18577567986E+03  0.17300000000E+03 0. -1.
<mgrwt>
<rscale>  2 0.17444714E+03</rscale>
<asrwt>0</asrwt>
<pdfrwt beam="1">  1       21 0.29615577E-01 0.17444714E+03</pdfrwt>
<pdfrwt beam="2">  1       21 0.26672274E-01 0.17444714E+03</pdfrwt>
<totfact> 0.14707730E+05</totfact>
</mgrwt>
</event>
<event>
 4    1  0.4025504E+000  0.1854529E+03  0.7546771E-02  0.1162628E+00
         21   -1    0    0  501  502  0.00000000000E+00  0.00000000000E+00  0.84505717588E+02  0.84505717588E+02  0.00000000000E+00 0.  1.
         21   -1    0    0  502  503 -0.00000000000E+00 -0.00000000000E+00 -0.42437400354E+03  0.42437400354E+03  0.00000000000E+00 0.  1.
          6    1    1    2  501    0  0.65055575561E+02  0.15216626062E+02 -0.11843304791E+03  0.22004354219E+03  0.17300000000E+03 0.  1.
         -6    1    1    2    0  503 -0.65055575561E+02 -0.15216626062E+02 -0.22143523804E+03  0.28883617894E+03  0.17300000000E+03 0.  1.
<mgrwt>
<rscale>  2 0.18545289E+03</rscale>
<asrwt>0</asrwt>
<pdfrwt beam="1">  1       21 0.13000880E-01 0.18545289E+03</pdfrwt>
<pdfrwt beam="2">  1       21 0.65288306E-01 0.18545289E+03</pdfrwt>
<totfact> 0.11000372E+05</totfact>
</mgrwt>
</event>
<event>
 4    1  0.4025504E+000  0.1748295E+03  0.7546771E-02  0.1172903E+00
         21   -1    0    0  501  502  0.00000000000E+00  0.00000000000E+00  0.16726429049E+03  0.16726429049E+03  0.00000000000E+00 0. -1.
         21   -1    0    0  502  503 -0.00000000000E+00 -0.00000000000E+00 -0.21003381062E+03  0.21003381062E+03  0.00000000000E+00 0. -1.
          6    1    1    2  501    0  0.19992334453E+02 -0.15383663688E+02  0.46624354048E+02  0.18093971630E+03  0.17300000000E+03 0. -1.
         -6    1    1    2    0  503 -0.19992334453E+02  0.15383663688E+02 -0.89393874176E+02  0.19635838481E+03  0.17300000000E+03 0. -1.
<mgrwt>
<rscale>  2 0.17482949E+03</rscale>
<asrwt>0</asrwt>
<pdfrwt beam="1">  1       21 0.25732968E-01 0.17482949E+03</pdfrwt>
<pdfrwt beam="2">  1       21 0.32312894E-01 0.17482949E+03</pdfrwt>
<totfact> 0.13287016E+05</totfact>
</mgrwt>
</event>
<event>
 4    1  0.4025504E+000  0.3318151E+03  0.7546771E-02  0.1070337E+00
         21   -1    0    0  501  502  0.00000000000E+00  0.00000000000E+00  0.95401845432E+03  0.95401845432E+03  0.00000000000E+00 0.  1.
         21   -1    0    0  502  503 -0.00000000000E+00 -0.00000000000E+00 -0.13093321064E+03  0.13093321064E+03  0.00000000000E+00 0.  1.
          6    1    1    2  501    0  0.26652501175E+03 -0.95585942917E+02  0.22474307797E+03  0.40076265478E+03  0.17300000000E+03 0.  1.
         -6    1    1    2    0  503 -0.26652501175E+03  0.95585942917E+02  0.59834216571E+03  0.68418901017E+03  0.17300000000E+03 0.  1.
<mgrwt>
<rscale>  2 0.33181509E+03</rscale>
<asrwt>0</asrwt>
<pdfrwt beam="1">  1       21 0.14677207E+00 0.33181509E+03</pdfrwt>
<pdfrwt beam="2">  1       21 0.20143571E-01 0.33181509E+03</pdfrwt>
<totfact> 0.66158384E+03</totfact>
</mgrwt>
</event>
<event>
 4    1  0.4025504E+000  0.1808891E+03  0.7546771E-02  0.1166945E+00
         21   -1    0    0  501  502  0.00000000000E+00  0.00000000000E+00  0.45369439990E+03  0.45369439990E+03  0.00000000000E+00 0.  1.
         21   -1    0    0  502  503 -0.00000000000E+00 -0.00000000000E+00 -0.72148057029E+02  0.72148057029E+02  0.00000000000E+00 0.  1.
          6    1    1    2  501    0  0.48338892231E+02  0.21335738641E+02  0.19587130392E+03  0.26662038546E+03  0.17300000000E+03 0.  1.
         -6    1    1    2    0  503 -0.48338892231E+02 -0.21335738641E+02  0.18567503895E+03  0.25922207146E+03  0.17300000000E+03 0.  1.
<mgrwt>
<rscale>  2 0.18088909E+03</rscale>
<asrwt>0</asrwt>
<pdfrwt beam="1">  1       21 0.69799137E-01 0.18088909E+03</pdfrwt>
<pdfrwt beam="2">  1       21 0.11099701E-01 0.18088909E+03</pdfrwt>
<totfact> 0.12628811E+05</totfact>
</mgrwt>
</event>
<event>
 4    1  0.4025504E+000  0.2052342E+03  0.7546771E-02  0.1145397E+00
         21   -1    0    0  501  502  0.00000000000E+00  0.00000000000E+00  0.19952362331E+02  0.19952362331E+02  0.00000000000E+00 0.  1.
         21   -1    0    0  502  503 -0.00000000000E+00 -0.00000000000E+00 -0.28740663884E+04  0.28740663884E+04  0.00000000000E+00 0. -1.
          6    1    1    2  501    0  0.11020937448E+03  0.67806828718E+01 -0.68150041595E+03  0.71173302637E+03  0.17300000000E+03 0.  1.
         -6    1    1    2    0  503 -0.11020937448E+03 -0.67806828718E+01 -0.21726136101E+04  0.21822857244E+04  0.17300000000E+03 0. -1.
<mgrwt>
<rscale>  2 0.20523422E+03</rscale>
<asrwt>0</asrwt>
<pdfrwt beam="1">  1       21 0.30695964E-02 0.20523422E+03</pdfrwt>
<pdfrwt beam="2">  1       21 0.44216375E+00 0.20523422E+03</pdfrwt>
<totfact> 0.28042589E+03</totfact>
</mgrwt>
</event>
<event>
 4    1  0.4025504E+000  0.2818548E+03  0.7546771E-02  0.1094680E+00
         21   -1    0    0  503  502  0.00000000000E+00  0.00000000000E+00  0.69933583035E+03  0.69933583035E+03  0.00000000000E+00 0.  1.
         21   -1    0    0  501  503 -0.00000000000E+00 -0.00000000000E+00 -0.13320255830E+03  0.13320255830E+03  0.00000000000E+00 0. -1.
          6    1    1    2  501    0  0.18131696920E+03  0.12898549450E+03  0.12336360501E+03  0.30766975827E+03  0.17300000000E+03 0. -1.
         -6    1    1    2    0  502 -0.18131696920E+03 -0.12898549450E+03  0.44276966704E+03  0.52486863038E+03  0.17300000000E+03 0.  1.
<mgrwt>
<rscale>  2 0.28185475E+03</rscale>
<asrwt>0</asrwt>
<pdfrwt beam="1">  1       21 0.10759013E+00 0.28185475E+03</pdfrwt>
<pdfrwt beam="2">  1       21 0.20492702E-01 0.28185475E+03</pdfrwt>
<totfact> 0.14448735E+04</totfact>
</mgrwt>
</event>
<event>
 4    1  0.4025504E+000  0.1741641E+03  0.7546771E-02  0.1173574E+00
         21   -1    0    0  501  502  0.00000000000E+00  0.00000000000E+00  0.19023787906E+03  0.19023787906E+03  0.00000000000E+00 0. -1.
         21   -1    0    0  502  503 -0.00000000000E+00 -0.00000000000E+00 -0.16839890693E+03  0.16839890693E+03  0.00000000000E+00 0. -1.
          6    1    1    2  501    0 -0.19967463252E+02 -0.23336391468E+01  0.52260056689E+02  0.18183580227E+03  0.17300000000E+03 0. -1.
         -6    1    1    2    0  503  0.19967463252E+02  0.23336391468E+01 -0.30421084551E+02  0.17680098372E+03  0.17300000000E+03 0. -1.
<mgrwt>
<rscale>  2 0.17416413E+03</rscale>
<asrwt>0</asrwt>
<pdfrwt beam="1">  1       21 0.29267366E-01 0.17416413E+03</pdfrwt>
<pdfrwt beam="2">  1       21 0.25907524E-01 0.17416413E+03</pdfrwt>
<totfact> 0.15912495E+05</totfact>
</mgrwt>
</event>
<event>
 4    1  0.4025504E+000  0.2999365E+03  0.7546771E-02  0.1085272E+00
         21   -1    0    0  501  502  0.00000000000E+00  0.00000000000E+00  0.96095720143E+02  0.96095720143E+02  0.00000000000E+00 0. -1.
         21   -1    0    0  502  503 -0.00000000000E+00 -0.00000000000E+00 -0.95912781375E+03  0.95912781375E+03  0.00000000000E+00 0.  1.
          6    1    1    2  501    0 -0.12611514665E+02  0.24469138668E+03 -0.34988750911E+03  0.46085051161E+03  0.17300000000E+03 0.  1.
         -6    1    1    2    0  503  0.12611514665E+02 -0.24469138668E+03 -0.51314458449E+03  0.59437302228E+03  0.17300000000E+03 0. -1.
<mgrwt>
<rscale>  2 0.29993653E+03</rscale>
<asrwt>0</asrwt>
<pdfrwt beam="1">  1       21 0.14783957E-01 0.29993653E+03</pdfrwt>
<pdfrwt beam="2">  1       21 0.14755813E+00 0.29993653E+03</pdfrwt>
<totfact> 0.11786716E+04</totfact>
</mgrwt>
</event>
<event>
 4    1  0.4025504E+000  0.1893216E+03  0.7546771E-02  0.1159075E+00
         21   -1    0    0  501  502  0.00000000000E+00  0.00000000000E+00  0.27825852771E+03  0.27825852771E+03  0.00000000000E+00 0. -1.
         21   -1    0    0  502  503 -0.00000000000E+00 -0.00000000000E+00 -0.26577933896E+03  0.26577933896E+03  0.00000000000E+00 0. -1.
          6    1    1    2  501    0  0.65208383589E+02  0.40762156288E+02  0.20151566728E+03  0.27649819319E+03  0.17300000000E+03 0. -1.
         -6    1    1    2    0  503 -0.65208383589E+02 -0.40762156288E+02 -0.18903647852E+03  0.26753967348E+03  0.17300000000E+03 0. -1.
<mgrwt>
<rscale>  2 0.18932165E+03</rscale>
<asrwt>0</asrwt>
<pdfrwt beam="1">  1       21 0.42809004E-01 0.18932165E+03</pdfrwt>
<pdfrwt beam="2">  1       21 0.40889129E-01 0.18932165E+03</pdfrwt>
<totfact> 0.30291922E+04</totfact>
</mgrwt>
</event>
<event>
 4    1  0.4025504E+000  0.2224957E+03  0.7546771E-02  0.1132036E+00
         21   -1    0    0  501  502  0.00000000000E+00  0.00000000000E+00  0.76443063747E+03  0.76443063747E+03  0.00000000000E+00 0. -1.
         21   -1    0    0  502  503 -0.00000000000E+00 -0.00000000000E+00 -0.19430534885E+03  0.19430534885E+03  0.00000000000E+00 0.  1.
          6    1    1    2  501    0  0.18918244329E+02 -0.13862697067E+03  0.67647811469E+03  0.71212848323E+03  0.17300000000E+03 0. -1.
         -6    1    1    2    0  503 -0.18918244329E+02  0.13862697067E+03 -0.10635282607E+03  0.24660750309E+03  0.17300000000E+03 0.  1.
<mgrwt>
<rscale>  2 0.22249570E+03</rscale>
<asrwt>0</asrwt>
<pdfrwt beam="1">  1       21 0.11760471E+00 0.22249570E+03</pdfrwt>
<pdfrwt beam="2">  1       21 0.29893131E-01 0.22249570E+03</pdfrwt>
<totfact> 0.58232974E+03</totfact>
</mgrwt>
</event>
<event>
 4    1  0.4025504E+000  0.1794739E+03  0.7546771E-02  0.1168313E+00
         21   -1    0    0  501  502  0.00000000000E+00  0.00000000000E+00  0.22819945326E+03  0.22819945326E+03  0.00000000000E+00 0.  1.
         21   -1    0    0  502  503 -0.00000000000E+00 -0.00000000000E+00 -0.22580544975E+03  0.22580544975E+03  0.00000000000E+00 0. -1.
          6    1    1    2  501    0  0.11953834434E+02  0.46249252790E+02  0.14018739634E+03  0.22773535877E+03  0.17300000000E+03 0.  1.
         -6    1    1    2    0  503 -0.11953834434E+02 -0.46249252790E+02 -0.13779339283E+03  0.22626954424E+03  0.17300000000E+03 0. -1.
<mgrwt>
<rscale>  2 0.17947392E+03</rscale>
<asrwt>0</asrwt>
<pdfrwt beam="1">  1       21 0.35107608E-01 0.17947392E+03</pdfrwt>
<pdfrwt beam="2">  1       21 0.34739300E-01 0.17947392E+03</pdfrwt>
<totfact> 0.62833170E+04</totfact>
</mgrwt>
</event>
<event>
 4    1  0.4025504E+000  0.1990946E+03  0.7546771E-02  0.1150505E+00
         21   -1    0    0  503  502  0.00000000000E+00  0.00000000000E+00  0.10867060527E+03  0.10867060527E+03  0.00000000000E+00 0.  1.
         21   -1    0    0  501  503 -0.00000000000E+00 -0.00000000000E+00 -0.40300660961E+03  0.40300660961E+03  0.00000000000E+00 0. -1.
          6    1    1    2  501    0 -0.33680539824E+02  0.92602791210E+02 -0.22598288971E+03  0.30117589901E+03  0.17300000000E+03 0. -1.
         -6    1    1    2    0  502  0.33680539824E+02 -0.92602791210E+02 -0.68353114634E+02  0.21050131587E+03  0.17300000000E+03 0.  1.
<mgrwt>
<rscale>  2 0.19909459E+03</rscale>
<asrwt>0</asrwt>
<pdfrwt beam="1">  1       21 0.16718555E-01 0.19909459E+03</pdfrwt>
<pdfrwt beam="2">  1       21 0.62001016E-01 0.19909459E+03</pdfrwt>
<totfact> 0.77453017E+04</totfact>
</mgrwt>
</event>
<event>
 4    1  0.4025504E+000  0.1765423E+03  0.7546771E-02  0.1171192E+00
         21   -1    0    0  503  502  0.00000000000E+00  0.00000000000E+00  0.27755611331E+03  0.27755611331E+03  0.00000000000E+00 0. -1.
         21   -1    0    0  501  503 -0.00000000000E+00 -0.00000000000E+00 -0.13115404593E+03  0.13115404593E+03  0.00000000000E+00 0. -1.
          6    1    1    2  501    0 -0.34741637405E+02  0.55853483148E+01 -0.42978346092E+01  0.17659458901E+03  0.17300000000E+03 0.  1.
         -6    1    1    2    0  502  0.34741637405E+02 -0.55853483148E+01  0.15069990199E+03  0.23211557024E+03  0.17300000000E+03 0.  1.
<mgrwt>
<rscale>  2 0.17654228E+03</rscale>
<asrwt>0</asrwt>
<pdfrwt beam="1">  1       21 0.42700940E-01 0.17654228E+03</pdfrwt>
<pdfrwt beam="2">  1       21 0.20177546E-01 0.17654228E+03</pdfrwt>
<totfact> 0.12046335E+05</totfact>
</mgrwt>
</event>
<event>
 4    1  0.4025504E+000  0.1836518E+03  0.7546771E-02  0.1164315E+00
         21   -1    0    0  501  502  0.00000000000E+00  0.00000000000E+00  0.63003317580E+03  0.63003317580E+03  0.00000000000E+00 0. -1.
         21   -1    0    0  502  503 -0.00000000000E+00 -0.00000000000E+00 -0.23540226863E+03  0.23540226863E+03  0.00000000000E+00 0. -1.
          6    1    1    2  501    0 -0.78149239621E+01 -0.61138341775E+02  0.57766092980E+03  0.60615189490E+03  0.17300000000E+03 0. -1.
         -6    1    1    2    0  503  0.78149239621E+01  0.61138341775E+02 -0.18303002264E+03  0.25928354953E+03  0.17300000000E+03 0. -1.
<mgrwt>
<rscale>  2 0.18365176E+03</rscale>
<asrwt>0</asrwt>
<pdfrwt beam="1">  1       21 0.96928180E-01 0.18365176E+03</pdfrwt>
<pdfrwt beam="2">  1       21 0.36215734E-01 0.18365176E+03</pdfrwt>
<totfact> 0.65421827E+03</totfact>
</mgrwt>
</event>
<event>
 4    1  0.4025504E+000  0.1985214E+03  0.7546771E-02  0.1150992E+00
         21   -1    0    0  503  502  0.00000000000E+00  0.00000000000E+00  0.58087611580E+02  0.58087611580E+02  0.00000000000E+00 0.  1.
         21   -1    0    0  501  503 -0.00000000000E+00 -0.00000000000E+00 -0.73940384421E+03  0.73940384421E+03  0.00000000000E+00 0. -1.
          6    1    1    2  501    0  0.57644716911E+02  0.78478343026E+02 -0.22619101547E+03  0.30095371603E+03  0.17300000000E+03 0. -1.
         -6    1    1    2    0  502 -0.57644716911E+02 -0.78478343026E+02 -0.45512521717E+03  0.49653773977E+03  0.17300000000E+03 0. -1.
<mgrwt>
<rscale>  2 0.19852144E+03</rscale>
<asrwt>0</asrwt>
<pdfrwt beam="1">  1       21 0.89365562E-02 0.19852144E+03</pdfrwt>
<pdfrwt beam="2">  1       21 0.11375443E+00 0.19852144E+03</pdfrwt>
<totfact> 0.59364729E+04</totfact>
</mgrwt>
</event>
<event>
 4    1  0.4025504E+000  0.2338271E+03  0.7546771E-02  0.1123975E+00
         21   -1    0    0  503  502  0.00000000000E+00  0.00000000000E+00  0.65404639842E+03  0.65404639842E+03  0.00000000000E+00 0. -1.
         21   -1    0    0  501  503 -0.00000000000E+00 -0.00000000000E+00 -0.13043857071E+03  0.13043857071E+03  0.00000000000E+00 0.  1.
          6    1    1    2  501    0 -0.15027005089E+03 -0.46529881822E+02  0.26745481130E+02  0.23535173434E+03  0.17300000000E+03 0. -1.
         -6    1    1    2    0  502  0.15027005089E+03  0.46529881822E+02  0.49686234658E+03  0.54913323479E+03  0.17300000000E+03 0. -1.
<mgrwt>
<rscale>  2 0.23382711E+03</rscale>
<asrwt>0</asrwt>
<pdfrwt beam="1">  1       21 0.10062252E+00 0.23382711E+03</pdfrwt>
<pdfrwt beam="2">  1       21 0.20067473E-01 0.23382711E+03</pdfrwt>
<totfact> 0.18105247E+04</totfact>
</mgrwt>
</event>
<event>
 4    1  0.4025504E+000  0.2075252E+03  0.7546771E-02  0.1143541E+00
         21   -1    0    0  503  502  0.00000000000E+00  0.00000000000E+00  0.50550487928E+03  0.50550487928E+03  0.00000000000E+00 0.  1.
         21   -1    0    0  501  503 -0.00000000000E+00 -0.00000000000E+00 -0.14445277546E+03  0.14445277546E+03  0.00000000000E+00 0. -1.
          6    1    1    2  501    0  0.58937670856E+02 -0.98305901941E+02 -0.27617644474E+02  0.20935480336E+03  0.17300000000E+03 0. -1.
         -6    1    1    2    0  502 -0.58937670856E+02  0.98305901941E+02  0.38866974829E+03  0.44060285138E+03  0.17300000000E+03 0.  1.
<mgrwt>
<rscale>  2 0.20752518E+03</rscale>
<asrwt>0</asrwt>
<pdfrwt beam="1">  1       21 0.77769981E-01 0.20752518E+03</pdfrwt>
<pdfrwt beam="2">  1       21 0.22223504E-01 0.20752518E+03</pdfrwt>
<totfact> 0.27528465E+04</totfact>
</mgrwt>
</event>
<event>
 4    1  0.4025504E+000  0.2102961E+03  0.7546771E-02  0.1141332E+00
         21   -1    0    0  501  502  0.00000000000E+00  0.00000000000E+00  0.22141599863E+03  0.22141599863E+03  0.00000000000E+00 0.  1.
         21   -1    0    0  502  503 -0.00000000000E+00 -0.00000000000E+00 -0.21374550110E+03  0.21374550110E+03  0.00000000000E+00 0.  1.
          6    1    1    2  501    0 -0.11730341826E+03  0.23137993238E+02 -0.51870936527E+02  0.21659882900E+03  0.17300000000E+03 0.  1.
         -6    1    1    2    0  503  0.11730341826E+03 -0.23137993238E+02  0.59541434064E+02  0.21856267073E+03  0.17300000000E+03 0.  1.
<mgrwt>
<rscale>  2 0.21029612E+03</rscale>
<asrwt>0</asrwt>
<pdfrwt beam="1">  1       21 0.34064000E-01 0.21029612E+03</pdfrwt>
<pdfrwt beam="2">  1       21 0.32883923E-01 0.21029612E+03</pdfrwt>
<totfact> 0.73354127E+04</totfact>
</mgrwt>
</event>
<event>
 4    1  0.4025504E+000  0.1847172E+03  0.7546771E-02  0.1163314E+00
         21   -1    0    0  503  502  0.00000000000E+00  0.00000000000E+00  0.27228915426E+02  0.27228915426E+02  0.00000000000E+00 0. -1.
         21   -1    0    0  501  503 -0.00000000000E+00 -0.00000000000E+00 -0.13883214540E+04  0.13883214540E+04  0.00000000000E+00 0. -1.
          6    1    1    2  501    0  0.33472091461E+02 -0.55417248386E+02 -0.90143782127E+03  0.92016878775E+03  0.17300000000E+03 0. -1.
         -6    1    1    2    0  502 -0.33472091461E+02  0.55417248386E+02 -0.45965471726E+03  0.49538158164E+03  0.17300000000E+03 0. -1.
<mgrwt>
<rscale>  2 0.18471722E+03</rscale>
<asrwt>0</asrwt>
<pdfrwt beam="1">  1       21 0.41890639E-02 0.18471722E+03</pdfrwt>
<pdfrwt beam="2">  1       21 0.21358792E+00 0.18471722E+03</pdfrwt>
<totfact> 0.40190069E+04</totfact>
</mgrwt>
</event>
<event>
 4    1  0.4025504E+000  0.3364111E+03  0.7546771E-02  0.1068335E+00
         21   -1    0    0  501  502  0.00000000000E+00  0.00000000000E+00  0.30394959526E+03  0.30394959526E+03  0.00000000000E+00 0. -1.
         21   -1    0    0  502  503 -0.00000000000E+00 -0.00000000000E+00 -0.70024381780E+03  0.70024381780E+03  0.00000000000E+00 0.  1.
          6    1    1    2  501    0 -0.31426003314E+02 -0.28680274668E+03  0.14543960639E+03  0.36650387214E+03  0.17300000000E+03 0. -1.
         -6    1    1    2    0  503  0.31426003314E+02  0.28680274668E+03 -0.54173382893E+03  0.63768954092E+03  0.17300000000E+03 0.  1.
<mgrwt>
<rscale>  2 0.33641107E+03</rscale>
<asrwt>0</asrwt>
<pdfrwt beam="1">  1       21 0.46761477E-01 0.33641107E+03</pdfrwt>
<pdfrwt beam="2">  1       21 0.10772982E+00 0.33641107E+03</pdfrwt>
<totfact> 0.27344849E+03</totfact>
</mgrwt>
</event>
<event>
 4    1  0.4025504E+000  0.2846903E+03  0.7546771E-02  0.1093154E+00
         21   -1    0    0  503  502  0.00000000000E+00  0.00000000000E+00  0.44308527993E+02  0.44308527993E+02  0.00000000000E+00 0.  1.
         21   -1    0    0  501  503 -0.00000000000E+00 -0.00000000000E+00 -0.18292286153E+04  0.18292286153E+04  0.00000000000E+00 0. -1.
          6    1    1    2  501    0  0.71433046072E+02 -0.21451550613E+03 -0.88799076789E+03  0.93251068965E+03  0.17300000000E+03 0. -1.
         -6    1    1    2    0  502 -0.71433046072E+02  0.21451550613E+03 -0.89692931943E+03  0.94102645367E+03  0.17300000000E+03 0.  1.
<mgrwt>
<rscale>  2 0.28469033E+03</rscale>
<asrwt>0</asrwt>
<pdfrwt beam="1">  1       21 0.68166988E-02 0.28469033E+03</pdfrwt>
<pdfrwt beam="2">  1       21 0.28141970E+00 0.28469033E+03</pdfrwt>
<totfact> 0.63693744E+03</totfact>
</mgrwt>
</event>
<event>
 4    1  0.4025504E+000  0.1750360E+03  0.7546771E-02  0.1172696E+00
         21   -1    0    0  503  502  0.00000000000E+00  0.00000000000E+00  0.21178722056E+03  0.21178722056E+03  0.00000000000E+00 0.  1.
         21   -1    0    0  501  503 -0.00000000000E+00 -0.00000000000E+00 -0.15921390023E+03  0.15921390023E+03  0.00000000000E+00 0.  1.
          6    1    1    2  501    0  0.68815660320E+01 -0.25714872682E+02 -0.29793755859E+02  0.17755359336E+03  0.17300000000E+03 0.  1.
         -6    1    1    2    0  502 -0.68815660320E+01  0.25714872682E+02  0.82367076182E+02  0.19344752743E+03  0.17300000000E+03 0.  1.
<mgrwt>
<rscale>  2 0.17503603E+03</rscale>
<asrwt>0</asrwt>
<pdfrwt beam="1">  1       21 0.32582649E-01 0.17503603E+03</pdfrwt>
<pdfrwt beam="2">  1       21 0.24494446E-01 0.17503603E+03</pdfrwt>
<totfact> 0.14359194E+05</totfact>
</mgrwt>
</event>
<event>
 4    1  0.4025504E+000  0.2448649E+03  0.7546771E-02  0.1116594E+00
         21   -1    0    0  501  502  0.00000000000E+00  0.00000000000E+00  0.33881819902E+03  0.33881819902E+03  0.00000000000E+00 0.  1.
         21   -1    0    0  502  503 -0.00000000000E+00 -0.00000000000E+00 -0.34979306343E+03  0.34979306343E+03  0.00000000000E+00 0.  1.
          6    1    1    2  501    0  0.13416159808E+03  0.10968350823E+03  0.23652977243E+03  0.34044843900E+03  0.17300000000E+03 0.  1.
         -6    1    1    2    0  503 -0.13416159808E+03 -0.10968350823E+03 -0.24750463684E+03  0.34816282345E+03  0.17300000000E+03 0.  1.
<mgrwt>
<rscale>  2 0.24486487E+03</rscale>
<asrwt>0</asrwt>
<pdfrwt beam="1">  1       21 0.52125877E-01 0.24486487E+03</pdfrwt>
<pdfrwt beam="2">  1       21 0.53814317E-01 0.24486487E+03</pdfrwt>
<totfact> 0.11044780E+04</totfact>
</mgrwt>
</event>
<event>
 4    1  0.4025504E+000  0.2117982E+03  0.7546771E-02  0.1140150E+00
         21   -1    0    0  503  502  0.00000000000E+00  0.00000000000E+00  0.45763520110E+03  0.45763520110E+03  0.00000000000E+00 0.  1.
         21   -1    0    0  501  503 -0.00000000000E+00 -0.00000000000E+00 -0.10036601720E+03  0.10036601720E+03  0.00000000000E+00 0.  1.
          6    1    1    2  501    0 -0.10668908001E+02  0.12171951845E+03  0.22126917511E+03  0.30629808133E+03  0.17300000000E+03 0.  1.
         -6    1    1    2    0  502  0.10668908001E+02 -0.12171951845E+03  0.13600000878E+03  0.25170313697E+03  0.17300000000E+03 0.  1.
<mgrwt>
<rscale>  2 0.21179817E+03</rscale>
<asrwt>0</asrwt>
<pdfrwt beam="1">  1       21 0.70405414E-01 0.21179817E+03</pdfrwt>
<pdfrwt beam="2">  1       21 0.15440926E-01 0.21179817E+03</pdfrwt>
<totfact> 0.67485445E+04</totfact>
</mgrwt>
</event>
<event>
 4    1  0.4025504E+000  0.1767352E+03  0.7546771E-02  0.1171001E+00
         21   -1    0    0  503  502  0.00000000000E+00  0.00000000000E+00  0.16554735008E+03  0.16554735008E+03  0.00000000000E+00 0. -1.
         21   -1    0    0  501  503 -0.00000000000E+00 -0.00000000000E+00 -0.28149005388E+03  0.28149005388E+03  0.00000000000E+00 0. -1.
          6    1    1    2  501    0  0.34829158698E+02  0.96572809724E+01 -0.18631720462E+03  0.25680621899E+03  0.17300000000E+03 0. -1.
         -6    1    1    2    0  502 -0.34829158698E+02 -0.96572809724E+01  0.70374500826E+02  0.19023118498E+03  0.17300000000E+03 0. -1.
<mgrwt>
<rscale>  2 0.17673521E+03</rscale>
<asrwt>0</asrwt>
<pdfrwt beam="1">  1       21 0.25468823E-01 0.17673521E+03</pdfrwt>
<pdfrwt beam="2">  1       21 0.43306162E-01 0.17673521E+03</pdfrwt>
<totfact> 0.75433982E+04</totfact>
</mgrwt>
</event>
<event>
 4    1  0.4025504E+000  0.1968473E+03  0.7546771E-02  0.1152427E+00
         21   -1    0    0  503  502  0.00000000000E+00  0.00000000000E+00  0.22974747720E+03  0.22974747720E+03  0.00000000000E+00 0. -1.
         21   -1    0    0  501  503 -0.00000000000E+00 -0.00000000000E+00 -0.18203203499E+03  0.18203203499E+03  0.00000000000E+00 0. -1.
          6    1    1    2  501    0  0.93910637251E+02 -0.79722391849E+00 -0.31948865235E+02  0.19942310133E+03  0.17300000000E+03 0. -1.
         -6    1    1    2    0  502 -0.93910637251E+02  0.79722391849E+00  0.79664307447E+02  0.21235641087E+03  0.17300000000E+03 0. -1.
<mgrwt>
<rscale>  2 0.19684726E+03</rscale>
<asrwt>0</asrwt>
<pdfrwt beam="1">  1       21 0.35345766E-01 0.19684726E+03</pdfrwt>
<pdfrwt beam="2">  1       21 0.28004928E-01 0.19684726E+03</pdfrwt>
<totfact> 0.93831974E+04</totfact>
</mgrwt>
</event>
<event>
 4    1  0.4025504E+000  0.1873834E+03  0.7546771E-02  0.1160843E+00
         21   -1    0    0  503  502  0.00000000000E+00  0.00000000000E+00  0.10895073307E+03  0.10895073307E+03  0.00000000000E+00 0. -1.
         21   -1    0    0  501  503 -0.00000000000E+00 -0.00000000000E+00 -0.13555247003E+04  0.13555247003E+04  0.00000000000E+00 0. -1.
          6    1    1    2  501    0 -0.25992202168E+02  0.67141324972E+02 -0.12625802711E+04  0.12764096102E+04  0.17300000000E+03 0. -1.
         -6    1    1    2    0  502  0.25992202168E+02 -0.67141324972E+02  0.16006303825E+02  0.18806582320E+03  0.17300000000E+03 0. -1.
<mgrwt>
<rscale>  2 0.18738344E+03</rscale>
<asrwt>0</asrwt>
<pdfrwt beam="1">  1       21 0.16761651E-01 0.18738344E+03</pdfrwt>
<pdfrwt beam="2">  1       21 0.20854227E+00 0.18738344E+03</pdfrwt>
<totfact> 0.38141974E+03</totfact>
</mgrwt>
</event>
<event>
 4    1  0.4025504E+000  0.2464816E+03  0.7546771E-02  0.1115549E+00
         21   -1    0    0  501  502  0.00000000000E+00  0.00000000000E+00  0.17393321994E+03  0.17393321994E+03  0.00000000000E+00 0. -1.
         21   -1    0    0  502  503 -0.00000000000E+00 -0.00000000000E+00 -0.10212714967E+04  0.10212714967E+04  0.00000000000E+00 0. -1.
          6    1    1    2  501    0 -0.49732889349E+02 -0.16837705531E+03  0.61083571466E+02  0.25393777927E+03  0.17300000000E+03 0. -1.
         -6    1    1    2    0  503  0.49732889349E+02  0.16837705531E+03 -0.90842184822E+03  0.94126693735E+03  0.17300000000E+03 0. -1.
<mgrwt>
<rscale>  2 0.24648163E+03</rscale>
<asrwt>0</asrwt>
<pdfrwt beam="1">  1       21 0.26758957E-01 0.24648163E+03</pdfrwt>
<pdfrwt beam="2">  1       21 0.15711869E+00 0.24648163E+03</pdfrwt>
<totfact> 0.33635488E+03</totfact>
</mgrwt>
</event>
<event>
 4    1  0.4025504E+000  0.2322370E+03  0.7546771E-02  0.1125075E+00
         21   -1    0    0  503  502  0.00000000000E+00  0.00000000000E+00  0.54603046434E+02  0.54603046434E+02  0.00000000000E+00 0. -1.
         21   -1    0    0  501  503 -0.00000000000E+00 -0.00000000000E+00 -0.13064437030E+04  0.13064437030E+04  0.00000000000E+00 0.  1.
          6    1    1    2  501    0  0.34280187904E+02  0.15109568235E+03 -0.96203383756E+03  0.98966819749E+03  0.17300000000E+03 0. -1.
         -6    1    1    2    0  502 -0.34280187904E+02 -0.15109568235E+03 -0.28980681904E+03  0.37137855198E+03  0.17300000000E+03 0.  1.
<mgrwt>
<rscale>  2 0.23223703E+03</rscale>
<asrwt>0</asrwt>
<pdfrwt beam="1">  1       21 0.84004689E-02 0.23223703E+03</pdfrwt>
<pdfrwt beam="2">  1       21 0.20099133E+00 0.23223703E+03</pdfrwt>
<totfact> 0.14152874E+04</totfact>
</mgrwt>
</event>
<event>
 4    1  0.4025504E+000  0.1909191E+03  0.7546771E-02  0.1157635E+00
         21   -1    0    0  503  502  0.00000000000E+00  0.00000000000E+00  0.24243247032E+03  0.24243247032E+03  0.00000000000E+00 0. -1.
         21   -1    0    0  501  503 -0.00000000000E+00 -0.00000000000E+00 -0.21869984695E+03  0.21869984695E+03  0.00000000000E+00 0. -1.
          6    1    1    2  501    0  0.69315126593E+02 -0.41430646575E+02 -0.11702847028E+03  0.22393246327E+03  0.17300000000E+03 0. -1.
         -6    1    1    2    0  502 -0.69315126593E+02  0.41430646575E+02  0.14076109366E+03  0.23719985400E+03  0.17300000000E+03 0. -1.
<mgrwt>
<rscale>  2 0.19091905E+03</rscale>
<asrwt>0</asrwt>
<pdfrwt beam="1">  1       21 0.37297303E-01 0.19091905E+03</pdfrwt>
<pdfrwt beam="2">  1       21 0.33646131E-01 0.19091905E+03</pdfrwt>
<totfact> 0.59039156E+04</totfact>
</mgrwt>
</event>
<event>
 4    1  0.4025504E+000  0.2117819E+03  0.7546771E-02  0.1140163E+00
         21   -1    0    0  503  502  0.00000000000E+00  0.00000000000E+00  0.24185271254E+03  0.24185271254E+03  0.00000000000E+00 0. -1.
         21   -1    0    0  501  503 -0.00000000000E+00 -0.00000000000E+00 -0.40266058825E+03  0.40266058825E+03  0.00000000000E+00 0.  1.
          6    1    1    2  501    0  0.22820848631E+02 -0.12000737985E+03 -0.31709012774E+03  0.38131051842E+03  0.17300000000E+03 0.  1.
         -6    1    1    2    0  502 -0.22820848631E+02  0.12000737985E+03  0.15628225203E+03  0.26320278237E+03  0.17300000000E+03 0. -1.
<mgrwt>
<rscale>  2 0.21178187E+03</rscale>
<asrwt>0</asrwt>
<pdfrwt beam="1">  1       21 0.37208110E-01 0.21178187E+03</pdfrwt>
<pdfrwt beam="2">  1       21 0.61947782E-01 0.21178187E+03</pdfrwt>
<totfact> 0.16653826E+04</totfact>
</mgrwt>
</event>
<event>
 4    1  0.4025504E+000  0.3547407E+03  0.7546771E-02  0.1060686E+00
         21   -1    0    0  503  502  0.00000000000E+00  0.00000000000E+00  0.14575233272E+04  0.14575233272E+04  0.00000000000E+00 0. -1.
         21   -1    0    0  501  503 -0.00000000000E+00 -0.00000000000E+00 -0.99967861792E+02  0.99967861792E+02  0.00000000000E+00 0.  1.
          6    1    1    2  501    0 -0.15794023990E+03 -0.26639597603E+03  0.96631693629E+03  0.10293732835E+04  0.17300000000E+03 0. -1.
         -6    1    1    2    0  502  0.15794023990E+03  0.26639597603E+03  0.39123852908E+03  0.52811790545E+03  0.17300000000E+03 0.  1.
<mgrwt>
<rscale>  2 0.35474066E+03</rscale>
<asrwt>0</asrwt>
<pdfrwt beam="1">  1       21 0.22423434E+00 0.35474066E+03</pdfrwt>
<pdfrwt beam="2">  1       21 0.15379672E-01 0.35474066E+03</pdfrwt>
<totfact> 0.31456280E+03</totfact>
</mgrwt>
</event>
<event>
 4    1  0.4025504E+000  0.1803443E+03  0.7546771E-02  0.1167470E+00
         21   -1    0    0  503  502  0.00000000000E+00  0.00000000000E+00  0.11241496596E+04  0.11241496596E+04  0.00000000000E+00 0. -1.
         21   -1    0    0  501  503 -0.00000000000E+00 -0.00000000000E+00 -0.44322366461E+02  0.44322366461E+02  0.00000000000E+00 0. -1.
          6    1    1    2  501    0  0.38147558290E+02  0.33761497710E+02  0.19564369931E+03  0.26608369362E+03  0.17300000000E+03 0. -1.
         -6    1    1    2    0  502 -0.38147558290E+02 -0.33761497710E+02  0.88418359387E+03  0.90238833248E+03  0.17300000000E+03 0. -1.
<mgrwt>
<rscale>  2 0.18034432E+03</rscale>
<asrwt>0</asrwt>
<pdfrwt beam="1">  1       21 0.17294608E+00 0.18034432E+03</pdfrwt>
<pdfrwt beam="2">  1       21 0.68188265E-02 0.18034432E+03</pdfrwt>
<totfact> 0.32468633E+04</totfact>
</mgrwt>
</event>
<event>
 4    1  0.4025504E+000  0.2039545E+03  0.7546771E-02  0.1146445E+00
         21   -1    0    0  503  502  0.00000000000E+00  0.00000000000E+00  0.57876767593E+02  0.57876767593E+02  0.00000000000E+00 0.  1.
         21   -1    0    0  501  503 -0.00000000000E+00 -0.00000000000E+00 -0.18533342157E+04  0.18533342157E+04  0.00000000000E+00 0.  1.
          6    1    1    2  501    0 -0.10735456978E+03  0.11975578432E+02 -0.16454248360E+04  0.16580169809E+04  0.17300000000E+03 0.  1.
         -6    1    1    2    0  502  0.10735456978E+03 -0.11975578432E+02 -0.15003261209E+03  0.25319400234E+03  0.17300000000E+03 0.  1.
<mgrwt>
<rscale>  2 0.20395445E+03</rscale>
<asrwt>0</asrwt>
<pdfrwt beam="1">  1       21 0.89041183E-02 0.20395445E+03</pdfrwt>
<pdfrwt beam="2">  1       21 0.28512833E+00 0.20395445E+03</pdfrwt>
<totfact> 0.40859800E+03</totfact>
</mgrwt>
</event>
<event>
 4    1  0.4025504E+000  0.2221443E+03  0.7546771E-02  0.1132294E+00
         21   -1    0    0  503  502  0.00000000000E+00  0.00000000000E+00  0.43852929203E+03  0.43852929203E+03  0.00000000000E+00 0. -1.
         21   -1    0    0  501  503 -0.00000000000E+00 -0.00000000000E+00 -0.16704062337E+03  0.16704062337E+03  0.00000000000E+00 0.  1.
          6    1    1    2  501    0  0.10793398585E+01 -0.13934819265E+03 -0.37221507130E+02  0.22524103614E+03  0.17300000000E+03 0.  1.
         -6    1    1    2    0  502 -0.10793398585E+01  0.13934819265E+03  0.30871017578E+03  0.38032887926E+03  0.17300000000E+03 0. -1.
<mgrwt>
<rscale>  2 0.22214429E+03</rscale>
<asrwt>0</asrwt>
<pdfrwt beam="1">  1       21 0.67466044E-01 0.22214429E+03</pdfrwt>
<pdfrwt beam="2">  1       21 0.25698558E-01 0.22214429E+03</pdfrwt>
<totfact> 0.28414221E+04</totfact>
</mgrwt>
</event>
<event>
 4    1  0.4025504E+000  0.1902624E+03  0.7546771E-02  0.1158225E+00
         21   -1    0    0  501  502  0.00000000000E+00  0.00000000000E+00  0.22615871486E+03  0.22615871486E+03  0.00000000000E+00 0.  1.
         21   -1    0    0  502  503 -0.00000000000E+00 -0.00000000000E+00 -0.39401165118E+03  0.39401165118E+03  0.00000000000E+00 0.  1.
          6    1    1    2  501    0  0.15516143535E+02 -0.77653278170E+02  0.15501205818E+03  0.24541499649E+03  0.17300000000E+03 0.  1.
         -6    1    1    2    0  503 -0.15516143535E+02  0.77653278170E+02 -0.32286499450E+03  0.37475536954E+03  0.17300000000E+03 0.  1.
<mgrwt>
<rscale>  2 0.19026240E+03</rscale>
<asrwt>0</asrwt>
<pdfrwt beam="1">  1       21 0.34793649E-01 0.19026240E+03</pdfrwt>
<pdfrwt beam="2">  1       21 0.60617176E-01 0.19026240E+03</pdfrwt>
<totfact> 0.20212116E+04</totfact>
</mgrwt>
</event>
<event>
 4    1  0.4025504E+000  0.2183691E+03  0.7546771E-02  0.1135105E+00
         21   -1    0    0  501  502  0.00000000000E+00  0.00000000000E+00  0.53728561984E+02  0.53728561984E+02  0.00000000000E+00 0. -1.
         21   -1    0    0  502  503 -0.00000000000E+00 -0.00000000000E+00 -0.10366917030E+04  0.10366917030E+04  0.00000000000E+00 0. -1.
          6    1    1    2  501    0  0.12836838729E+03 -0.35743843240E+02 -0.28466503393E+03  0.35877464616E+03  0.17300000000E+03 0. -1.
         -6    1    1    2    0  503 -0.12836838729E+03  0.35743843240E+02 -0.69829810711E+03  0.73164561885E+03  0.17300000000E+03 0. -1.
<mgrwt>
<rscale>  2 0.21836910E+03</rscale>
<asrwt>0</asrwt>
<pdfrwt beam="1">  1       21 0.82659325E-02 0.21836910E+03</pdfrwt>
<pdfrwt beam="2">  1       21 0.15949103E+00 0.21836910E+03</pdfrwt>
<totfact> 0.28314822E+04</totfact>
</mgrwt>
</event>
<event>
 4    1  0.4025504E+000  0.2112091E+03  0.7546771E-02  0.1140612E+00
         21   -1    0    0  501  502  0.00000000000E+00  0.00000000000E+00  0.10787226799E+03  0.10787226799E+03  0.00000000000E+00 0. -1.
         21   -1    0    0  502  503 -0.00000000000E+00 -0.00000000000E+00 -0.49988347196E+03  0.49988347196E+03  0.00000000000E+00 0. -1.
          6    1    1    2  501    0 -0.77121328084E+02  0.93448325708E+02 -0.32230006441E+03  0.38533961688E+03  0.17300000000E+03 0. -1.
         -6    1    1    2    0  503  0.77121328084E+02 -0.93448325708E+02 -0.69711139562E+02  0.22241612307E+03  0.17300000000E+03 0. -1.
<mgrwt>
<rscale>  2 0.21120911E+03</rscale>
<asrwt>0</asrwt>
<pdfrwt beam="1">  1       21 0.16595734E-01 0.21120911E+03</pdfrwt>
<pdfrwt beam="2">  1       21 0.76905149E-01 0.21120911E+03</pdfrwt>
<totfact> 0.48565234E+04</totfact>
</mgrwt>
</event>
<event>
 4    1  0.4025504E+000  0.2429480E+03  0.7546771E-02  0.1117844E+00
         21   -1    0    0  501  502  0.00000000000E+00  0.00000000000E+00  0.92118552774E+03  0.92118552774E+03  0.00000000000E+00 0. -1.
         21   -1    0    0  502  503 -0.00000000000E+00 -0.00000000000E+00 -0.13478798087E+03  0.13478798087E+03  0.00000000000E+00 0. -1.
          6    1    1    2  501    0  0.91777460920E+01  0.17032462816E+03  0.77562810299E+03  0.81278697340E+03  0.17300000000E+03 0. -1.
         -6    1    1    2    0  503 -0.91777460920E+01 -0.17032462816E+03  0.10769443880E+02  0.24318653520E+03  0.17300000000E+03 0. -1.
<mgrwt>
<rscale>  2 0.24294796E+03</rscale>
<asrwt>0</asrwt>
<pdfrwt beam="1">  1       21 0.14172085E+00 0.24294796E+03</pdfrwt>
<pdfrwt beam="2">  1       21 0.20736613E-01 0.24294796E+03</pdfrwt>
<totfact> 0.72130146E+03</totfact>
</mgrwt>
</event>
<event>
 4    1  0.4025504E+000  0.1945824E+03  0.7546771E-02  0.1154392E+00
         21   -1    0    0  503  502  0.00000000000E+00  0.00000000000E+00  0.39422937087E+03  0.39422937087E+03  0.00000000000E+00 0.  1.
         21   -1    0    0  501  503 -0.00000000000E+00 -0.00000000000E+00 -0.23953031706E+03  0.23953031706E+03  0.00000000000E+00 0.  1.
          6    1    1    2  501    0 -0.18027254400E+02  0.87225742230E+02 -0.16790874278E+03  0.25701295281E+03  0.17300000000E+03 0.  1.
         -6    1    1    2    0  502  0.18027254400E+02 -0.87225742230E+02  0.32260779659E+03  0.37674673512E+03  0.17300000000E+03 0.  1.
<mgrwt>
<rscale>  2 0.19458240E+03</rscale>
<asrwt>0</asrwt>
<pdfrwt beam="1">  1       21 0.60650672E-01 0.19458240E+03</pdfrwt>
<pdfrwt beam="2">  1       21 0.36850818E-01 0.19458240E+03</pdfrwt>
<totfact> 0.17960415E+04</totfact>
</mgrwt>
</event>
<event>
 4    1  0.4025504E+000  0.3520921E+03  0.7546771E-02  0.1061760E+00
         21   -1    0    0  503  502  0.00000000000E+00  0.00000000000E+00  0.53595946847E+03  0.53595946847E+03  0.00000000000E+00 0. -1.
         21   -1    0    0  501  503 -0.00000000000E+00 -0.00000000000E+00 -0.28859287850E+03  0.28859287850E+03  0.00000000000E+00 0.  1.
          6    1    1    2  501    0 -0.14905362597E+03  0.26799794013E+03 -0.60006685690E+02  0.35716898193E+03  0.17300000000E+03 0.  1.
         -6    1    1    2    0  502  0.14905362597E+03 -0.26799794013E+03  0.30737327566E+03  0.46738336504E+03  0.17300000000E+03 0. -1.
<mgrwt>
<rscale>  2 0.35209215E+03</rscale>
<asrwt>0</asrwt>
<pdfrwt beam="1">  1       21 0.82455303E-01 0.35209215E+03</pdfrwt>
<pdfrwt beam="2">  1       21 0.44398904E-01 0.35209215E+03</pdfrwt>
<totfact> 0.57153811E+03</totfact>
</mgrwt>
</event>
<event>
 4    1  0.4025504E+000  0.1974573E+03  0.7546771E-02  0.1151902E+00
         21   -1    0    0  503  502  0.00000000000E+00  0.00000000000E+00  0.46039282448E+03  0.46039282448E+03  0.00000000000E+00 0. -1.
         21   -1    0    0  501  503 -0.00000000000E+00 -0.00000000000E+00 -0.10780506392E+03  0.10780506392E+03  0.00000000000E+00 0. -1.
          6    1    1    2  501    0 -0.61072795011E+02 -0.73010293135E+02  0.44733934230E+02  0.20246114211E+03  0.17300000000E+03 0. -1.
         -6    1    1    2    0  502  0.61072795011E+02  0.73010293135E+02  0.30785382633E+03  0.36573674628E+03  0.17300000000E+03 0. -1.
<mgrwt>
<rscale>  2 0.19745731E+03</rscale>
<asrwt>0</asrwt>
<pdfrwt beam="1">  1       21 0.70829664E-01 0.19745731E+03</pdfrwt>
<pdfrwt beam="2">  1       21 0.16585395E-01 0.19745731E+03</pdfrwt>
<totfact> 0.58802120E+04</totfact>
</mgrwt>
</event>
<event>
 4    1  0.4025504E+000  0.1732544E+03  0.7546771E-02  0.1174496E+00
         21   -1    0    0  503  502  0.00000000000E+00  0.00000000000E+00  0.68424626693E+02  0.68424626693E+02  0.00000000000E+00 0. -1.
         21   -1    0    0  501  503 -0.00000000000E+00 -0.00000000000E+00 -0.24536457841E+04  0.24536457841E+04  0.00000000000E+00 0. -1.
          6    1    1    2  501    0 -0.90082423852E+01  0.26342921457E+01 -0.23353684301E+04  0.23417862397E+04  0.17300000000E+03 0. -1.
         -6    1    1    2    0  502  0.90082423852E+01 -0.26342921457E+01 -0.49852727240E+02  0.18028417107E+03  0.17300000000E+03 0. -1.
<mgrwt>
<rscale>  2 0.17325440E+03</rscale>
<asrwt>0</asrwt>
<pdfrwt beam="1">  1       21 0.10526867E-01 0.17325440E+03</pdfrwt>
<pdfrwt beam="2">  1       21 0.37748393E+00 0.17325440E+03</pdfrwt>
<totfact> 0.91582241E+02</totfact>
</mgrwt>
</event>
<event>
 4    1  0.4025504E+000  0.2330396E+03  0.7546771E-02  0.1124518E+00
         21   -1    0    0  501  502  0.00000000000E+00  0.00000000000E+00  0.17080390570E+03  0.17080390570E+03  0.00000000000E+00 0.  1.
         21   -1    0    0  502  503 -0.00000000000E+00 -0.00000000000E+00 -0.31796358173E+03  0.31796358173E+03  0.00000000000E+00 0.  1.
          6    1    1    2  501    0 -0.15605548718E+03  0.50151590730E+01 -0.72113688797E+02  0.24394231083E+03  0.17300000000E+03 0. -1.
         -6    1    1    2    0  503  0.15605548718E+03 -0.50151590730E+01 -0.75045987228E+02  0.24482517660E+03  0.17300000000E+03 0. -1.
<mgrwt>
<rscale>  2 0.23303963E+03</rscale>
<asrwt>0</asrwt>
<pdfrwt beam="1">  1       21 0.26277524E-01 0.23303963E+03</pdfrwt>
<pdfrwt beam="2">  1       21 0.48917474E-01 0.23303963E+03</pdfrwt>
<totfact> 0.53914797E+04</totfact>
</mgrwt>
</event>
<event>
 4    1  0.4025504E+000  0.1990331E+03  0.7546771E-02  0.1150557E+00
         21   -1    0    0  501  502  0.00000000000E+00  0.00000000000E+00  0.86749482002E+03  0.86749482002E+03  0.00000000000E+00 0. -1.
         21   -1    0    0  502  503 -0.00000000000E+00 -0.00000000000E+00 -0.53917030773E+02  0.53917030773E+02  0.00000000000E+00 0. -1.
          6    1    1    2  501    0  0.78180369202E+02  0.59774549570E+02  0.22655322271E+03  0.30156347529E+03  0.17300000000E+03 0. -1.
         -6    1    1    2    0  503 -0.78180369202E+02 -0.59774549570E+02  0.58702456653E+03  0.61984837551E+03  0.17300000000E+03 0. -1.
<mgrwt>
<rscale>  2 0.19903308E+03</rscale>
<asrwt>0</asrwt>
<pdfrwt beam="1">  1       21 0.13346073E+00 0.19903308E+03</pdfrwt>
<pdfrwt beam="2">  1       21 0.82949284E-02 0.19903308E+03</pdfrwt>
<totfact> 0.45405468E+04</totfact>
</mgrwt>
</event>
<event>
 4    1  0.4025504E+000  0.1796130E+03  0.7546771E-02  0.1168178E+00
         21   -1    0    0  501  502  0.00000000000E+00  0.00000000000E+00  0.20018764613E+04  0.20018764613E+04  0.00000000000E+00 0.  1.
         21   -1    0    0  502  503 -0.00000000000E+00 -0.00000000000E+00 -0.16647956756E+02  0.16647956756E+02  0.00000000000E+00 0. -1.
          6    1    1    2  501    0 -0.43572399598E+02 -0.20815288883E+02  0.11731441734E+04  0.11868142575E+04  0.17300000000E+03 0.  1.
         -6    1    1    2    0  503  0.43572399598E+02  0.20815288883E+02  0.81208433117E+03  0.83171016056E+03  0.17300000000E+03 0. -1.
<mgrwt>
<rscale>  2 0.17961300E+03</rscale>
<asrwt>0</asrwt>
<pdfrwt beam="1">  1       21 0.30798080E+00 0.17961300E+03</pdfrwt>
<pdfrwt beam="2">  1       21 0.25612257E-02 0.17961300E+03</pdfrwt>
<totfact> 0.25557896E+04</totfact>
</mgrwt>
</event>
<event>
 4    1  0.4025504E+000  0.1741101E+03  0.7546771E-02  0.1173628E+00
         21   -1    0    0  503  502  0.00000000000E+00  0.00000000000E+00  0.88890074510E+02  0.88890074510E+02  0.00000000000E+00 0. -1.
         21   -1    0    0  501  503 -0.00000000000E+00 -0.00000000000E+00 -0.56303272024E+03  0.56303272024E+03  0.00000000000E+00 0. -1.
          6    1    1    2  501    0 -0.16685424494E+02 -0.10340501992E+02 -0.44175201710E+03  0.47482541421E+03  0.17300000000E+03 0. -1.
         -6    1    1    2    0  502  0.16685424494E+02  0.10340501992E+02 -0.32390628640E+02  0.17709738054E+03  0.17300000000E+03 0. -1.
<mgrwt>
<rscale>  2 0.17411011E+03</rscale>
<asrwt>0</asrwt>
<pdfrwt beam="1">  1       21 0.13675396E-01 0.17411011E+03</pdfrwt>
<pdfrwt beam="2">  1       21 0.86620416E-01 0.17411011E+03</pdfrwt>
<totfact> 0.53715772E+04</totfact>
</mgrwt>
</event>
<event>
 4    1  0.4025504E+000  0.2120932E+03  0.7546771E-02  0.1139919E+00
         21   -1    0    0  503  502  0.00000000000E+00  0.00000000000E+00  0.10671288214E+03  0.10671288214E+03  0.00000000000E+00 0.  1.
         21   -1    0    0  501  503 -0.00000000000E+00 -0.00000000000E+00 -0.57522639666E+03  0.57522639666E+03  0.00000000000E+00 0.  1.
          6    1    1    2  501    0  0.57904293906E+02 -0.10817397988E+03 -0.41050186941E+03  0.46205551827E+03  0.17300000000E+03 0.  1.
         -6    1    1    2    0  502 -0.57904293906E+02  0.10817397988E+03 -0.58011645109E+02  0.21988376053E+03  0.17300000000E+03 0.  1.
<mgrwt>
<rscale>  2 0.21209318E+03</rscale>
<asrwt>0</asrwt>
<pdfrwt beam="1">  1       21 0.16417366E-01 0.21209318E+03</pdfrwt>
<pdfrwt beam="2">  1       21 0.88496372E-01 0.21209318E+03</pdfrwt>
<totfact> 0.35953956E+04</totfact>
</mgrwt>
</event>
<event>
 4    1  0.4025504E+000  0.2295939E+03  0.7546771E-02  0.1126926E+00
         21   -1    0    0  501  502  0.00000000000E+00  0.00000000000E+00  0.14809536639E+04  0.14809536639E+04  0.00000000000E+00 0.  1.
         21   -1    0    0  502  503 -0.00000000000E+00 -0.00000000000E+00 -0.41177984898E+02  0.41177984898E+02  0.00000000000E+00 0. -1.
          6    1    1    2  501    0 -0.75407711950E+02  0.13075937376E+03  0.10001436639E+04  0.10261582165E+04  0.17300000000E+03 0. -1.
         -6    1    1    2    0  503  0.75407711950E+02 -0.13075937376E+03  0.43963201513E+03  0.49597343233E+03  0.17300000000E+03 0. -1.
<mgrwt>
<rscale>  2 0.22959385E+03</rscale>
<asrwt>0</asrwt>
<pdfrwt beam="1">  1       21 0.22783898E+00 0.22959385E+03</pdfrwt>
<pdfrwt beam="2">  1       21 0.63350758E-02 0.22959385E+03</pdfrwt>
<totfact> 0.15718040E+04</totfact>
</mgrwt>
</event>
<event>
 4    1  0.4025504E+000  0.2083680E+03  0.7546771E-02  0.1142865E+00
         21   -1    0    0  501  502  0.00000000000E+00  0.00000000000E+00  0.92366077901E+02  0.92366077901E+02  0.00000000000E+00 0.  1.
         21   -1    0    0  502  503 -0.00000000000E+00 -0.00000000000E+00 -0.68001896865E+03  0.68001896865E+03  0.00000000000E+00 0.  1.
          6    1    1    2  501    0  0.45988459040E+02  0.10664550980E+03 -0.79233722083E+02  0.22292417061E+03  0.17300000000E+03 0.  1.
         -6    1    1    2    0  503 -0.45988459040E+02 -0.10664550980E+03 -0.50841916867E+03  0.54946087595E+03  0.17300000000E+03 0.  1.
<mgrwt>
<rscale>  2 0.20836795E+03</rscale>
<asrwt>0</asrwt>
<pdfrwt beam="1">  1       21 0.14210165E-01 0.20836795E+03</pdfrwt>
<pdfrwt beam="2">  1       21 0.10461831E+00 0.20836795E+03</pdfrwt>
<totfact> 0.31615596E+04</totfact>
</mgrwt>
</event>
<event>
 4    1  0.4025504E+000  0.2645599E+03  0.7546771E-02  0.1104434E+00
         21   -1    0    0  503  502  0.00000000000E+00  0.00000000000E+00  0.21017027895E+03  0.21017027895E+03  0.00000000000E+00 0.  1.
         21   -1    0    0  501  503 -0.00000000000E+00 -0.00000000000E+00 -0.51851037496E+03  0.51851037496E+03  0.00000000000E+00 0.  1.
          6    1    1    2  501    0 -0.11524793441E+03  0.16364862231E+03  0.63743057520E+02  0.27213073209E+03  0.17300000000E+03 0.  1.
         -6    1    1    2    0  502  0.11524793441E+03 -0.16364862231E+03 -0.37208315353E+03  0.45654992182E+03  0.17300000000E+03 0.  1.
<mgrwt>
<rscale>  2 0.26455993E+03</rscale>
<asrwt>0</asrwt>
<pdfrwt beam="1">  1       21 0.32333889E-01 0.26455993E+03</pdfrwt>
<pdfrwt beam="2">  1       21 0.79770826E-01 0.26455993E+03</pdfrwt>
<totfact> 0.12212461E+04</totfact>
</mgrwt>
</event>
<event>
 4    1  0.4025504E+000  0.2786772E+03  0.7546771E-02  0.1096414E+00
         21   -1    0    0  501  502  0.00000000000E+00  0.00000000000E+00  0.48481529521E+03  0.48481529521E+03  0.00000000000E+00 0. -1.
         21   -1    0    0  502  503 -0.00000000000E+00 -0.00000000000E+00 -0.16221490264E+03  0.16221490264E+03  0.00000000000E+00 0.  1.
          6    1    1    2  501    0 -0.20548551692E+03 -0.74213616691E+02  0.19747495685E+03  0.34155133897E+03  0.17300000000E+03 0. -1.
         -6    1    1    2    0  503  0.20548551692E+03  0.74213616691E+02  0.12512543571E+03  0.30547885889E+03  0.17300000000E+03 0. -1.
<mgrwt>
<rscale>  2 0.27867716E+03</rscale>
<asrwt>0</asrwt>
<pdfrwt beam="1">  1       21 0.74586968E-01 0.27867716E+03</pdfrwt>
<pdfrwt beam="2">  1       21 0.24956139E-01 0.27867716E+03</pdfrwt>
<totfact> 0.23426314E+04</totfact>
</mgrwt>
</event>
<event>
 4    1  0.4025504E+000  0.1827273E+03  0.7546771E-02  0.1165189E+00
         21   -1    0    0  503  502  0.00000000000E+00  0.00000000000E+00  0.12712655470E+03  0.12712655470E+03  0.00000000000E+00 0.  1.
         21   -1    0    0  501  503 -0.00000000000E+00 -0.00000000000E+00 -0.28417513249E+03  0.28417513249E+03  0.00000000000E+00 0.  1.
          6    1    1    2  501    0 -0.51632583521E+02  0.28183990317E+02 -0.13512896624E+03  0.22726438020E+03  0.17300000000E+03 0.  1.
         -6    1    1    2    0  502  0.51632583521E+02 -0.28183990317E+02 -0.21919611541E+02  0.18403730698E+03  0.17300000000E+03 0.  1.
<mgrwt>
<rscale>  2 0.18272729E+03</rscale>
<asrwt>0</asrwt>
<pdfrwt beam="1">  1       21 0.19557931E-01 0.18272729E+03</pdfrwt>
<pdfrwt beam="2">  1       21 0.43719251E-01 0.18272729E+03</pdfrwt>
<totfact> 0.12141440E+05</totfact>
</mgrwt>
</event>
<event>
 4    1  0.4025504E+000  0.2859862E+03  0.7546771E-02  0.1092464E+00
         21   -1    0    0  501  502  0.00000000000E+00  0.00000000000E+00  0.10184885420E+04  0.10184885420E+04  0.00000000000E+00 0. -1.
         21   -1    0    0  502  503 -0.00000000000E+00 -0.00000000000E+00 -0.90778050856E+02  0.90778050856E+02  0.00000000000E+00 0.  1.
          6    1    1    2  501    0 -0.94805859642E+02  0.20705299469E+03  0.65225714282E+03  0.71219904099E+03  0.17300000000E+03 0. -1.
         -6    1    1    2    0  503  0.94805859642E+02 -0.20705299469E+03  0.27545334829E+03  0.39706755183E+03  0.17300000000E+03 0.  1.
<mgrwt>
<rscale>  2 0.28598618E+03</rscale>
<asrwt>0</asrwt>
<pdfrwt beam="1">  1       21 0.15669054E+00 0.28598618E+03</pdfrwt>
<pdfrwt beam="2">  1       21 0.13965855E-01 0.28598618E+03</pdfrwt>
<totfact> 0.11209971E+04</totfact>
</mgrwt>
</event>
<event>
 4    1  0.4025504E+000  0.1959235E+03  0.7546771E-02  0.1153225E+00
         21   -1    0    0  503  502  0.00000000000E+00  0.00000000000E+00  0.17434666978E+03  0.17434666978E+03  0.00000000000E+00 0.  1.
         21   -1    0    0  501  503 -0.00000000000E+00 -0.00000000000E+00 -0.24381972854E+04  0.24381972854E+04  0.00000000000E+00 0. -1.
          6    1    1    2  501    0 -0.18699198914E+02  0.90040890842E+02 -0.23778235292E+04  0.23858815474E+04  0.17300000000E+03 0. -1.
         -6    1    1    2    0  502  0.18699198914E+02 -0.90040890842E+02  0.11397291361E+03  0.22666240778E+03  0.17300000000E+03 0.  1.
<mgrwt>
<rscale>  2 0.19592351E+03</rscale>
<asrwt>0</asrwt>
<pdfrwt beam="1">  1       21 0.26822568E-01 0.19592351E+03</pdfrwt>
<pdfrwt beam="2">  1       21 0.37510723E+00 0.19592351E+03</pdfrwt>
<totfact> 0.16296311E+02</totfact>
</mgrwt>
</event>
<event>
 4    1  0.4025504E+000  0.1796670E+03  0.7546771E-02  0.1168126E+00
         21   -1    0    0  503  502  0.00000000000E+00  0.00000000000E+00  0.13415524525E+04  0.13415524525E+04  0.00000000000E+00 0. -1.
         21   -1    0    0  501  503 -0.00000000000E+00 -0.00000000000E+00 -0.40820763504E+02  0.40820763504E+02  0.00000000000E+00 0. -1.
          6    1    1    2  501    0 -0.48429302042E+02 -0.24116620868E+01  0.20749419406E+03  0.27447049747E+03  0.17300000000E+03 0. -1.
         -6    1    1    2    0  502  0.48429302042E+02  0.24116620868E+01  0.10932374949E+04  0.11079027185E+04  0.17300000000E+03 0. -1.
<mgrwt>
<rscale>  2 0.17966695E+03</rscale>
<asrwt>0</asrwt>
<pdfrwt beam="1">  1       21 0.20639265E+00 0.17966695E+03</pdfrwt>
<pdfrwt beam="2">  1       21 0.62801185E-02 0.17966695E+03</pdfrwt>
<totfact> 0.22518224E+04</totfact>
</mgrwt>
</event>
<event>
 4    1  0.4025504E+000  0.1923816E+03  0.7546771E-02  0.1156331E+00
         21   -1    0    0  503  502  0.00000000000E+00  0.00000000000E+00  0.83850279002E+02  0.83850279002E+02  0.00000000000E+00 0. -1.
         21   -1    0    0  501  503 -0.00000000000E+00 -0.00000000000E+00 -0.10826582368E+04  0.10826582368E+04  0.00000000000E+00 0. -1.
          6    1    1    2  501    0 -0.16923466915E+02 -0.82433573028E+02 -0.94828577888E+03  0.96760354285E+03  0.17300000000E+03 0. -1.
         -6    1    1    2    0  502  0.16923466915E+02  0.82433573028E+02 -0.50522178880E+02  0.19890497292E+03  0.17300000000E+03 0. -1.
<mgrwt>
<rscale>  2 0.19238165E+03</rscale>
<asrwt>0</asrwt>
<pdfrwt beam="1">  1       21 0.12900043E-01 0.19238165E+03</pdfrwt>
<pdfrwt beam="2">  1       21 0.16656280E+00 0.19238165E+03</pdfrwt>
<totfact> 0.11634490E+04</totfact>
</mgrwt>
</event>
<event>
 4    1  0.4025504E+000  0.2286200E+03  0.7546771E-02  0.1127615E+00
         21   -1    0    0  503  502  0.00000000000E+00  0.00000000000E+00  0.62582258190E+03  0.62582258190E+03  0.00000000000E+00 0.  1.
         21   -1    0    0  501  503 -0.00000000000E+00 -0.00000000000E+00 -0.89507970167E+02  0.89507970167E+02  0.00000000000E+00 0. -1.
          6    1    1    2  501    0  0.10295174975E+03  0.10834691770E+03  0.36068623700E+03  0.42703826400E+03  0.17300000000E+03 0.  1.
         -6    1    1    2    0  502 -0.10295174975E+03 -0.10834691770E+03  0.17562837473E+03  0.28829228808E+03  0.17300000000E+03 0. -1.
<mgrwt>
<rscale>  2 0.22862003E+03</rscale>
<asrwt>0</asrwt>
<pdfrwt beam="1">  1       21 0.96280394E-01 0.22862003E+03</pdfrwt>
<pdfrwt beam="2">  1       21 0.13770457E-01 0.22862003E+03</pdfrwt>
<totfact> 0.40380042E+04</totfact>
</mgrwt>
</event>
<event>
 4    1  0.4025504E+000  0.1868583E+03  0.7546771E-02  0.1161326E+00
         21   -1    0    0  503  502  0.00000000000E+00  0.00000000000E+00  0.92095167794E+02  0.92095167794E+02  0.00000000000E+00 0.  1.
         21   -1    0    0  501  503 -0.00000000000E+00 -0.00000000000E+00 -0.37971062624E+03  0.37971062624E+03  0.00000000000E+00 0.  1.
          6    1    1    2  501    0  0.68328415956E+02  0.17839848305E+02 -0.15303321279E+03  0.24152680355E+03  0.17300000000E+03 0.  1.
         -6    1    1    2    0  502 -0.68328415956E+02 -0.17839848305E+02 -0.13458224566E+03  0.23027899049E+03  0.17300000000E+03 0.  1.
<mgrwt>
<rscale>  2 0.18685832E+03</rscale>
<asrwt>0</asrwt>
<pdfrwt beam="1">  1       21 0.14168487E-01 0.18685832E+03</pdfrwt>
<pdfrwt beam="2">  1       21 0.58417020E-01 0.18685832E+03</pdfrwt>
<totfact> 0.11964025E+05</totfact>
</mgrwt>
</event>
<event>
 4    1  0.4025504E+000  0.4566534E+03  0.7546771E-02  0.1025756E+00
         21   -1    0    0  501  502  0.00000000000E+00  0.00000000000E+00  0.81398554798E+03  0.81398554798E+03  0.00000000000E+00 0. -1.
         21   -1    0    0  502  503 -0.00000000000E+00 -0.00000000000E+00 -0.46247011588E+03  0.46247011588E+03  0.00000000000E+00 0.  1.
          6    1    1    2  501    0 -0.16279692063E+03 -0.39000060115E+03  0.60200930786E+03  0.75561068879E+03  0.17300000000E+03 0. -1.
         -6    1    1    2    0  503  0.16279692063E+03  0.39000060115E+03 -0.25049387576E+03  0.52084497507E+03  0.17300000000E+03 0.  1.
<mgrwt>
<rscale>  2 0.45665338E+03</rscale>
<asrwt>0</asrwt>
<pdfrwt beam="1">  1       21 0.12522855E+00 0.45665338E+03</pdfrwt>
<pdfrwt beam="2">  1       21 0.71149249E-01 0.45665338E+03</pdfrwt>
<totfact> 0.71284001E+02</totfact>
</mgrwt>
</event>
<event>
 4    1  0.4025504E+000  0.1745187E+03  0.7546771E-02  0.1173216E+00
         21   -1    0    0  503  502  0.00000000000E+00  0.00000000000E+00  0.28052554104E+04  0.28052554104E+04  0.00000000000E+00 0.  1.
         21   -1    0    0  501  503 -0.00000000000E+00 -0.00000000000E+00 -0.17029292693E+02  0.17029292693E+02  0.00000000000E+00 0.  1.
          6    1    1    2  501    0 -0.14712733807E+01  0.22926122948E+02  0.54455248311E+03  0.57183404815E+03  0.17300000000E+03 0.  1.
         -6    1    1    2    0  502  0.14712733807E+01 -0.22926122948E+02  0.22436736346E+04  0.22504506549E+04  0.17300000000E+03 0.  1.
<mgrwt>
<rscale>  2 0.17451869E+03</rscale>
<asrwt>0</asrwt>
<pdfrwt beam="1">  1       21 0.43157739E+00 0.17451869E+03</pdfrwt>
<pdfrwt beam="2">  1       21 0.26198934E-02 0.17451869E+03</pdfrwt>
<totfact> 0.44661447E+03</totfact>
</mgrwt>
</event>
<event>
 4    1  0.4025504E+000  0.3675069E+03  0.7546771E-02  0.1055650E+00
         21   -1    0    0  503  502  0.00000000000E+00  0.00000000000E+00  0.13793394514E+03  0.13793394514E+03  0.00000000000E+00 0.  1.
         21   -1    0    0  501  503 -0.00000000000E+00 -0.00000000000E+00 -0.13403874750E+04  0.13403874750E+04  0.00000000000E+00 0.  1.
          6    1    1    2  501    0 -0.30742034147E+03  0.10307793485E+03 -0.98493903804E+03  0.10512688693E+04  0.17300000000E+03 0.  1.
         -6    1    1    2    0  502  0.30742034147E+03 -0.10307793485E+03 -0.21751449187E+03  0.42705255084E+03  0.17300000000E+03 0.  1.
<mgrwt>
<rscale>  2 0.36750691E+03</rscale>
<asrwt>0</asrwt>
<pdfrwt beam="1">  1       21 0.21220606E-01 0.36750691E+03</pdfrwt>
<pdfrwt beam="2">  1       21 0.20621346E+00 0.36750691E+03</pdfrwt>
<totfact> 0.22259266E+03</totfact>
</mgrwt>
</event>
<event>
 4    1  0.4025504E+000  0.1858573E+03  0.7546771E-02  0.1162252E+00
         21   -1    0    0  501  502  0.00000000000E+00  0.00000000000E+00  0.66624989459E+03  0.66624989459E+03  0.00000000000E+00 0. -1.
         21   -1    0    0  502  503 -0.00000000000E+00 -0.00000000000E+00 -0.18673205132E+03  0.18673205132E+03  0.00000000000E+00 0.  1.
          6    1    1    2  501    0  0.60697066596E+02  0.30492452819E+02  0.60223775015E+03  0.63026441378E+03  0.17300000000E+03 0. -1.
         -6    1    1    2    0  503 -0.60697066596E+02 -0.30492452819E+02 -0.12271990689E+03  0.22271753213E+03  0.17300000000E+03 0.  1.
<mgrwt>
<rscale>  2 0.18585727E+03</rscale>
<asrwt>0</asrwt>
<pdfrwt beam="1">  1       21 0.10249998E+00 0.18585727E+03</pdfrwt>
<pdfrwt beam="2">  1       21 0.28728008E-01 0.18585727E+03</pdfrwt>
<totfact> 0.90171860E+03</totfact>
</mgrwt>
</event>
<event>
 4    1  0.4025504E+000  0.1899205E+03  0.7546771E-02  0.1158533E+00
         21   -1    0    0  501  502  0.00000000000E+00  0.00000000000E+00  0.35505655061E+03  0.35505655061E+03  0.00000000000E+00 0. -1.
         21   -1    0    0  502  503 -0.00000000000E+00 -0.00000000000E+00 -0.10456887213E+03  0.10456887213E+03  0.00000000000E+00 0.  1.
          6    1    1    2  501    0  0.62728518481E+02 -0.46967299393E+02  0.16403930974E+03  0.25095555261E+03  0.17300000000E+03 0. -1.
         -6    1    1    2    0  503 -0.62728518481E+02  0.46967299393E+02  0.86448368739E+02  0.20866987013E+03  0.17300000000E+03 0. -1.
<mgrwt>
<rscale>  2 0.18992049E+03</rscale>
<asrwt>0</asrwt>
<pdfrwt beam="1">  1       21 0.54624084E-01 0.18992049E+03</pdfrwt>
<pdfrwt beam="2">  1       21 0.16087519E-01 0.18992049E+03</pdfrwt>
<totfact> 0.10936479E+05</totfact>
</mgrwt>
</event>
<event>
 4    1  0.4025504E+000  0.1873091E+03  0.7546771E-02  0.1160911E+00
         21   -1    0    0  503  502  0.00000000000E+00  0.00000000000E+00  0.13180639465E+04  0.13180639465E+04  0.00000000000E+00 0.  1.
         21   -1    0    0  501  503 -0.00000000000E+00 -0.00000000000E+00 -0.11012304925E+03  0.11012304925E+03  0.00000000000E+00 0.  1.
          6    1    1    2  501    0  0.54777066924E+02 -0.46423654981E+02 -0.17859209428E+02  0.18815853466E+03  0.17300000000E+03 0.  1.
         -6    1    1    2    0  502 -0.54777066924E+02  0.46423654981E+02  0.12258001067E+04  0.12400284611E+04  0.17300000000E+03 0.  1.
<mgrwt>
<rscale>  2 0.18730906E+03</rscale>
<asrwt>0</asrwt>
<pdfrwt beam="1">  1       21 0.20277906E+00 0.18730906E+03</pdfrwt>
<pdfrwt beam="2">  1       21 0.16942009E-01 0.18730906E+03</pdfrwt>
<totfact> 0.40671971E+03</totfact>
</mgrwt>
</event>
<event>
 4    1  0.4025504E+000  0.4207785E+03  0.7546771E-02  0.1036813E+00
         21   -1    0    0  501  502  0.00000000000E+00  0.00000000000E+00  0.10664743606E+03  0.10664743606E+03  0.00000000000E+00 0.  1.
         21   -1    0    0  502  503 -0.00000000000E+00 -0.00000000000E+00 -0.16868607937E+04  0.16868607937E+04  0.00000000000E+00 0. -1.
          6    1    1    2  501    0 -0.22058574386E+03  0.31379533705E+03 -0.90287419424E+03  0.99611063370E+03  0.17300000000E+03 0.  1.
         -6    1    1    2    0  503  0.22058574386E+03 -0.31379533705E+03 -0.67733916344E+03  0.79739759611E+03  0.17300000000E+03 0. -1.
<mgrwt>
<rscale>  2 0.42077855E+03</rscale>
<asrwt>0</asrwt>
<pdfrwt beam="1">  1       21 0.16407298E-01 0.42077855E+03</pdfrwt>
<pdfrwt beam="2">  1       21 0.25951705E+00 0.42077855E+03</pdfrwt>
<totfact> 0.16322500E+03</totfact>
</mgrwt>
</event>
<event>
 4    1  0.4025504E+000  0.2369374E+03  0.7546771E-02  0.1121850E+00
         21   -1    0    0  501  502  0.00000000000E+00  0.00000000000E+00  0.51247517967E+03  0.51247517967E+03  0.00000000000E+00 0.  1.
         21   -1    0    0  502  503 -0.00000000000E+00 -0.00000000000E+00 -0.14197427495E+03  0.14197427495E+03  0.00000000000E+00 0. -1.
          6    1    1    2  501    0  0.10199640777E+03 -0.12572613483E+03  0.34163968136E+03  0.41576074858E+03  0.17300000000E+03 0.  1.
         -6    1    1    2    0  503 -0.10199640777E+03  0.12572613483E+03  0.28861223354E+02  0.23868870604E+03  0.17300000000E+03 0. -1.
<mgrwt>
<rscale>  2 0.23693739E+03</rscale>
<asrwt>0</asrwt>
<pdfrwt beam="1">  1       21 0.78842334E-01 0.23693739E+03</pdfrwt>
<pdfrwt beam="2">  1       21 0.21842196E-01 0.23693739E+03</pdfrwt>
<totfact> 0.27160399E+04</totfact>
</mgrwt>
</event>
<event>
 4    1  0.4025504E+000  0.1762027E+03  0.7546771E-02  0.1171530E+00
         21   -1    0    0  501  502  0.00000000000E+00  0.00000000000E+00  0.18123356786E+03  0.18123356786E+03  0.00000000000E+00 0.  1.
         21   -1    0    0  502  503 -0.00000000000E+00 -0.00000000000E+00 -0.29195910640E+03  0.29195910640E+03  0.00000000000E+00 0.  1.
          6    1    1    2  501    0  0.31102270856E+02  0.12289646350E+02 -0.20745479189E+03  0.27218537311E+03  0.17300000000E+03 0.  1.
         -6    1    1    2    0  503 -0.31102270856E+02 -0.12289646350E+02  0.96729253351E+02  0.20100730115E+03  0.17300000000E+03 0.  1.
<mgrwt>
<rscale>  2 0.17620269E+03</rscale>
<asrwt>0</asrwt>
<pdfrwt beam="1">  1       21 0.27882088E-01 0.17620269E+03</pdfrwt>
<pdfrwt beam="2">  1       21 0.44916785E-01 0.17620269E+03</pdfrwt>
<totfact> 0.58863890E+04</totfact>
</mgrwt>
</event>
<event>
 4    1  0.4025504E+000  0.3208254E+03  0.7546771E-02  0.1075270E+00
         21   -1    0    0  503  502  0.00000000000E+00  0.00000000000E+00  0.61566635603E+03  0.61566635603E+03  0.00000000000E+00 0.  1.
         21   -1    0    0  501  503 -0.00000000000E+00 -0.00000000000E+00 -0.27523829795E+03  0.27523829795E+03  0.00000000000E+00 0. -1.
          6    1    1    2  501    0  0.12776243783E+03 -0.23806862153E+03 -0.10889247767E+03  0.33880153596E+03  0.17300000000E+03 0. -1.
         -6    1    1    2    0  502 -0.12776243783E+03  0.23806862153E+03  0.44932053575E+03  0.55210311802E+03  0.17300000000E+03 0.  1.
<mgrwt>
<rscale>  2 0.32082536E+03</rscale>
<asrwt>0</asrwt>
<pdfrwt beam="1">  1       21 0.94717901E-01 0.32082536E+03</pdfrwt>
<pdfrwt beam="2">  1       21 0.42344354E-01 0.32082536E+03</pdfrwt>
<totfact> 0.46212918E+03</totfact>
</mgrwt>
</event>
<event>
 4    1  0.4025504E+000  0.1741757E+03  0.7546771E-02  0.1173562E+00
         21   -1    0    0  501  502  0.00000000000E+00  0.00000000000E+00  0.67645437836E+02  0.67645437836E+02  0.00000000000E+00 0.  1.
         21   -1    0    0  502  503 -0.00000000000E+00 -0.00000000000E+00 -0.49068105906E+03  0.49068105906E+03  0.00000000000E+00 0.  1.
          6    1    1    2  501    0 -0.19512384625E+02 -0.52389036066E+01 -0.12964225745E+03  0.21712736857E+03  0.17300000000E+03 0.  1.
         -6    1    1    2    0  503  0.19512384625E+02  0.52389036066E+01 -0.29339336378E+03  0.34119912833E+03  0.17300000000E+03 0.  1.
<mgrwt>
<rscale>  2 0.17417571E+03</rscale>
<asrwt>0</asrwt>
<pdfrwt beam="1">  1       21 0.10406991E-01 0.17417571E+03</pdfrwt>
<pdfrwt beam="2">  1       21 0.75489393E-01 0.17417571E+03</pdfrwt>
<totfact> 0.11930838E+05</totfact>
</mgrwt>
</event>
<event>
 4    1  0.4025504E+000  0.3048778E+03  0.7546771E-02  0.1082827E+00
         21   -1    0    0  501  502  0.00000000000E+00  0.00000000000E+00  0.22274111339E+03  0.22274111339E+03  0.00000000000E+00 0.  1.
         21   -1    0    0  502  503 -0.00000000000E+00 -0.00000000000E+00 -0.99304530370E+03  0.99304530370E+03  0.00000000000E+00 0. -1.
          6    1    1    2  501    0 -0.54532934590E+01 -0.25098154978E+03  0.77715662083E+02  0.31462708223E+03  0.17300000000E+03 0. -1.
         -6    1    1    2    0  503  0.54532934590E+01  0.25098154978E+03 -0.84801985240E+03  0.90115933486E+03  0.17300000000E+03 0. -1.
<mgrwt>
<rscale>  2 0.30487781E+03</rscale>
<asrwt>0</asrwt>
<pdfrwt beam="1">  1       21 0.34267864E-01 0.30487781E+03</pdfrwt>
<pdfrwt beam="2">  1       21 0.15277620E+00 0.30487781E+03</pdfrwt>
<totfact> 0.21459563E+03</totfact>
</mgrwt>
</event>
<event>
 4    1  0.4025504E+000  0.2007229E+03  0.7546771E-02  0.1149131E+00
         21   -1    0    0  503  502  0.00000000000E+00  0.00000000000E+00  0.46113309395E+03  0.46113309395E+03  0.00000000000E+00 0.  1.
         21   -1    0    0  501  503 -0.00000000000E+00 -0.00000000000E+00 -0.10358433300E+03  0.10358433300E+03  0.00000000000E+00 0.  1.
          6    1    1    2  501    0 -0.86454013910E+02  0.53725128163E+02  0.29048373516E+03  0.35308708035E+03  0.17300000000E+03 0.  1.
         -6    1    1    2    0  502  0.86454013910E+02 -0.53725128163E+02  0.67065025793E+02  0.21163034660E+03  0.17300000000E+03 0.  1.
<mgrwt>
<rscale>  2 0.20072291E+03</rscale>
<asrwt>0</asrwt>
<pdfrwt beam="1">  1       21 0.70943552E-01 0.20072291E+03</pdfrwt>
<pdfrwt beam="2">  1       21 0.15936052E-01 0.20072291E+03</pdfrwt>
<totfact> 0.62948906E+04</totfact>
</mgrwt>
</event>
<event>
 4    1  0.4025504E+000  0.1862889E+03  0.7546771E-02  0.1161852E+00
         21   -1    0    0  501  502  0.00000000000E+00  0.00000000000E+00  0.24320363549E+03  0.24320363549E+03  0.00000000000E+00 0. -1.
         21   -1    0    0  502  503 -0.00000000000E+00 -0.00000000000E+00 -0.17312547920E+03  0.17312547920E+03  0.00000000000E+00 0. -1.
          6    1    1    2  501    0 -0.64434662141E+02  0.24954299442E+02  0.12231459421E+03  0.22285511594E+03  0.17300000000E+03 0. -1.
         -6    1    1    2    0  503  0.64434662141E+02 -0.24954299442E+02 -0.52236437912E+02  0.19347399875E+03  0.17300000000E+03 0. -1.
<mgrwt>
<rscale>  2 0.18628887E+03</rscale>
<asrwt>0</asrwt>
<pdfrwt beam="1">  1       21 0.37415944E-01 0.18628887E+03</pdfrwt>
<pdfrwt beam="2">  1       21 0.26634689E-01 0.18628887E+03</pdfrwt>
<totfact> 0.92652099E+04</totfact>
</mgrwt>
</event>
<event>
 4    1  0.4025504E+000  0.2803576E+03  0.7546771E-02  0.1095494E+00
         21   -1    0    0  503  502  0.00000000000E+00  0.00000000000E+00  0.17745770932E+03  0.17745770932E+03  0.00000000000E+00 0. -1.
         21   -1    0    0  501  503 -0.00000000000E+00 -0.00000000000E+00 -0.48032467887E+03  0.48032467887E+03  0.00000000000E+00 0. -1.
          6    1    1    2  501    0 -0.25754582395E+01 -0.22060093391E+03 -0.24320764012E+03  0.37114735785E+03  0.17300000000E+03 0. -1.
         -6    1    1    2    0  502  0.25754582395E+01  0.22060093391E+03 -0.59659329433E+02  0.28663503033E+03  0.17300000000E+03 0. -1.
<mgrwt>
<rscale>  2 0.28035764E+03</rscale>
<asrwt>0</asrwt>
<pdfrwt beam="1">  1       21 0.27301187E-01 0.28035764E+03</pdfrwt>
<pdfrwt beam="2">  1       21 0.73896103E-01 0.28035764E+03</pdfrwt>
<totfact> 0.20092022E+04</totfact>
</mgrwt>
</event>
<event>
 4    1  0.4025504E+000  0.1753388E+03  0.7546771E-02  0.1172392E+00
         21   -1    0    0  501  502  0.00000000000E+00  0.00000000000E+00  0.11170754626E+04  0.11170754626E+04  0.00000000000E+00 0.  1.
         21   -1    0    0  502  503 -0.00000000000E+00 -0.00000000000E+00 -0.27762614416E+02  0.27762614416E+02  0.00000000000E+00 0.  1.
          6    1    1    2  501    0 -0.11959035471E+02 -0.25916791307E+02  0.59799111646E+03  0.62316697117E+03  0.17300000000E+03 0. -1.
         -6    1    1    2    0  503  0.11959035471E+02  0.25916791307E+02  0.49132173169E+03  0.52167110580E+03  0.17300000000E+03 0. -1.
<mgrwt>
<rscale>  2 0.17533881E+03</rscale>
<asrwt>0</asrwt>
<pdfrwt beam="1">  1       21 0.17185773E+00 0.17533881E+03</pdfrwt>
<pdfrwt beam="2">  1       21 0.42711723E-02 0.17533881E+03</pdfrwt>
<totfact> 0.73389845E+04</totfact>
</mgrwt>
</event>
<event>
 4    1  0.4025504E+000  0.1744710E+03  0.7546771E-02  0.1173264E+00
         21   -1    0    0  503  502  0.00000000000E+00  0.00000000000E+00  0.24413295829E+03  0.24413295829E+03  0.00000000000E+00 0. -1.
         21   -1    0    0  501  503 -0.00000000000E+00 -0.00000000000E+00 -0.16681970069E+03  0.16681970069E+03  0.00000000000E+00 0. -1.
          6    1    1    2  501    0  0.31036241757E+01 -0.22394107312E+02  0.14192074169E+03  0.22490359145E+03  0.17300000000E+03 0. -1.
         -6    1    1    2    0  502 -0.31036241757E+01  0.22394107312E+02 -0.64607484088E+02  0.18604906752E+03  0.17300000000E+03 0. -1.
<mgrwt>
<rscale>  2 0.17447100E+03</rscale>
<asrwt>0</asrwt>
<pdfrwt beam="1">  1       21 0.37558917E-01 0.17447100E+03</pdfrwt>
<pdfrwt beam="2">  1       21 0.25664569E-01 0.17447100E+03</pdfrwt>
<totfact> 0.99173010E+04</totfact>
</mgrwt>
</event>
<event>
 4    1  0.4025504E+000  0.1764232E+03  0.7546771E-02  0.1171310E+00
         21   -1    0    0  501  502  0.00000000000E+00  0.00000000000E+00  0.17774758034E+04  0.17774758034E+04  0.00000000000E+00 0.  1.
         21   -1    0    0  502  503 -0.00000000000E+00 -0.00000000000E+00 -0.49526791193E+02  0.49526791193E+02  0.00000000000E+00 0.  1.
          6    1    1    2  501    0 -0.21783324875E+02 -0.26863187267E+02  0.15984411685E+04  0.16081477896E+04  0.17300000000E+03 0.  1.
         -6    1    1    2    0  503  0.21783324875E+02  0.26863187267E+02  0.12950784365E+03  0.21885480493E+03  0.17300000000E+03 0.  1.
<mgrwt>
<rscale>  2 0.17642320E+03</rscale>
<asrwt>0</asrwt>
<pdfrwt beam="1">  1       21 0.27345777E+00 0.17642320E+03</pdfrwt>
<pdfrwt beam="2">  1       21 0.76195077E-02 0.17642320E+03</pdfrwt>
<totfact> 0.64552219E+03</totfact>
</mgrwt>
</event>
<event>
 4    1  0.4025504E+000  0.2108001E+03  0.7546771E-02  0.1140934E+00
         21   -1    0    0  501  502  0.00000000000E+00  0.00000000000E+00  0.15864035410E+03  0.15864035410E+03  0.00000000000E+00 0.  1.
         21   -1    0    0  502  503 -0.00000000000E+00 -0.00000000000E+00 -0.28185461458E+03  0.28185461458E+03  0.00000000000E+00 0.  1.
          6    1    1    2  501    0  0.92448146553E+02 -0.77207740502E+02 -0.44277433679E+02  0.21540006065E+03  0.17300000000E+03 0.  1.
         -6    1    1    2    0  503 -0.92448146553E+02  0.77207740502E+02 -0.78936826805E+02  0.22509490803E+03  0.17300000000E+03 0.  1.
<mgrwt>
<rscale>  2 0.21080013E+03</rscale>
<asrwt>0</asrwt>
<pdfrwt beam="1">  1       21 0.24406208E-01 0.21080013E+03</pdfrwt>
<pdfrwt beam="2">  1       21 0.43362248E-01 0.21080013E+03</pdfrwt>
<totfact> 0.80446175E+04</totfact>
</mgrwt>
</event>
<event>
 4    1  0.4025504E+000  0.2161592E+03  0.7546771E-02  0.1136779E+00
         21   -1    0    0  501  502  0.00000000000E+00  0.00000000000E+00  0.13416604834E+03  0.13416604834E+03  0.00000000000E+00 0.  1.
         21   -1    0    0  502  503 -0.00000000000E+00 -0.00000000000E+00 -0.37828378385E+03  0.37828378385E+03  0.00000000000E+00 0. -1.
          6    1    1    2  501    0 -0.11503158537E+03 -0.59695494708E+02 -0.49875500379E+02  0.22183864240E+03  0.17300000000E+03 0.  1.
         -6    1    1    2    0  503  0.11503158537E+03  0.59695494708E+02 -0.19424223513E+03  0.29061118979E+03  0.17300000000E+03 0. -1.
<mgrwt>
<rscale>  2 0.21615924E+03</rscale>
<asrwt>0</asrwt>
<pdfrwt beam="1">  1       21 0.20640931E-01 0.21615924E+03</pdfrwt>
<pdfrwt beam="2">  1       21 0.58197504E-01 0.21615924E+03</pdfrwt>
<totfact> 0.59545195E+04</totfact>
</mgrwt>
</event>
<event>
 4    1  0.4025504E+000  0.2859733E+03  0.7546771E-02  0.1092470E+00
         21   -1    0    0  501  502  0.00000000000E+00  0.00000000000E+00  0.52226528435E+03  0.52226528435E+03  0.00000000000E+00 0.  1.
         21   -1    0    0  502  503 -0.00000000000E+00 -0.00000000000E+00 -0.18243625008E+03  0.18243625008E+03  0.00000000000E+00 0.  1.
          6    1    1    2  501    0 -0.22709804477E+03  0.16679810890E+02  0.30254123342E+03  0.41630750168E+03  0.17300000000E+03 0.  1.
         -6    1    1    2    0  503  0.22709804477E+03 -0.16679810890E+02  0.37287800845E+02  0.28839403274E+03  0.17300000000E+03 0.  1.
<mgrwt>
<rscale>  2 0.28597332E+03</rscale>
<asrwt>0</asrwt>
<pdfrwt beam="1">  1       21 0.80348505E-01 0.28597332E+03</pdfrwt>
<pdfrwt beam="2">  1       21 0.28067116E-01 0.28597332E+03</pdfrwt>
<totfact> 0.15707865E+04</totfact>
</mgrwt>
</event>
<event>
 4    1  0.4025504E+000  0.2439492E+03  0.7546771E-02  0.1117190E+00
         21   -1    0    0  503  502  0.00000000000E+00  0.00000000000E+00  0.69912026281E+02  0.69912026281E+02  0.00000000000E+00 0.  1.
         21   -1    0    0  501  503 -0.00000000000E+00 -0.00000000000E+00 -0.14911909224E+04  0.14911909224E+04  0.00000000000E+00 0. -1.
          6    1    1    2  501    0  0.15760937027E+03 -0.68858561257E+02 -0.12219816604E+04  0.12460940548E+04  0.17300000000E+03 0. -1.
         -6    1    1    2    0  502 -0.15760937027E+03  0.68858561257E+02 -0.19929723571E+03  0.31500889387E+03  0.17300000000E+03 0.  1.
<mgrwt>
<rscale>  2 0.24394921E+03</rscale>
<asrwt>0</asrwt>
<pdfrwt beam="1">  1       21 0.10755696E-01 0.24394921E+03</pdfrwt>
<pdfrwt beam="2">  1       21 0.22941399E+00 0.24394921E+03</pdfrwt>
<totfact> 0.60126378E+03</totfact>
</mgrwt>
</event>
<event>
 4    1  0.4025504E+000  0.1887722E+03  0.7546771E-02  0.1159573E+00
         21   -1    0    0  503  502  0.00000000000E+00  0.00000000000E+00  0.51904132116E+02  0.51904132116E+02  0.00000000000E+00 0. -1.
         21   -1    0    0  501  503 -0.00000000000E+00 -0.00000000000E+00 -0.82302609671E+03  0.82302609671E+03  0.00000000000E+00 0. -1.
          6    1    1    2  501    0  0.45634828991E+01  0.75399614046E+02 -0.56370057957E+03  0.59446889791E+03  0.17300000000E+03 0. -1.
         -6    1    1    2    0  502 -0.45634828991E+01 -0.75399614046E+02 -0.20742138502E+03  0.28046133092E+03  0.17300000000E+03 0. -1.
<mgrwt>
<rscale>  2 0.18877216E+03</rscale>
<asrwt>0</asrwt>
<pdfrwt beam="1">  1       21 0.79852516E-02 0.18877216E+03</pdfrwt>
<pdfrwt beam="2">  1       21 0.12661939E+00 0.18877216E+03</pdfrwt>
<totfact> 0.55716017E+04</totfact>
</mgrwt>
</event>
<event>
 4    1  0.4025504E+000  0.3049537E+03  0.7546771E-02  0.1082790E+00
         21   -1    0    0  501  502  0.00000000000E+00  0.00000000000E+00  0.18638222566E+03  0.18638222566E+03  0.00000000000E+00 0.  1.
         21   -1    0    0  502  503 -0.00000000000E+00 -0.00000000000E+00 -0.66722408927E+03  0.66722408927E+03  0.00000000000E+00 0.  1.
          6    1    1    2  501    0 -0.19344873606E+03 -0.16014155145E+03 -0.26086837393E+02  0.30606739956E+03  0.17300000000E+03 0.  1.
         -6    1    1    2    0  503  0.19344873606E+03  0.16014155145E+03 -0.45475502621E+03  0.54753891538E+03  0.17300000000E+03 0.  1.
<mgrwt>
<rscale>  2 0.30495365E+03</rscale>
<asrwt>0</asrwt>
<pdfrwt beam="1">  1       21 0.28674189E-01 0.30495365E+03</pdfrwt>
<pdfrwt beam="2">  1       21 0.10264986E+00 0.30495365E+03</pdfrwt>
<totfact> 0.84002354E+03</totfact>
</mgrwt>
</event>
<event>
 4    1  0.4025504E+000  0.2072544E+03  0.7546771E-02  0.1143759E+00
         21   -1    0    0  503  502  0.00000000000E+00  0.00000000000E+00  0.43072943946E+02  0.43072943946E+02  0.00000000000E+00 0.  1.
         21   -1    0    0  501  503 -0.00000000000E+00 -0.00000000000E+00 -0.12145712148E+04  0.12145712148E+04  0.00000000000E+00 0.  1.
          6    1    1    2  501    0 -0.74114842401E+01  0.11388784240E+03 -0.85174212859E+03  0.87659513138E+03  0.17300000000E+03 0.  1.
         -6    1    1    2    0  502  0.74114842401E+01 -0.11388784240E+03 -0.31975614230E+03  0.38104902741E+03  0.17300000000E+03 0.  1.
<mgrwt>
<rscale>  2 0.20725436E+03</rscale>
<asrwt>0</asrwt>
<pdfrwt beam="1">  1       21 0.66266068E-02 0.20725436E+03</pdfrwt>
<pdfrwt beam="2">  1       21 0.18685711E+00 0.20725436E+03</pdfrwt>
<totfact> 0.26930399E+04</totfact>
</mgrwt>
</event>
<event>
 4    1  0.4025504E+000  0.2036132E+03  0.7546771E-02  0.1146726E+00
         21   -1    0    0  503  502  0.00000000000E+00  0.00000000000E+00  0.18760227864E+03  0.18760227864E+03  0.00000000000E+00 0. -1.
         21   -1    0    0  501  503 -0.00000000000E+00 -0.00000000000E+00 -0.28118831351E+03  0.28118831351E+03  0.00000000000E+00 0. -1.
          6    1    1    2  501    0  0.79422165563E+02 -0.72259758051E+02  0.61659592596E+02  0.21274458483E+03  0.17300000000E+03 0. -1.
         -6    1    1    2    0  502 -0.79422165563E+02  0.72259758051E+02 -0.15524562746E+03  0.25604600732E+03  0.17300000000E+03 0. -1.
<mgrwt>
<rscale>  2 0.20361324E+03</rscale>
<asrwt>0</asrwt>
<pdfrwt beam="1">  1       21 0.28861889E-01 0.20361324E+03</pdfrwt>
<pdfrwt beam="2">  1       21 0.43259741E-01 0.20361324E+03</pdfrwt>
<totfact> 0.58718202E+04</totfact>
</mgrwt>
</event>
<event>
 4    1  0.4025504E+000  0.2319005E+03  0.7546771E-02  0.1125309E+00
         21   -1    0    0  503  502  0.00000000000E+00  0.00000000000E+00  0.32787874075E+02  0.32787874075E+02  0.00000000000E+00 0. -1.
         21   -1    0    0  501  503 -0.00000000000E+00 -0.00000000000E+00 -0.18792189081E+04  0.18792189081E+04  0.00000000000E+00 0. -1.
          6    1    1    2  501    0  0.40514579898E+02 -0.14902144072E+03 -0.58225002477E+03  0.62673193019E+03  0.17300000000E+03 0. -1.
         -6    1    1    2    0  502 -0.40514579898E+02  0.14902144072E+03 -0.12641810092E+04  0.12852748519E+04  0.17300000000E+03 0. -1.
<mgrwt>
<rscale>  2 0.23190045E+03</rscale>
<asrwt>0</asrwt>
<pdfrwt beam="1">  1       21 0.50442870E-02 0.23190045E+03</pdfrwt>
<pdfrwt beam="2">  1       21 0.28911068E+00 0.23190045E+03</pdfrwt>
<totfact> 0.10057328E+04</totfact>
</mgrwt>
</event>
<event>
 4    1  0.4025504E+000  0.2123049E+03  0.7546771E-02  0.1139754E+00
         21   -1    0    0  503  502  0.00000000000E+00  0.00000000000E+00  0.90243316220E+03  0.90243316220E+03  0.00000000000E+00 0. -1.
         21   -1    0    0  501  503 -0.00000000000E+00 -0.00000000000E+00 -0.96946528357E+02  0.96946528357E+02  0.00000000000E+00 0.  1.
          6    1    1    2  501    0 -0.12040037125E+03  0.25458448392E+02  0.54820082398E+02  0.21926838218E+03  0.17300000000E+03 0.  1.
         -6    1    1    2    0  502  0.12040037125E+03 -0.25458448392E+02  0.75066655144E+03  0.78011130837E+03  0.17300000000E+03 0. -1.
<mgrwt>
<rscale>  2 0.21230493E+03</rscale>
<asrwt>0</asrwt>
<pdfrwt beam="1">  1       21 0.13883587E+00 0.21230493E+03</pdfrwt>
<pdfrwt beam="2">  1       21 0.14914851E-01 0.21230493E+03</pdfrwt>
<totfact> 0.14297985E+04</totfact>
</mgrwt>
</event>
<event>
 4    1  0.4025504E+000  0.2017910E+03  0.7546771E-02  0.1148237E+00
         21   -1    0    0  503  502  0.00000000000E+00  0.00000000000E+00  0.20843549178E+03  0.20843549178E+03  0.00000000000E+00 0. -1.
         21   -1    0    0  501  503 -0.00000000000E+00 -0.00000000000E+00 -0.69199801076E+03  0.69199801076E+03  0.00000000000E+00 0.  1.
          6    1    1    2  501    0  0.45610066818E+02 -0.93329164070E+02 -0.62318937686E+03  0.65504550262E+03  0.17300000000E+03 0.  1.
         -6    1    1    2    0  502 -0.45610066818E+02  0.93329164070E+02  0.13962685789E+03  0.24538799992E+03  0.17300000000E+03 0. -1.
<mgrwt>
<rscale>  2 0.20179101E+03</rscale>
<asrwt>0</asrwt>
<pdfrwt beam="1">  1       21 0.32066999E-01 0.20179101E+03</pdfrwt>
<pdfrwt beam="2">  1       21 0.10646123E+00 0.20179101E+03</pdfrwt>
<totfact> 0.65647771E+03</totfact>
</mgrwt>
</event>
<event>
 4    1  0.4025504E+000  0.1840992E+03  0.7546771E-02  0.1163894E+00
         21   -1    0    0  501  502  0.00000000000E+00  0.00000000000E+00  0.27912772902E+03  0.27912772902E+03  0.00000000000E+00 0. -1.
         21   -1    0    0  502  503 -0.00000000000E+00 -0.00000000000E+00 -0.13495692792E+03  0.13495692792E+03  0.00000000000E+00 0. -1.
          6    1    1    2  501    0 -0.62952642601E+02 -0.70582140740E+00  0.13765055216E+03  0.22986998043E+03  0.17300000000E+03 0. -1.
         -6    1    1    2    0  503  0.62952642601E+02  0.70582140740E+00  0.65202489434E+01  0.18421467651E+03  0.17300000000E+03 0. -1.
<mgrwt>
<rscale>  2 0.18409925E+03</rscale>
<asrwt>0</asrwt>
<pdfrwt beam="1">  1       21 0.42942728E-01 0.18409925E+03</pdfrwt>
<pdfrwt beam="2">  1       21 0.20762604E-01 0.18409925E+03</pdfrwt>
<totfact> 0.11258309E+05</totfact>
</mgrwt>
</event>
<event>
 4    1  0.4025504E+000  0.1956000E+03  0.7546771E-02  0.1153505E+00
         21   -1    0    0  501  502  0.00000000000E+00  0.00000000000E+00  0.60280699907E+03  0.60280699907E+03  0.00000000000E+00 0. -1.
         21   -1    0    0  502  503 -0.00000000000E+00 -0.00000000000E+00 -0.15437397389E+03  0.15437397389E+03  0.00000000000E+00 0.  1.
          6    1    1    2  501    0  0.39317959499E+02  0.82367763443E+02  0.51473735722E+03  0.55064861510E+03  0.17300000000E+03 0. -1.
         -6    1    1    2    0  503 -0.39317959499E+02 -0.82367763443E+02 -0.66304332052E+02  0.20653235786E+03  0.17300000000E+03 0.  1.
<mgrwt>
<rscale>  2 0.19559998E+03</rscale>
<asrwt>0</asrwt>
<pdfrwt beam="1">  1       21 0.92739537E-01 0.19559998E+03</pdfrwt>
<pdfrwt beam="2">  1       21 0.23749842E-01 0.19559998E+03</pdfrwt>
<totfact> 0.16335333E+04</totfact>
</mgrwt>
</event>
<event>
 4    1  0.4025504E+000  0.2122255E+03  0.7546771E-02  0.1139816E+00
         21   -1    0    0  503  502  0.00000000000E+00  0.00000000000E+00  0.76726975795E+02  0.76726975795E+02  0.00000000000E+00 0. -1.
         21   -1    0    0  501  503 -0.00000000000E+00 -0.00000000000E+00 -0.66790801227E+03  0.66790801227E+03  0.00000000000E+00 0.  1.
          6    1    1    2  501    0 -0.12253240330E+03 -0.98228187942E+01 -0.42516452830E+03  0.47518896636E+03  0.17300000000E+03 0.  1.
         -6    1    1    2    0  502  0.12253240330E+03  0.98228187942E+01 -0.16601650818E+03  0.26944602171E+03  0.17300000000E+03 0.  1.
<mgrwt>
<rscale>  2 0.21222553E+03</rscale>
<asrwt>0</asrwt>
<pdfrwt beam="1">  1       21 0.11804150E-01 0.21222553E+03</pdfrwt>
<pdfrwt beam="2">  1       21 0.10275508E+00 0.21222553E+03</pdfrwt>
<totfact> 0.46031947E+04</totfact>
</mgrwt>
</event>
<event>
 4    1  0.4025504E+000  0.1784551E+03  0.7546771E-02  0.1169307E+00
         21   -1    0    0  501  502  0.00000000000E+00  0.00000000000E+00  0.87249619117E+02  0.87249619117E+02  0.00000000000E+00 0. -1.
         21   -1    0    0  502  503 -0.00000000000E+00 -0.00000000000E+00 -0.58103960697E+03  0.58103960697E+03  0.00000000000E+00 0. -1.
          6    1    1    2  501    0 -0.43722107066E+02  0.23694849417E+01 -0.43145362619E+02  0.18359673042E+03  0.17300000000E+03 0. -1.
         -6    1    1    2    0  503  0.43722107066E+02 -0.23694849417E+01 -0.45064462524E+03  0.48469249567E+03  0.17300000000E+03 0. -1.
<mgrwt>
<rscale>  2 0.17845514E+03</rscale>
<asrwt>0</asrwt>
<pdfrwt beam="1">  1       21 0.13423018E-01 0.17845514E+03</pdfrwt>
<pdfrwt beam="2">  1       21 0.89390709E-01 0.17845514E+03</pdfrwt>
<totfact> 0.51560804E+04</totfact>
</mgrwt>
</event>
<event>
 4    1  0.4025504E+000  0.1805046E+03  0.7546771E-02  0.1167316E+00
         21   -1    0    0  501  502  0.00000000000E+00  0.00000000000E+00  0.33075742177E+02  0.33075742177E+02  0.00000000000E+00 0.  1.
         21   -1    0    0  502  503 -0.00000000000E+00 -0.00000000000E+00 -0.12974341538E+04  0.12974341538E+04  0.00000000000E+00 0.  1.
          6    1    1    2  501    0  0.51062839923E+02 -0.67461419234E+01 -0.30575978627E+03  0.35506474192E+03  0.17300000000E+03 0.  1.
         -6    1    1    2    0  503 -0.51062839923E+02  0.67461419234E+01 -0.95859862533E+03  0.97544515404E+03  0.17300000000E+03 0.  1.
<mgrwt>
<rscale>  2 0.18050464E+03</rscale>
<asrwt>0</asrwt>
<pdfrwt beam="1">  1       21 0.50885753E-02 0.18050464E+03</pdfrwt>
<pdfrwt beam="2">  1       21 0.19960527E+00 0.18050464E+03</pdfrwt>
<totfact> 0.35563332E+04</totfact>
</mgrwt>
</event>
<event>
 4    1  0.4025504E+000  0.1973878E+03  0.7546771E-02  0.1151962E+00
         21   -1    0    0  503  502  0.00000000000E+00  0.00000000000E+00  0.75965383228E+02  0.75965383228E+02  0.00000000000E+00 0.  1.
         21   -1    0    0  501  503 -0.00000000000E+00 -0.00000000000E+00 -0.51594752385E+03  0.51594752385E+03  0.00000000000E+00 0. -1.
          6    1    1    2  501    0 -0.59243472090E+02 -0.74317951588E+02 -0.19721113629E+03  0.27902361762E+03  0.17300000000E+03 0.  1.
         -6    1    1    2    0  502  0.59243472090E+02  0.74317951588E+02 -0.24277100434E+03  0.31288928946E+03  0.17300000000E+03 0. -1.
<mgrwt>
<rscale>  2 0.19738781E+03</rscale>
<asrwt>0</asrwt>
<pdfrwt beam="1">  1       21 0.11686982E-01 0.19738781E+03</pdfrwt>
<pdfrwt beam="2">  1       21 0.79376544E-01 0.19738781E+03</pdfrwt>
<totfact> 0.85945072E+04</totfact>
</mgrwt>
</event>
<event>
 4    1  0.4025504E+000  0.1936005E+03  0.7546771E-02  0.1155253E+00
         21   -1    0    0  501  502  0.00000000000E+00  0.00000000000E+00  0.14040457637E+04  0.14040457637E+04  0.00000000000E+00 0. -1.
         21   -1    0    0  502  503 -0.00000000000E+00 -0.00000000000E+00 -0.37413273778E+02  0.37413273778E+02  0.00000000000E+00 0.  1.
          6    1    1    2  501    0  0.32643865132E+02 -0.80539016760E+02  0.10690784381E+04  0.10864666870E+04  0.17300000000E+03 0. -1.
         -6    1    1    2    0  503 -0.32643865132E+02  0.80539016760E+02  0.29755405191E+03  0.35499235057E+03  0.17300000000E+03 0.  1.
<mgrwt>
<rscale>  2 0.19360050E+03</rscale>
<asrwt>0</asrwt>
<pdfrwt beam="1">  1       21 0.21600700E+00 0.19360050E+03</pdfrwt>
<pdfrwt beam="2">  1       21 0.57558893E-02 0.19360050E+03</pdfrwt>
<totfact> 0.22520646E+04</totfact>
</mgrwt>
</event>
<event>
 4    1  0.4025504E+000  0.1801520E+03  0.7546771E-02  0.1167656E+00
         21   -1    0    0  501  502  0.00000000000E+00  0.00000000000E+00  0.26964267807E+03  0.26964267807E+03  0.00000000000E+00 0. -1.
         21   -1    0    0  502  503 -0.00000000000E+00 -0.00000000000E+00 -0.14210148732E+03  0.14210148732E+03  0.00000000000E+00 0. -1.
          6    1    1    2  501    0  0.43328608641E+02 -0.25463220189E+02  0.14429404185E+03  0.23081489212E+03  0.17300000000E+03 0.  1.
         -6    1    1    2    0  503 -0.43328608641E+02  0.25463220189E+02 -0.16752851099E+02  0.18092927328E+03  0.17300000000E+03 0.  1.
<mgrwt>
<rscale>  2 0.18015200E+03</rscale>
<asrwt>0</asrwt>
<pdfrwt beam="1">  1       21 0.41483489E-01 0.18015200E+03</pdfrwt>
<pdfrwt beam="2">  1       21 0.21861767E-01 0.18015200E+03</pdfrwt>
<totfact> 0.10979340E+05</totfact>
</mgrwt>
</event>
<event>
 4    1  0.4025504E+000  0.2596970E+03  0.7546771E-02  0.1107325E+00
         21   -1    0    0  501  502  0.00000000000E+00  0.00000000000E+00  0.94965654205E+03  0.94965654205E+03  0.00000000000E+00 0. -1.
         21   -1    0    0  502  503 -0.00000000000E+00 -0.00000000000E+00 -0.94713906913E+02  0.94713906913E+02  0.00000000000E+00 0.  1.
          6    1    1    2  501    0 -0.16741396011E+03  0.97396539447E+02  0.68866110297E+03  0.73600043117E+03  0.17300000000E+03 0. -1.
         -6    1    1    2    0  503  0.16741396011E+03 -0.97396539447E+02  0.16628153217E+03  0.30837001780E+03  0.17300000000E+03 0.  1.
<mgrwt>
<rscale>  2 0.25969698E+03</rscale>
<asrwt>0</asrwt>
<pdfrwt beam="1">  1       21 0.14610100E+00 0.25969698E+03</pdfrwt>
<pdfrwt beam="2">  1       21 0.14571371E-01 0.25969698E+03</pdfrwt>
<totfact> 0.12687722E+04</totfact>
</mgrwt>
</event>
<event>
 4    1  0.4025504E+000  0.1965382E+03  0.7546771E-02  0.1152693E+00
         21   -1    0    0  501  502  0.00000000000E+00  0.00000000000E+00  0.40548815575E+03  0.40548815575E+03  0.00000000000E+00 0.  1.
         21   -1    0    0  502  503 -0.00000000000E+00 -0.00000000000E+00 -0.12475463029E+03  0.12475463029E+03  0.00000000000E+00 0.  1.
          6    1    1    2  501    0 -0.83838385977E+02 -0.40858115573E+02  0.11458847960E+02  0.19687195272E+03  0.17300000000E+03 0.  1.
         -6    1    1    2    0  503  0.83838385977E+02  0.40858115573E+02  0.26927467750E+03  0.33337083333E+03  0.17300000000E+03 0.  1.
<mgrwt>
<rscale>  2 0.19653819E+03</rscale>
<asrwt>0</asrwt>
<pdfrwt beam="1">  1       21 0.62382793E-01 0.19653819E+03</pdfrwt>
<pdfrwt beam="2">  1       21 0.19193020E-01 0.19653819E+03</pdfrwt>
<totfact> 0.59281701E+04</totfact>
</mgrwt>
</event>
<event>
 4    1  0.4025504E+000  0.2660385E+03  0.7546771E-02  0.1103569E+00
         21   -1    0    0  503  502  0.00000000000E+00  0.00000000000E+00  0.39382457506E+03  0.39382457506E+03  0.00000000000E+00 0. -1.
         21   -1    0    0  501  503 -0.00000000000E+00 -0.00000000000E+00 -0.23083391788E+03  0.23083391788E+03  0.00000000000E+00 0.  1.
          6    1    1    2  501    0  0.11350996268E+03  0.16722135492E+03 -0.65481992648E+02  0.27397880307E+03  0.17300000000E+03 0.  1.
         -6    1    1    2    0  502 -0.11350996268E+03 -0.16722135492E+03  0.22847264983E+03  0.35067968987E+03  0.17300000000E+03 0. -1.
<mgrwt>
<rscale>  2 0.26603852E+03</rscale>
<asrwt>0</asrwt>
<pdfrwt beam="1">  1       21 0.60588396E-01 0.26603852E+03</pdfrwt>
<pdfrwt beam="2">  1       21 0.35512910E-01 0.26603852E+03</pdfrwt>
<totfact> 0.18651456E+04</totfact>
</mgrwt>
</event>
<event>
 4    1  0.4025504E+000  0.2022848E+03  0.7546771E-02  0.1147826E+00
         21   -1    0    0  503  502  0.00000000000E+00  0.00000000000E+00  0.36339416370E+02  0.36339416370E+02  0.00000000000E+00 0.  1.
         21   -1    0    0  501  503 -0.00000000000E+00 -0.00000000000E+00 -0.16461650998E+04  0.16461650998E+04  0.00000000000E+00 0. -1.
          6    1    1    2  501    0  0.27290227877E+02 -0.10121943652E+03 -0.12777910077E+04  0.12937035944E+04  0.17300000000E+03 0. -1.
         -6    1    1    2    0  502 -0.27290227877E+02  0.10121943652E+03 -0.33203467578E+03  0.38880092179E+03  0.17300000000E+03 0.  1.
<mgrwt>
<rscale>  2 0.20228478E+03</rscale>
<asrwt>0</asrwt>
<pdfrwt beam="1">  1       21 0.55906797E-02 0.20228478E+03</pdfrwt>
<pdfrwt beam="2">  1       21 0.25325616E+00 0.20228478E+03</pdfrwt>
<totfact> 0.14032203E+04</totfact>
</mgrwt>
</event>
<event>
 4    1  0.4025504E+000  0.1732014E+03  0.7546771E-02  0.1174550E+00
         21   -1    0    0  501  502  0.00000000000E+00  0.00000000000E+00  0.59452426075E+02  0.59452426075E+02  0.00000000000E+00 0. -1.
         21   -1    0    0  502  503 -0.00000000000E+00 -0.00000000000E+00 -0.52794560829E+03  0.52794560829E+03  0.00000000000E+00 0. -1.
          6    1    1    2  501    0 -0.22411577896E+01 -0.80440853834E+01 -0.17246468800E+03  0.24442340048E+03  0.17300000000E+03 0. -1.
         -6    1    1    2    0  503  0.22411577896E+01  0.80440853834E+01 -0.29602849422E+03  0.34297463388E+03  0.17300000000E+03 0. -1.
<mgrwt>
<rscale>  2 0.17320141E+03</rscale>
<asrwt>0</asrwt>
<pdfrwt beam="1">  1       21 0.91465269E-02 0.17320141E+03</pdfrwt>
<pdfrwt beam="2">  1       21 0.81222403E-01 0.17320141E+03</pdfrwt>
<totfact> 0.12709629E+05</totfact>
</mgrwt>
</event>
<event>
 4    1  0.4025504E+000  0.2935314E+03  0.7546771E-02  0.1088520E+00
         21   -1    0    0  501  502  0.00000000000E+00  0.00000000000E+00  0.69419219862E+03  0.69419219862E+03  0.00000000000E+00 0.  1.
         21   -1    0    0  502  503 -0.00000000000E+00 -0.00000000000E+00 -0.12424629739E+03  0.12424629739E+03  0.00000000000E+00 0. -1.
          6    1    1    2  501    0 -0.18934327838E+03  0.14276145228E+03  0.29819928053E+03  0.41842982713E+03  0.17300000000E+03 0. -1.
         -6    1    1    2    0  503  0.18934327838E+03 -0.14276145228E+03  0.27174662070E+03  0.40000866889E+03  0.17300000000E+03 0.  1.
<mgrwt>
<rscale>  2 0.29353145E+03</rscale>
<asrwt>0</asrwt>
<pdfrwt beam="1">  1       21 0.10679880E+00 0.29353145E+03</pdfrwt>
<pdfrwt beam="2">  1       21 0.19114815E-01 0.29353145E+03</pdfrwt>
<totfact> 0.16684320E+04</totfact>
</mgrwt>
</event>
<event>
 4    1  0.4025504E+000  0.2353863E+03  0.7546771E-02  0.1122905E+00
         21   -1    0    0  503  502  0.00000000000E+00  0.00000000000E+00  0.22067795664E+03  0.22067795664E+03  0.00000000000E+00 0.  1.
         21   -1    0    0  501  503 -0.00000000000E+00 -0.00000000000E+00 -0.27336759101E+03  0.27336759101E+03  0.00000000000E+00 0. -1.
          6    1    1    2  501    0 -0.63145653407E+02  0.14659587979E+03 -0.96886111189E+02  0.25454595667E+03  0.17300000000E+03 0. -1.
         -6    1    1    2    0  502  0.63145653407E+02 -0.14659587979E+03  0.44196476826E+02  0.23949959098E+03  0.17300000000E+03 0.  1.
<mgrwt>
<rscale>  2 0.23538633E+03</rscale>
<asrwt>0</asrwt>
<pdfrwt beam="1">  1       21 0.33950455E-01 0.23538633E+03</pdfrwt>
<pdfrwt beam="2">  1       21 0.42056552E-01 0.23538633E+03</pdfrwt>
<totfact> 0.44575772E+04</totfact>
</mgrwt>
</event>
<event>
 4    1  0.4025504E+000  0.1858822E+03  0.7546771E-02  0.1162229E+00
         21   -1    0    0  503  502  0.00000000000E+00  0.00000000000E+00  0.10767454408E+04  0.10767454408E+04  0.00000000000E+00 0.  1.
         21   -1    0    0  501  503 -0.00000000000E+00 -0.00000000000E+00 -0.27279530408E+03  0.27279530408E+03  0.00000000000E+00 0.  1.
          6    1    1    2  501    0  0.65972211480E+02  0.16457975868E+02 -0.23186671198E+03  0.29717733726E+03  0.17300000000E+03 0.  1.
         -6    1    1    2    0  502 -0.65972211480E+02 -0.16457975868E+02  0.10358168487E+04  0.10523634077E+04  0.17300000000E+03 0.  1.
<mgrwt>
<rscale>  2 0.18588221E+03</rscale>
<asrwt>0</asrwt>
<pdfrwt beam="1">  1       21 0.16565314E+00 0.18588221E+03</pdfrwt>
<pdfrwt beam="2">  1       21 0.41968509E-01 0.18588221E+03</pdfrwt>
<totfact> 0.12607821E+03</totfact>
</mgrwt>
</event>
<event>
 4    1  0.4025504E+000  0.2192131E+03  0.7546771E-02  0.1134471E+00
         21   -1    0    0  501  502  0.00000000000E+00  0.00000000000E+00  0.45159678257E+02  0.45159678257E+02  0.00000000000E+00 0. -1.
         21   -1    0    0  502  503 -0.00000000000E+00 -0.00000000000E+00 -0.11324798047E+04  0.11324798047E+04  0.00000000000E+00 0. -1.
          6    1    1    2  501    0  0.13457034810E+03  0.40263700531E+01 -0.39897200044E+03  0.45522856609E+03  0.17300000000E+03 0. -1.
         -6    1    1    2    0  503 -0.13457034810E+03 -0.40263700531E+01 -0.68834812597E+03  0.72241091684E+03  0.17300000000E+03 0. -1.
<mgrwt>
<rscale>  2 0.21921312E+03</rscale>
<asrwt>0</asrwt>
<pdfrwt beam="1">  1       21 0.69476436E-02 0.21921312E+03</pdfrwt>
<pdfrwt beam="2">  1       21 0.17422764E+00 0.21921312E+03</pdfrwt>
<totfact> 0.30032047E+04</totfact>
</mgrwt>
</event>
<event>
 4    1  0.4025504E+000  0.2140958E+03  0.7546771E-02  0.1138363E+00
         21   -1    0    0  501  502  0.00000000000E+00  0.00000000000E+00  0.44072621610E+03  0.44072621610E+03  0.00000000000E+00 0. -1.
         21   -1    0    0  502  503 -0.00000000000E+00 -0.00000000000E+00 -0.17208740958E+03  0.17208740958E+03  0.00000000000E+00 0. -1.
          6    1    1    2  501    0 -0.34192044768E+02  0.12140396706E+03  0.32704813916E+03  0.39089321364E+03  0.17300000000E+03 0. -1.
         -6    1    1    2    0  503  0.34192044768E+02 -0.12140396706E+03 -0.58409332642E+02  0.22192041205E+03  0.17300000000E+03 0. -1.
<mgrwt>
<rscale>  2 0.21409582E+03</rscale>
<asrwt>0</asrwt>
<pdfrwt beam="1">  1       21 0.67804033E-01 0.21409582E+03</pdfrwt>
<pdfrwt beam="2">  1       21 0.26474986E-01 0.21409582E+03</pdfrwt>
<totfact> 0.26652062E+04</totfact>
</mgrwt>
</event>
<event>
 4    1  0.4025504E+000  0.1873781E+03  0.7546771E-02  0.1160848E+00
         21   -1    0    0  503  502  0.00000000000E+00  0.00000000000E+00  0.19992645595E+03  0.19992645595E+03  0.00000000000E+00 0.  1.
         21   -1    0    0  501  503 -0.00000000000E+00 -0.00000000000E+00 -0.18209838639E+04  0.18209838639E+04  0.00000000000E+00 0.  1.
          6    1    1    2  501    0  0.46548521948E+02  0.54907129594E+02 -0.17710241768E+04  0.17809090916E+04  0.17300000000E+03 0.  1.
         -6    1    1    2    0  502 -0.46548521948E+02 -0.54907129594E+02  0.14996676888E+03  0.24000122821E+03  0.17300000000E+03 0.  1.
<mgrwt>
<rscale>  2 0.18737811E+03</rscale>
<asrwt>0</asrwt>
<pdfrwt beam="1">  1       21 0.30757915E-01 0.18737811E+03</pdfrwt>
<pdfrwt beam="2">  1       21 0.28015137E+00 0.18737811E+03</pdfrwt>
<totfact> 0.45419657E+02</totfact>
</mgrwt>
</event>
<event>
 4    1  0.4025504E+000  0.2323780E+03  0.7546771E-02  0.1124977E+00
         21   -1    0    0  503  502  0.00000000000E+00  0.00000000000E+00  0.43202670593E+02  0.43202670593E+02  0.00000000000E+00 0.  1.
         21   -1    0    0  501  503 -0.00000000000E+00 -0.00000000000E+00 -0.16681857788E+04  0.16681857788E+04  0.00000000000E+00 0.  1.
          6    1    1    2  501    0 -0.12134696606E+03 -0.96671943523E+02 -0.12409675927E+04  0.12625371745E+04  0.17300000000E+03 0.  1.
         -6    1    1    2    0  502  0.12134696606E+03  0.96671943523E+02 -0.38401551555E+03  0.44885127494E+03  0.17300000000E+03 0.  1.
<mgrwt>
<rscale>  2 0.23237803E+03</rscale>
<asrwt>0</asrwt>
<pdfrwt beam="1">  1       21 0.66465644E-02 0.23237803E+03</pdfrwt>
<pdfrwt beam="2">  1       21 0.25664398E+00 0.23237803E+03</pdfrwt>
<totfact> 0.96984326E+03</totfact>
</mgrwt>
</event>
<event>
 4    1  0.4025504E+000  0.1764984E+03  0.7546771E-02  0.1171236E+00
         21   -1    0    0  501  502  0.00000000000E+00  0.00000000000E+00  0.16157573538E+04  0.16157573538E+04  0.00000000000E+00 0. -1.
         21   -1    0    0  502  503 -0.00000000000E+00 -0.00000000000E+00 -0.19672776674E+02  0.19672776674E+02  0.00000000000E+00 0. -1.
          6    1    1    2  501    0  0.24344089329E+02 -0.25100904548E+02  0.68248955489E+03  0.70494232575E+03  0.17300000000E+03 0. -1.
         -6    1    1    2    0  503 -0.24344089329E+02  0.25100904548E+02  0.91359502226E+03  0.93048780475E+03  0.17300000000E+03 0. -1.
<mgrwt>
<rscale>  2 0.17649841E+03</rscale>
<asrwt>0</asrwt>
<pdfrwt beam="1">  1       21 0.24857795E+00 0.17649841E+03</pdfrwt>
<pdfrwt beam="2">  1       21 0.30265823E-02 0.17649841E+03</pdfrwt>
<totfact> 0.42824113E+04</totfact>
</mgrwt>
</event>
<event>
 4    1  0.4025504E+000  0.2080335E+03  0.7546771E-02  0.1143133E+00
         21   -1    0    0  503  502  0.00000000000E+00  0.00000000000E+00  0.29731310852E+03  0.29731310852E+03  0.00000000000E+00 0. -1.
         21   -1    0    0  501  503 -0.00000000000E+00 -0.00000000000E+00 -0.17030930904E+03  0.17030930904E+03  0.00000000000E+00 0. -1.
          6    1    1    2  501    0 -0.11542034128E+03  0.52048843696E+01 -0.25622514172E+02  0.20960548475E+03  0.17300000000E+03 0. -1.
         -6    1    1    2    0  502  0.11542034128E+03 -0.52048843696E+01  0.15262631365E+03  0.25801693282E+03  0.17300000000E+03 0. -1.
<mgrwt>
<rscale>  2 0.20803352E+03</rscale>
<asrwt>0</asrwt>
<pdfrwt beam="1">  1       21 0.45740478E-01 0.20803352E+03</pdfrwt>
<pdfrwt beam="2">  1       21 0.26201432E-01 0.20803352E+03</pdfrwt>
<totfact> 0.62999126E+04</totfact>
</mgrwt>
</event>
<event>
 4    1  0.4025504E+000  0.2576226E+03  0.7546771E-02  0.1108580E+00
         21   -1    0    0  503  502  0.00000000000E+00  0.00000000000E+00  0.27772700639E+03  0.27772700639E+03  0.00000000000E+00 0.  1.
         21   -1    0    0  501  503 -0.00000000000E+00 -0.00000000000E+00 -0.23905536339E+03  0.23905536339E+03  0.00000000000E+00 0.  1.
          6    1    1    2  501    0  0.17367998582E+03 -0.79219131844E+02  0.14555647286E+02  0.25803347688E+03  0.17300000000E+03 0.  1.
         -6    1    1    2    0  502 -0.17367998582E+03  0.79219131844E+02  0.24115995709E+02  0.25874889289E+03  0.17300000000E+03 0.  1.
<mgrwt>
<rscale>  2 0.25762261E+03</rscale>
<asrwt>0</asrwt>
<pdfrwt beam="1">  1       21 0.42727232E-01 0.25762261E+03</pdfrwt>
<pdfrwt beam="2">  1       21 0.36777748E-01 0.25762261E+03</pdfrwt>
<totfact> 0.36435772E+04</totfact>
</mgrwt>
</event>
<event>
 4    1  0.4025504E+000  0.2018520E+03  0.7546771E-02  0.1148186E+00
         21   -1    0    0  503  502  0.00000000000E+00  0.00000000000E+00  0.29640580956E+03  0.29640580956E+03  0.00000000000E+00 0. -1.
         21   -1    0    0  501  503 -0.00000000000E+00 -0.00000000000E+00 -0.16189956975E+03  0.16189956975E+03  0.00000000000E+00 0. -1.
          6    1    1    2  501    0 -0.95160862212E+02 -0.41948245923E+02 -0.21777587347E+02  0.20302341821E+03  0.17300000000E+03 0. -1.
         -6    1    1    2    0  502  0.95160862212E+02  0.41948245923E+02  0.15628382715E+03  0.25528196110E+03  0.17300000000E+03 0. -1.
<mgrwt>
<rscale>  2 0.20185204E+03</rscale>
<asrwt>0</asrwt>
<pdfrwt beam="1">  1       21 0.45600894E-01 0.20185204E+03</pdfrwt>
<pdfrwt beam="2">  1       21 0.24907626E-01 0.20185204E+03</pdfrwt>
<totfact> 0.70050905E+04</totfact>
</mgrwt>
</event>
<event>
 4    1  0.4025504E+000  0.2347115E+03  0.7546771E-02  0.1123367E+00
         21   -1    0    0  501  502  0.00000000000E+00  0.00000000000E+00  0.50663978420E+02  0.50663978420E+02  0.00000000000E+00 0.  1.
         21   -1    0    0  502  503 -0.00000000000E+00 -0.00000000000E+00 -0.11171427436E+04  0.11171427436E+04  0.00000000000E+00 0.  1.
          6    1    1    2  501    0 -0.14696083092E+03  0.59690930298E+02 -0.43788523651E+03  0.49682287924E+03  0.17300000000E+03 0.  1.
         -6    1    1    2    0  503  0.14696083092E+03 -0.59690930298E+02 -0.62859352867E+03  0.67098384278E+03  0.17300000000E+03 0.  1.
<mgrwt>
<rscale>  2 0.23471151E+03</rscale>
<asrwt>0</asrwt>
<pdfrwt beam="1">  1       21 0.77944575E-02 0.23471151E+03</pdfrwt>
<pdfrwt beam="2">  1       21 0.17186813E+00 0.23471151E+03</pdfrwt>
<totfact> 0.25306413E+04</totfact>
</mgrwt>
</event>
<event>
 4    1  0.4025504E+000  0.2162951E+03  0.7546771E-02  0.1136676E+00
         21   -1    0    0  503  502  0.00000000000E+00  0.00000000000E+00  0.14837005651E+04  0.14837005651E+04  0.00000000000E+00 0.  1.
         21   -1    0    0  501  503 -0.00000000000E+00 -0.00000000000E+00 -0.32172763045E+02  0.32172763045E+02  0.00000000000E+00 0.  1.
          6    1    1    2  501    0 -0.11105464222E+03  0.67241785573E+02  0.61877435378E+03  0.65548859043E+03  0.17300000000E+03 0.  1.
         -6    1    1    2    0  502  0.11105464222E+03 -0.67241785573E+02  0.83275344828E+03  0.86038473772E+03  0.17300000000E+03 0.  1.
<mgrwt>
<rscale>  2 0.21629515E+03</rscale>
<asrwt>0</asrwt>
<pdfrwt beam="1">  1       21 0.22826157E+00 0.21629515E+03</pdfrwt>
<pdfrwt beam="2">  1       21 0.49496570E-02 0.21629515E+03</pdfrwt>
<totfact> 0.24072220E+04</totfact>
</mgrwt>
</event>
<event>
 4    1  0.4025504E+000  0.2016021E+03  0.7546771E-02  0.1148394E+00
         21   -1    0    0  503  502  0.00000000000E+00  0.00000000000E+00  0.32603232522E+03  0.32603232522E+03  0.00000000000E+00 0.  1.
         21   -1    0    0  501  503 -0.00000000000E+00 -0.00000000000E+00 -0.12919939117E+03  0.12919939117E+03  0.00000000000E+00 0.  1.
          6    1    1    2  501    0  0.82107642179E+02 -0.63029632599E+02  0.55754556697E+02  0.20916971598E+03  0.17300000000E+03 0.  1.
         -6    1    1    2    0  502 -0.82107642179E+02  0.63029632599E+02  0.14107837735E+03  0.24606200041E+03  0.17300000000E+03 0.  1.
<mgrwt>
<rscale>  2 0.20160208E+03</rscale>
<asrwt>0</asrwt>
<pdfrwt beam="1">  1       21 0.50158819E-01 0.20160208E+03</pdfrwt>
<pdfrwt beam="2">  1       21 0.19876830E-01 0.20160208E+03</pdfrwt>
<totfact> 0.88057903E+04</totfact>
</mgrwt>
</event>
<event>
 4    1  0.4025504E+000  0.1982391E+03  0.7546771E-02  0.1151233E+00
         21   -1    0    0  501  502  0.00000000000E+00  0.00000000000E+00  0.60403749398E+03  0.60403749398E+03  0.00000000000E+00 0. -1.
         21   -1    0    0  502  503 -0.00000000000E+00 -0.00000000000E+00 -0.10334676701E+03  0.10334676701E+03  0.00000000000E+00 0. -1.
          6    1    1    2  501    0 -0.71941780359E+02  0.64761936978E+02  0.35066774524E+02  0.20131668316E+03  0.17300000000E+03 0. -1.
         -6    1    1    2    0  503  0.71941780359E+02 -0.64761936978E+02  0.46562395244E+03  0.50606757783E+03  0.17300000000E+03 0. -1.
<mgrwt>
<rscale>  2 0.19823907E+03</rscale>
<asrwt>0</asrwt>
<pdfrwt beam="1">  1       21 0.92928843E-01 0.19823907E+03</pdfrwt>
<pdfrwt beam="2">  1       21 0.15899503E-01 0.19823907E+03</pdfrwt>
<totfact> 0.34294907E+04</totfact>
</mgrwt>
</event>
<event>
 4    1  0.4025504E+000  0.1901728E+03  0.7546771E-02  0.1158306E+00
         21   -1    0    0  503  502  0.00000000000E+00  0.00000000000E+00  0.10882052722E+03  0.10882052722E+03  0.00000000000E+00 0.  1.
         21   -1    0    0  501  503 -0.00000000000E+00 -0.00000000000E+00 -0.33336305290E+03  0.33336305290E+03  0.00000000000E+00 0. -1.
          6    1    1    2  501    0 -0.11571941978E+02  0.78120403335E+02 -0.10003946740E+03  0.21488043721E+03  0.17300000000E+03 0.  1.
         -6    1    1    2    0  502  0.11571941978E+02 -0.78120403335E+02 -0.12450305828E+03  0.22730314292E+03  0.17300000000E+03 0. -1.
<mgrwt>
<rscale>  2 0.19017284E+03</rscale>
<asrwt>0</asrwt>
<pdfrwt beam="1">  1       21 0.16741620E-01 0.19017284E+03</pdfrwt>
<pdfrwt beam="2">  1       21 0.51286624E-01 0.19017284E+03</pdfrwt>
<totfact> 0.11605486E+05</totfact>
</mgrwt>
</event>
<event>
 4    1  0.4025504E+000  0.2665189E+03  0.7546771E-02  0.1103289E+00
         21   -1    0    0  503  502  0.00000000000E+00  0.00000000000E+00  0.69734843352E+03  0.69734843352E+03  0.00000000000E+00 0. -1.
         21   -1    0    0  501  503 -0.00000000000E+00 -0.00000000000E+00 -0.10236279630E+03  0.10236279630E+03  0.00000000000E+00 0. -1.
          6    1    1    2  501    0 -0.54105498266E+02  0.19538661697E+03  0.26948587823E+03  0.37901843438E+03  0.17300000000E+03 0. -1.
         -6    1    1    2    0  502  0.54105498266E+02 -0.19538661697E+03  0.32549975899E+03  0.42069279544E+03  0.17300000000E+03 0. -1.
<mgrwt>
<rscale>  2 0.26651892E+03</rscale>
<asrwt>0</asrwt>
<pdfrwt beam="1">  1       21 0.10728437E+00 0.26651892E+03</pdfrwt>
<pdfrwt beam="2">  1       21 0.15748123E-01 0.26651892E+03</pdfrwt>
<totfact> 0.23943268E+04</totfact>
</mgrwt>
</event>
<event>
 4    1  0.4025504E+000  0.1823025E+03  0.7546771E-02  0.1165593E+00
         21   -1    0    0  503  502  0.00000000000E+00  0.00000000000E+00  0.69782467111E+02  0.69782467111E+02  0.00000000000E+00 0.  1.
         21   -1    0    0  501  503 -0.00000000000E+00 -0.00000000000E+00 -0.93446216349E+03  0.93446216349E+03  0.00000000000E+00 0.  1.
          6    1    1    2  501    0 -0.29874836990E+02 -0.49119275501E+02 -0.78394875614E+03  0.80486636242E+03  0.17300000000E+03 0.  1.
         -6    1    1    2    0  502  0.29874836990E+02  0.49119275501E+02 -0.80730940248E+02  0.19937826818E+03  0.17300000000E+03 0.  1.
<mgrwt>
<rscale>  2 0.18230252E+03</rscale>
<asrwt>0</asrwt>
<pdfrwt beam="1">  1       21 0.10735764E-01 0.18230252E+03</pdfrwt>
<pdfrwt beam="2">  1       21 0.14376341E+00 0.18230252E+03</pdfrwt>
<totfact> 0.24062742E+04</totfact>
</mgrwt>
</event>
<event>
 4    1  0.4025504E+000  0.1816499E+03  0.7546771E-02  0.1166216E+00
         21   -1    0    0  503  502  0.00000000000E+00  0.00000000000E+00  0.27410723228E+03  0.27410723228E+03  0.00000000000E+00 0. -1.
         21   -1    0    0  501  503 -0.00000000000E+00 -0.00000000000E+00 -0.12513542961E+03  0.12513542961E+03  0.00000000000E+00 0. -1.
          6    1    1    2  501    0 -0.51831035048E+02 -0.19525346429E+02  0.35566406567E+02  0.18509906705E+03  0.17300000000E+03 0. -1.
         -6    1    1    2    0  502  0.51831035048E+02  0.19525346429E+02  0.11340539610E+03  0.21414359484E+03  0.17300000000E+03 0. -1.
<mgrwt>
<rscale>  2 0.18164993E+03</rscale>
<asrwt>0</asrwt>
<pdfrwt beam="1">  1       21 0.42170343E-01 0.18164993E+03</pdfrwt>
<pdfrwt beam="2">  1       21 0.19251605E-01 0.18164993E+03</pdfrwt>
<totfact> 0.13461721E+05</totfact>
</mgrwt>
</event>
<event>
 4    1  0.4025504E+000  0.2821992E+03  0.7546771E-02  0.1094494E+00
         21   -1    0    0  501  502  0.00000000000E+00  0.00000000000E+00  0.19523973890E+03  0.19523973890E+03  0.00000000000E+00 0. -1.
         21   -1    0    0  502  503 -0.00000000000E+00 -0.00000000000E+00 -0.49156123250E+03  0.49156123250E+03  0.00000000000E+00 0. -1.
          6    1    1    2  501    0 -0.21877327127E+03 -0.42960742985E+02 -0.64836192415E+01  0.28227363848E+03  0.17300000000E+03 0. -1.
         -6    1    1    2    0  503  0.21877327127E+03  0.42960742985E+02 -0.28983787437E+03  0.40452733292E+03  0.17300000000E+03 0. -1.
<mgrwt>
<rscale>  2 0.28219917E+03</rscale>
<asrwt>0</asrwt>
<pdfrwt beam="1">  1       21 0.30036883E-01 0.28219917E+03</pdfrwt>
<pdfrwt beam="2">  1       21 0.75624804E-01 0.28219917E+03</pdfrwt>
<totfact> 0.15809056E+04</totfact>
</mgrwt>
</event>
<event>
 4    1  0.4025504E+000  0.3496218E+03  0.7546771E-02  0.1062770E+00
         21   -1    0    0  501  502  0.00000000000E+00  0.00000000000E+00  0.70235178875E+03  0.70235178875E+03  0.00000000000E+00 0. -1.
         21   -1    0    0  502  503 -0.00000000000E+00 -0.00000000000E+00 -0.22891095717E+03  0.22891095717E+03  0.00000000000E+00 0.  1.
          6    1    1    2  501    0 -0.27239323955E+03  0.13456712653E+03  0.46469740387E+03  0.58153165490E+03  0.17300000000E+03 0.  1.
         -6    1    1    2    0  503  0.27239323955E+03 -0.13456712653E+03  0.87434277091E+01  0.34973109101E+03  0.17300000000E+03 0.  1.
<mgrwt>
<rscale>  2 0.34962178E+03</rscale>
<asrwt>0</asrwt>
<pdfrwt beam="1">  1       21 0.10805412E+00 0.34962178E+03</pdfrwt>
<pdfrwt beam="2">  1       21 0.35217071E-01 0.34962178E+03</pdfrwt>
<totfact> 0.48274406E+03</totfact>
</mgrwt>
</event>
<event>
 4    1  0.4025504E+000  0.1807895E+03  0.7546771E-02  0.1167041E+00
         21   -1    0    0  503  502  0.00000000000E+00  0.00000000000E+00  0.33055943902E+03  0.33055943902E+03  0.00000000000E+00 0. -1.
         21   -1    0    0  501  503 -0.00000000000E+00 -0.00000000000E+00 -0.10141997549E+03  0.10141997549E+03  0.00000000000E+00 0. -1.
          6    1    1    2  501    0  0.44857931617E+02  0.27268953123E+02  0.14876889484E+03  0.23413033530E+03  0.17300000000E+03 0. -1.
         -6    1    1    2    0  502 -0.44857931617E+02 -0.27268953123E+02  0.80370568684E+02  0.19784907921E+03  0.17300000000E+03 0. -1.
<mgrwt>
<rscale>  2 0.18078946E+03</rscale>
<asrwt>0</asrwt>
<pdfrwt beam="1">  1       21 0.50855298E-01 0.18078946E+03</pdfrwt>
<pdfrwt beam="2">  1       21 0.15603073E-01 0.18078946E+03</pdfrwt>
<totfact> 0.13481003E+05</totfact>
</mgrwt>
</event>
<event>
 4    1  0.4025504E+000  0.2011063E+03  0.7546771E-02  0.1148809E+00
         21   -1    0    0  501  502  0.00000000000E+00  0.00000000000E+00  0.85197307606E+02  0.85197307606E+02  0.00000000000E+00 0. -1.
         21   -1    0    0  502  503 -0.00000000000E+00 -0.00000000000E+00 -0.48655611583E+03  0.48655611583E+03  0.00000000000E+00 0.  1.
          6    1    1    2  501    0  0.66807616657E+02 -0.77791225403E+02 -0.15606646297E+03  0.25455937079E+03  0.17300000000E+03 0. -1.
         -6    1    1    2    0  503 -0.66807616657E+02  0.77791225403E+02 -0.24529234525E+03  0.31719405264E+03  0.17300000000E+03 0. -1.
<mgrwt>
<rscale>  2 0.20110627E+03</rscale>
<asrwt>0</asrwt>
<pdfrwt beam="1">  1       21 0.13107278E-01 0.20110627E+03</pdfrwt>
<pdfrwt beam="2">  1       21 0.74854788E-01 0.20110627E+03</pdfrwt>
<totfact> 0.79676462E+04</totfact>
</mgrwt>
</event>
<event>
 4    1  0.4025504E+000  0.1904209E+03  0.7546771E-02  0.1158082E+00
         21   -1    0    0  501  502  0.00000000000E+00  0.00000000000E+00  0.28493987989E+03  0.28493987989E+03  0.00000000000E+00 0. -1.
         21   -1    0    0  502  503 -0.00000000000E+00 -0.00000000000E+00 -0.30109638604E+03  0.30109638604E+03  0.00000000000E+00 0. -1.
          6    1    1    2  501    0  0.14324622647E+02  0.78268314908E+02  0.21456927466E+03  0.28687993579E+03  0.17300000000E+03 0. -1.
         -6    1    1    2    0  503 -0.14324622647E+02 -0.78268314908E+02 -0.23072578080E+03  0.29915633014E+03  0.17300000000E+03 0. -1.
<mgrwt>
<rscale>  2 0.19042091E+03</rscale>
<asrwt>0</asrwt>
<pdfrwt beam="1">  1       21 0.43836905E-01 0.19042091E+03</pdfrwt>
<pdfrwt beam="2">  1       21 0.46322521E-01 0.19042091E+03</pdfrwt>
<totfact> 0.22351452E+04</totfact>
</mgrwt>
</event>
<event>
 4    1  0.4025504E+000  0.1893154E+03  0.7546771E-02  0.1159080E+00
         21   -1    0    0  501  502  0.00000000000E+00  0.00000000000E+00  0.66586430406E+02  0.66586430406E+02  0.00000000000E+00 0. -1.
         21   -1    0    0  502  503 -0.00000000000E+00 -0.00000000000E+00 -0.69592920029E+03  0.69592920029E+03  0.00000000000E+00 0. -1.
          6    1    1    2  501    0 -0.49897177478E+02 -0.58494351377E+02 -0.13319509719E+03  0.23147624366E+03  0.17300000000E+03 0. -1.
         -6    1    1    2    0  503  0.49897177478E+02  0.58494351377E+02 -0.49614767269E+03  0.53103938703E+03  0.17300000000E+03 0. -1.
<mgrwt>
<rscale>  2 0.18931539E+03</rscale>
<asrwt>0</asrwt>
<pdfrwt beam="1">  1       21 0.10244066E-01 0.18931539E+03</pdfrwt>
<pdfrwt beam="2">  1       21 0.10706603E+00 0.18931539E+03</pdfrwt>
<totfact> 0.54299998E+04</totfact>
</mgrwt>
</event>
<event>
 4    1  0.4025504E+000  0.2501243E+03  0.7546771E-02  0.1113226E+00
         21   -1    0    0  503  502  0.00000000000E+00  0.00000000000E+00  0.48427904734E+02  0.48427904734E+02  0.00000000000E+00 0.  1.
         21   -1    0    0  501  503 -0.00000000000E+00 -0.00000000000E+00 -0.13980586978E+04  0.13980586978E+04  0.00000000000E+00 0.  1.
          6    1    1    2  501    0 -0.16059338629E+03  0.82721879370E+02 -0.47548282420E+03  0.53725790934E+03  0.17300000000E+03 0.  1.
         -6    1    1    2    0  502  0.16059338629E+03 -0.82721879370E+02 -0.87414796889E+03  0.90922869321E+03  0.17300000000E+03 0.  1.
<mgrwt>
<rscale>  2 0.25012426E+03</rscale>
<asrwt>0</asrwt>
<pdfrwt beam="1">  1       21 0.74504463E-02 0.25012426E+03</pdfrwt>
<pdfrwt beam="2">  1       21 0.21508597E+00 0.25012426E+03</pdfrwt>
<totfact> 0.14031174E+04</totfact>
</mgrwt>
</event>
<event>
 4    1  0.4025504E+000  0.1742904E+03  0.7546771E-02  0.1173446E+00
         21   -1    0    0  503  502  0.00000000000E+00  0.00000000000E+00  0.66469106740E+03  0.66469106740E+03  0.00000000000E+00 0.  1.
         21   -1    0    0  501  503 -0.00000000000E+00 -0.00000000000E+00 -0.71868749597E+02  0.71868749597E+02  0.00000000000E+00 0.  1.
          6    1    1    2  501    0 -0.21139417620E+02  0.11294270029E+01  0.74187716925E+02  0.18942272283E+03  0.17300000000E+03 0.  1.
         -6    1    1    2    0  502  0.21139417620E+02 -0.11294270029E+01  0.51863460088E+03  0.54713709416E+03  0.17300000000E+03 0.  1.
<mgrwt>
<rscale>  2 0.17429042E+03</rscale>
<asrwt>0</asrwt>
<pdfrwt beam="1">  1       21 0.10226016E+00 0.17429042E+03</pdfrwt>
<pdfrwt beam="2">  1       21 0.11056731E-01 0.17429042E+03</pdfrwt>
<totfact> 0.53345784E+04</totfact>
</mgrwt>
</event>
<event>
 4    1  0.4025504E+000  0.2077726E+03  0.7546771E-02  0.1143342E+00
         21   -1    0    0  501  502  0.00000000000E+00  0.00000000000E+00  0.21483638142E+03  0.21483638142E+03  0.00000000000E+00 0.  1.
         21   -1    0    0  502  503 -0.00000000000E+00 -0.00000000000E+00 -0.25999431948E+03  0.25999431948E+03  0.00000000000E+00 0. -1.
          6    1    1    2  501    0  0.11484848922E+03  0.70917420297E+01 -0.13572738891E+03  0.24817613177E+03  0.17300000000E+03 0. -1.
         -6    1    1    2    0  503 -0.11484848922E+03 -0.70917420297E+01  0.90569450853E+02  0.22665456913E+03  0.17300000000E+03 0.  1.
<mgrwt>
<rscale>  2 0.20777264E+03</rscale>
<asrwt>0</asrwt>
<pdfrwt beam="1">  1       21 0.33051751E-01 0.20777264E+03</pdfrwt>
<pdfrwt beam="2">  1       21 0.39999126E-01 0.20777264E+03</pdfrwt>
<totfact> 0.52707340E+04</totfact>
</mgrwt>
</event>
<event>
 4    1  0.4025504E+000  0.3395286E+03  0.7546771E-02  0.1066997E+00
         21   -1    0    0  501  502  0.00000000000E+00  0.00000000000E+00  0.50100596741E+03  0.50100596741E+03  0.00000000000E+00 0.  1.
         21   -1    0    0  502  503 -0.00000000000E+00 -0.00000000000E+00 -0.25972976424E+03  0.25972976424E+03  0.00000000000E+00 0. -1.
          6    1    1    2  501    0 -0.72065040819E+02 -0.28312058823E+03  0.24911762154E+03  0.42111664292E+03  0.17300000000E+03 0.  1.
         -6    1    1    2    0  503  0.72065040819E+02  0.28312058823E+03 -0.78414183738E+01  0.33961908873E+03  0.17300000000E+03 0. -1.
<mgrwt>
<rscale>  2 0.33952855E+03</rscale>
<asrwt>0</asrwt>
<pdfrwt beam="1">  1       21 0.77077841E-01 0.33952855E+03</pdfrwt>
<pdfrwt beam="2">  1       21 0.39958425E-01 0.33952855E+03</pdfrwt>
<totfact> 0.83350674E+03</totfact>
</mgrwt>
</event>
<event>
 4    1  0.4025504E+000  0.1764197E+03  0.7546771E-02  0.1171314E+00
         21   -1    0    0  501  502  0.00000000000E+00  0.00000000000E+00  0.33812285852E+03  0.33812285852E+03  0.00000000000E+00 0. -1.
         21   -1    0    0  502  503 -0.00000000000E+00 -0.00000000000E+00 -0.20353504580E+03  0.20353504580E+03  0.00000000000E+00 0. -1.
          6    1    1    2  501    0  0.34272981618E+02 -0.45014205296E+01  0.26773445302E+03  0.32063318199E+03  0.17300000000E+03 0. -1.
         -6    1    1    2    0  503 -0.34272981618E+02  0.45014205296E+01 -0.13314664031E+03  0.22102472233E+03  0.17300000000E+03 0. -1.
<mgrwt>
<rscale>  2 0.17641967E+03</rscale>
<asrwt>0</asrwt>
<pdfrwt beam="1">  1       21 0.52018901E-01 0.17641967E+03</pdfrwt>
<pdfrwt beam="2">  1       21 0.31313084E-01 0.17641967E+03</pdfrwt>
<totfact> 0.34671844E+04</totfact>
</mgrwt>
</event>
<event>
 4    1  0.4025504E+000  0.1807963E+03  0.7546771E-02  0.1167035E+00
         21   -1    0    0  501  502  0.00000000000E+00  0.00000000000E+00  0.31491643832E+03  0.31491643832E+03  0.00000000000E+00 0.  1.
         21   -1    0    0  502  503 -0.00000000000E+00 -0.00000000000E+00 -0.10439256746E+03  0.10439256746E+03  0.00000000000E+00 0.  1.
          6    1    1    2  501    0  0.46106916747E+02 -0.25148324104E+02  0.12110158282E+03  0.21760716748E+03  0.17300000000E+03 0. -1.
         -6    1    1    2    0  503 -0.46106916747E+02  0.25148324104E+02  0.89422288031E+02  0.20170183830E+03  0.17300000000E+03 0. -1.
<mgrwt>
<rscale>  2 0.18079626E+03</rscale>
<asrwt>0</asrwt>
<pdfrwt beam="1">  1       21 0.48448683E-01 0.18079626E+03</pdfrwt>
<pdfrwt beam="2">  1       21 0.16060395E-01 0.18079626E+03</pdfrwt>
<totfact> 0.14144679E+05</totfact>
</mgrwt>
</event>
<event>
 4    1  0.4025504E+000  0.2475526E+03  0.7546771E-02  0.1114861E+00
         21   -1    0    0  501  502  0.00000000000E+00  0.00000000000E+00  0.62259777131E+03  0.62259777131E+03  0.00000000000E+00 0. -1.
         21   -1    0    0  502  503 -0.00000000000E+00 -0.00000000000E+00 -0.12783794084E+03  0.12783794084E+03  0.00000000000E+00 0. -1.
          6    1    1    2  501    0 -0.10521279216E+03 -0.14242039137E+03  0.42734402894E+03  0.49386761240E+03  0.17300000000E+03 0. -1.
         -6    1    1    2    0  503  0.10521279216E+03  0.14242039137E+03  0.67415801532E+02  0.25656809974E+03  0.17300000000E+03 0. -1.
<mgrwt>
<rscale>  2 0.24755262E+03</rscale>
<asrwt>0</asrwt>
<pdfrwt beam="1">  1       21 0.95784271E-01 0.24755262E+03</pdfrwt>
<pdfrwt beam="2">  1       21 0.19667376E-01 0.24755262E+03</pdfrwt>
<totfact> 0.20987911E+04</totfact>
</mgrwt>
</event>
<event>
 4    1  0.4025504E+000  0.1913139E+03  0.7546771E-02  0.1157282E+00
         21   -1    0    0  503  502  0.00000000000E+00  0.00000000000E+00  0.82988324994E+02  0.82988324994E+02  0.00000000000E+00 0.  1.
         21   -1    0    0  501  503 -0.00000000000E+00 -0.00000000000E+00 -0.71036332178E+03  0.71036332178E+03  0.00000000000E+00 0.  1.
          6    1    1    2  501    0 -0.65754239386E+02 -0.48460129390E+02 -0.55793721476E+03  0.58982619453E+03  0.17300000000E+03 0.  1.
         -6    1    1    2    0  502  0.65754239386E+02  0.48460129390E+02 -0.69437782019E+02  0.20352545224E+03  0.17300000000E+03 0.  1.
<mgrwt>
<rscale>  2 0.19131389E+03</rscale>
<asrwt>0</asrwt>
<pdfrwt beam="1">  1       21 0.12767435E-01 0.19131389E+03</pdfrwt>
<pdfrwt beam="2">  1       21 0.10928666E+00 0.19131389E+03</pdfrwt>
<totfact> 0.34864442E+04</totfact>
</mgrwt>
</event>
<event>
 4    1  0.4025504E+000  0.1810523E+03  0.7546771E-02  0.1166789E+00
         21   -1    0    0  503  502  0.00000000000E+00  0.00000000000E+00  0.22683834356E+03  0.22683834356E+03  0.00000000000E+00 0. -1.
         21   -1    0    0  501  503 -0.00000000000E+00 -0.00000000000E+00 -0.14460289486E+03  0.14460289486E+03  0.00000000000E+00 0. -1.
          6    1    1    2  501    0 -0.40189501616E+02  0.35152884945E+02  0.36356314102E+02  0.18466646402E+03  0.17300000000E+03 0. -1.
         -6    1    1    2    0  502  0.40189501616E+02 -0.35152884945E+02  0.45879134602E+02  0.18677477440E+03  0.17300000000E+03 0. -1.
<mgrwt>
<rscale>  2 0.18105226E+03</rscale>
<asrwt>0</asrwt>
<pdfrwt beam="1">  1       21 0.34898207E-01 0.18105226E+03</pdfrwt>
<pdfrwt beam="2">  1       21 0.22246599E-01 0.18105226E+03</pdfrwt>
<totfact> 0.15016346E+05</totfact>
</mgrwt>
</event>
<event>
 4    1  0.4025504E+000  0.1879602E+03  0.7546771E-02  0.1160314E+00
         21   -1    0    0  503  502  0.00000000000E+00  0.00000000000E+00  0.37287063734E+03  0.37287063734E+03  0.00000000000E+00 0.  1.
         21   -1    0    0  501  503 -0.00000000000E+00 -0.00000000000E+00 -0.10243891220E+03  0.10243891220E+03  0.00000000000E+00 0. -1.
          6    1    1    2  501    0 -0.66482479318E+02  0.31306732001E+02  0.70100800736E+02  0.20060696346E+03  0.17300000000E+03 0.  1.
         -6    1    1    2    0  502  0.66482479318E+02 -0.31306732001E+02  0.20033092440E+03  0.27470258608E+03  0.17300000000E+03 0. -1.
<mgrwt>
<rscale>  2 0.18796019E+03</rscale>
<asrwt>0</asrwt>
<pdfrwt beam="1">  1       21 0.57364713E-01 0.18796019E+03</pdfrwt>
<pdfrwt beam="2">  1       21 0.15759833E-01 0.18796019E+03</pdfrwt>
<totfact> 0.10243515E+05</totfact>
</mgrwt>
</event>
<event>
 4    1  0.4025504E+000  0.1916123E+03  0.7546771E-02  0.1157015E+00
         21   -1    0    0  503  502  0.00000000000E+00  0.00000000000E+00  0.66760997367E+02  0.66760997367E+02  0.00000000000E+00 0.  1.
         21   -1    0    0  501  503 -0.00000000000E+00 -0.00000000000E+00 -0.56394605392E+03  0.56394605392E+03  0.00000000000E+00 0.  1.
          6    1    1    2  501    0 -0.62622348070E+02  0.53522971099E+02 -0.29827104303E+03  0.35451499549E+03  0.17300000000E+03 0.  1.
         -6    1    1    2    0  502  0.62622348070E+02 -0.53522971099E+02 -0.19891401352E+03  0.27619205580E+03  0.17300000000E+03 0.  1.
<mgrwt>
<rscale>  2 0.19161228E+03</rscale>
<asrwt>0</asrwt>
<pdfrwt beam="1">  1       21 0.10270923E-01 0.19161228E+03</pdfrwt>
<pdfrwt beam="2">  1       21 0.86760933E-01 0.19161228E+03</pdfrwt>
<totfact> 0.88526615E+04</totfact>
</mgrwt>
</event>
<event>
 4    1  0.4025504E+000  0.2376556E+03  0.7546771E-02  0.1121365E+00
         21   -1    0    0  501  502  0.00000000000E+00  0.00000000000E+00  0.15054808459E+04  0.15054808459E+04  0.00000000000E+00 0. -1.
         21   -1    0    0  502  503 -0.00000000000E+00 -0.00000000000E+00 -0.38305332595E+02  0.38305332595E+02  0.00000000000E+00 0. -1.
          6    1    1    2  501    0 -0.11634525975E+03 -0.11408308205E+03  0.84436666677E+03  0.87717457614E+03  0.17300000000E+03 0. -1.
         -6    1    1    2    0  503  0.11634525975E+03  0.11408308205E+03  0.62280884659E+03  0.66661160241E+03  0.17300000000E+03 0. -1.
<mgrwt>
<rscale>  2 0.23765557E+03</rscale>
<asrwt>0</asrwt>
<pdfrwt beam="1">  1       21 0.23161239E+00 0.23765557E+03</pdfrwt>
<pdfrwt beam="2">  1       21 0.58931293E-02 0.23765557E+03</pdfrwt>
<totfact> 0.16784671E+04</totfact>
</mgrwt>
</event>
<event>
 4    1  0.4025504E+000  0.1801171E+03  0.7546771E-02  0.1167690E+00
         21   -1    0    0  501  502  0.00000000000E+00  0.00000000000E+00  0.20500771452E+02  0.20500771452E+02  0.00000000000E+00 0. -1.
         21   -1    0    0  502  503 -0.00000000000E+00 -0.00000000000E+00 -0.16847848268E+04  0.16847848268E+04  0.00000000000E+00 0. -1.
          6    1    1    2  501    0  0.47441969727E+02  0.16200144065E+02 -0.62204007222E+03  0.64759249271E+03  0.17300000000E+03 0. -1.
         -6    1    1    2    0  503 -0.47441969727E+02 -0.16200144065E+02 -0.10422439831E+04  0.10576931056E+04  0.17300000000E+03 0. -1.
<mgrwt>
<rscale>  2 0.18011714E+03</rscale>
<asrwt>0</asrwt>
<pdfrwt beam="1">  1       21 0.31539651E-02 0.18011714E+03</pdfrwt>
<pdfrwt beam="2">  1       21 0.25919765E+00 0.18011714E+03</pdfrwt>
<totfact> 0.34576290E+04</totfact>
</mgrwt>
</event>
<event>
 4    1  0.4025504E+000  0.2008218E+03  0.7546771E-02  0.1149048E+00
         21   -1    0    0  501  502  0.00000000000E+00  0.00000000000E+00  0.17902578967E+04  0.17902578967E+04  0.00000000000E+00 0.  1.
         21   -1    0    0  502  503 -0.00000000000E+00 -0.00000000000E+00 -0.27412423709E+02  0.27412423709E+02  0.00000000000E+00 0. -1.
          6    1    1    2  501    0 -0.85017855290E+02 -0.56323724931E+02  0.12650912088E+04  0.12809313659E+04  0.17300000000E+03 0.  1.
         -6    1    1    2    0  503  0.85017855290E+02  0.56323724931E+02  0.49775426422E+03  0.53673895448E+03  0.17300000000E+03 0. -1.
<mgrwt>
<rscale>  2 0.20082181E+03</rscale>
<asrwt>0</asrwt>
<pdfrwt beam="1">  1       21 0.27542420E+00 0.20082181E+03</pdfrwt>
<pdfrwt beam="2">  1       21 0.42172974E-02 0.20082181E+03</pdfrwt>
<totfact> 0.16826176E+04</totfact>
</mgrwt>
</event>
<event>
 4    1  0.4025504E+000  0.3197447E+03  0.7546771E-02  0.1075767E+00
         21   -1    0    0  503  502  0.00000000000E+00  0.00000000000E+00  0.11945631195E+03  0.11945631195E+03  0.00000000000E+00 0. -1.
         21   -1    0    0  501  503 -0.00000000000E+00 -0.00000000000E+00 -0.10627057210E+04  0.10627057210E+04  0.00000000000E+00 0.  1.
          6    1    1    2  501    0 -0.57719289929E+02 -0.26263307960E+03 -0.73240487578E+03  0.79915802755E+03  0.17300000000E+03 0. -1.
         -6    1    1    2    0  502  0.57719289929E+02  0.26263307960E+03 -0.21084453322E+03  0.38300400536E+03  0.17300000000E+03 0.  1.
<mgrwt>
<rscale>  2 0.31974467E+03</rscale>
<asrwt>0</asrwt>
<pdfrwt beam="1">  1       21 0.18377895E-01 0.31974467E+03</pdfrwt>
<pdfrwt beam="2">  1       21 0.16349318E+00 0.31974467E+03</pdfrwt>
<totfact> 0.58996718E+03</totfact>
</mgrwt>
</event>
<event>
 4    1  0.4025504E+000  0.2028838E+03  0.7546771E-02  0.1147328E+00
         21   -1    0    0  501  502  0.00000000000E+00  0.00000000000E+00  0.27299271177E+03  0.27299271177E+03  0.00000000000E+00 0. -1.
         21   -1    0    0  502  503 -0.00000000000E+00 -0.00000000000E+00 -0.24639863304E+03  0.24639863304E+03  0.00000000000E+00 0. -1.
          6    1    1    2  501    0 -0.70974873322E+02  0.78710953935E+02  0.17507404115E+03  0.26797904171E+03  0.17300000000E+03 0. -1.
         -6    1    1    2    0  503  0.70974873322E+02 -0.78710953935E+02 -0.14847996241E+03  0.25141230310E+03  0.17300000000E+03 0. -1.
<mgrwt>
<rscale>  2 0.20288383E+03</rscale>
<asrwt>0</asrwt>
<pdfrwt beam="1">  1       21 0.41998878E-01 0.20288383E+03</pdfrwt>
<pdfrwt beam="2">  1       21 0.37907482E-01 0.20288383E+03</pdfrwt>
<totfact> 0.36423805E+04</totfact>
</mgrwt>
</event>
<event>
 4    1  0.4025504E+000  0.2068811E+03  0.7546771E-02  0.1144060E+00
         21   -1    0    0  503  502  0.00000000000E+00  0.00000000000E+00  0.38864669703E+03  0.38864669703E+03  0.00000000000E+00 0.  1.
         21   -1    0    0  501  503 -0.00000000000E+00 -0.00000000000E+00 -0.11699810899E+03  0.11699810899E+03  0.00000000000E+00 0.  1.
          6    1    1    2  501    0 -0.86292088460E+02 -0.73650957301E+02  0.74547361669E+02  0.21990247196E+03  0.17300000000E+03 0.  1.
         -6    1    1    2    0  502  0.86292088460E+02  0.73650957301E+02  0.19710122637E+03  0.28574233407E+03  0.17300000000E+03 0.  1.
<mgrwt>
<rscale>  2 0.20688110E+03</rscale>
<asrwt>0</asrwt>
<pdfrwt beam="1">  1       21 0.59791799E-01 0.20688110E+03</pdfrwt>
<pdfrwt beam="2">  1       21 0.17999709E-01 0.20688110E+03</pdfrwt>
<totfact> 0.72834868E+04</totfact>
</mgrwt>
</event>
<event>
 4    1  0.4025504E+000  0.2564885E+03  0.7546771E-02  0.1109272E+00
         21   -1    0    0  501  502  0.00000000000E+00  0.00000000000E+00  0.73416522843E+02  0.73416522843E+02  0.00000000000E+00 0. -1.
         21   -1    0    0  502  503 -0.00000000000E+00 -0.00000000000E+00 -0.94810673550E+03  0.94810673550E+03  0.00000000000E+00 0.  1.
          6    1    1    2  501    0 -0.10680851524E+03  0.15636263642E+03 -0.31768613270E+03  0.40830235354E+03  0.17300000000E+03 0. -1.
         -6    1    1    2    0  503  0.10680851524E+03 -0.15636263642E+03 -0.55700407996E+03  0.61322090480E+03  0.17300000000E+03 0.  1.
<mgrwt>
<rscale>  2 0.25648847E+03</rscale>
<asrwt>0</asrwt>
<pdfrwt beam="1">  1       21 0.11294850E-01 0.25648847E+03</pdfrwt>
<pdfrwt beam="2">  1       21 0.14586257E+00 0.25648847E+03</pdfrwt>
<totfact> 0.20244154E+04</totfact>
</mgrwt>
</event>
<event>
 4    1  0.4025504E+000  0.2067641E+03  0.7546771E-02  0.1144154E+00
         21   -1    0    0  501  502  0.00000000000E+00  0.00000000000E+00  0.71527615901E+02  0.71527615901E+02  0.00000000000E+00 0.  1.
         21   -1    0    0  502  503 -0.00000000000E+00 -0.00000000000E+00 -0.74918580168E+03  0.74918580168E+03  0.00000000000E+00 0.  1.
          6    1    1    2  501    0 -0.50654979686E+02 -0.10127411417E+03 -0.15429933242E+03  0.25799158349E+03  0.17300000000E+03 0.  1.
         -6    1    1    2    0  503  0.50654979686E+02  0.10127411417E+03 -0.52335885336E+03  0.56272183409E+03  0.17300000000E+03 0.  1.
<mgrwt>
<rscale>  2 0.20676405E+03</rscale>
<asrwt>0</asrwt>
<pdfrwt beam="1">  1       21 0.11004248E-01 0.20676405E+03</pdfrwt>
<pdfrwt beam="2">  1       21 0.11525936E+00 0.20676405E+03</pdfrwt>
<totfact> 0.39621553E+04</totfact>
</mgrwt>
</event>
<event>
 4    1  0.4025504E+000  0.1972473E+03  0.7546771E-02  0.1152082E+00
         21   -1    0    0  501  502  0.00000000000E+00  0.00000000000E+00  0.82142015347E+03  0.82142015347E+03  0.00000000000E+00 0.  1.
         21   -1    0    0  502  503 -0.00000000000E+00 -0.00000000000E+00 -0.10564898380E+03  0.10564898380E+03  0.00000000000E+00 0.  1.
          6    1    1    2  501    0  0.38630915514E+02  0.86516867127E+02  0.70217550280E+03  0.72935379115E+03  0.17300000000E+03 0.  1.
         -6    1    1    2    0  503 -0.38630915514E+02 -0.86516867127E+02  0.13595666868E+02  0.19771534611E+03  0.17300000000E+03 0.  1.
<mgrwt>
<rscale>  2 0.19724735E+03</rscale>
<asrwt>0</asrwt>
<pdfrwt beam="1">  1       21 0.12637233E+00 0.19724735E+03</pdfrwt>
<pdfrwt beam="2">  1       21 0.16253690E-01 0.19724735E+03</pdfrwt>
<totfact> 0.15675797E+04</totfact>
</mgrwt>
</event>
<event>
 4    1  0.4025504E+000  0.2425113E+03  0.7546771E-02  0.1118131E+00
         21   -1    0    0  501  502  0.00000000000E+00  0.00000000000E+00  0.52414816165E+03  0.52414816165E+03  0.00000000000E+00 0. -1.
         21   -1    0    0  502  503 -0.00000000000E+00 -0.00000000000E+00 -0.11523216199E+03  0.11523216199E+03  0.00000000000E+00 0.  1.
          6    1    1    2  501    0  0.77118999243E+02 -0.15144434985E+03  0.15263731787E+03  0.28654821924E+03  0.17300000000E+03 0. -1.
         -6    1    1    2    0  503 -0.77118999243E+02  0.15144434985E+03  0.25627868179E+03  0.35283210439E+03  0.17300000000E+03 0. -1.
<mgrwt>
<rscale>  2 0.24251130E+03</rscale>
<asrwt>0</asrwt>
<pdfrwt beam="1">  1       21 0.80638177E-01 0.24251130E+03</pdfrwt>
<pdfrwt beam="2">  1       21 0.17728025E-01 0.24251130E+03</pdfrwt>
<totfact> 0.38062638E+04</totfact>
</mgrwt>
</event>
<event>
 4    1  0.4025504E+000  0.2894280E+03  0.7546771E-02  0.1090648E+00
         21   -1    0    0  503  502  0.00000000000E+00  0.00000000000E+00  0.25155205518E+03  0.25155205518E+03  0.00000000000E+00 0. -1.
         21   -1    0    0  501  503 -0.00000000000E+00 -0.00000000000E+00 -0.59590832388E+03  0.59590832388E+03  0.00000000000E+00 0.  1.
          6    1    1    2  501    0 -0.12916053286E+03 -0.19276189621E+03 -0.45362478126E+03  0.53809296042E+03  0.17300000000E+03 0.  1.
         -6    1    1    2    0  502  0.12916053286E+03  0.19276189621E+03  0.10926851256E+03  0.30936741864E+03  0.17300000000E+03 0. -1.
<mgrwt>
<rscale>  2 0.28942804E+03</rscale>
<asrwt>0</asrwt>
<pdfrwt beam="1">  1       21 0.38700316E-01 0.28942804E+03</pdfrwt>
<pdfrwt beam="2">  1       21 0.91678203E-01 0.28942804E+03</pdfrwt>
<totfact> 0.60951174E+03</totfact>
</mgrwt>
</event>
<event>
 4    1  0.4025504E+000  0.1742382E+03  0.7546771E-02  0.1173499E+00
         21   -1    0    0  503  502  0.00000000000E+00  0.00000000000E+00  0.75315534035E+03  0.75315534035E+03  0.00000000000E+00 0. -1.
         21   -1    0    0  501  503 -0.00000000000E+00 -0.00000000000E+00 -0.60558438054E+02  0.60558438054E+02  0.00000000000E+00 0. -1.
          6    1    1    2  501    0  0.14856420490E+02  0.14464916611E+02  0.11103161651E+03  0.20660824501E+03  0.17300000000E+03 0. -1.
         -6    1    1    2    0  502 -0.14856420490E+02 -0.14464916611E+02  0.58156528578E+03  0.60710553339E+03  0.17300000000E+03 0. -1.
<mgrwt>
<rscale>  2 0.17423819E+03</rscale>
<asrwt>0</asrwt>
<pdfrwt beam="1">  1       21 0.11587005E+00 0.17423819E+03</pdfrwt>
<pdfrwt beam="2">  1       21 0.93166833E-02 0.17423819E+03</pdfrwt>
<totfact> 0.53412740E+04</totfact>
</mgrwt>
</event>
<event>
 4    1  0.4025504E+000  0.1806515E+03  0.7546771E-02  0.1167174E+00
         21   -1    0    0  503  502  0.00000000000E+00  0.00000000000E+00  0.15611965323E+03  0.15611965323E+03  0.00000000000E+00 0. -1.
         21   -1    0    0  501  503 -0.00000000000E+00 -0.00000000000E+00 -0.21766670948E+03  0.21766670948E+03  0.00000000000E+00 0. -1.
          6    1    1    2  501    0 -0.14673594802E+02  0.49906501753E+02 -0.67983986327E+02  0.19302019505E+03  0.17300000000E+03 0. -1.
         -6    1    1    2    0  502  0.14673594802E+02 -0.49906501753E+02  0.64369300769E+01  0.18076616766E+03  0.17300000000E+03 0. -1.
<mgrwt>
<rscale>  2 0.18065152E+03</rscale>
<asrwt>0</asrwt>
<pdfrwt beam="1">  1       21 0.24018408E-01 0.18065152E+03</pdfrwt>
<pdfrwt beam="2">  1       21 0.33487186E-01 0.18065152E+03</pdfrwt>
<totfact> 0.14096251E+05</totfact>
</mgrwt>
</event>
<event>
 4    1  0.4025504E+000  0.2342826E+03  0.7546771E-02  0.1123661E+00
         21   -1    0    0  503  502  0.00000000000E+00  0.00000000000E+00  0.19869329348E+03  0.19869329348E+03  0.00000000000E+00 0.  1.
         21   -1    0    0  501  503 -0.00000000000E+00 -0.00000000000E+00 -0.30335279003E+03  0.30335279003E+03  0.00000000000E+00 0.  1.
          6    1    1    2  501    0  0.10813145742E+03 -0.11518214485E+03 -0.12736652330E+03  0.26666565177E+03  0.17300000000E+03 0.  1.
         -6    1    1    2    0  502 -0.10813145742E+03  0.11518214485E+03  0.22707026751E+02  0.23538043173E+03  0.17300000000E+03 0.  1.
<mgrwt>
<rscale>  2 0.23428260E+03</rscale>
<asrwt>0</asrwt>
<pdfrwt beam="1">  1       21 0.30568199E-01 0.23428260E+03</pdfrwt>
<pdfrwt beam="2">  1       21 0.46669660E-01 0.23428260E+03</pdfrwt>
<totfact> 0.44281280E+04</totfact>
</mgrwt>
</event>
<event>
 4    1  0.4025504E+000  0.2280156E+03  0.7546771E-02  0.1128044E+00
         21   -1    0    0  503  502  0.00000000000E+00  0.00000000000E+00  0.13162336426E+04  0.13162336426E+04  0.00000000000E+00 0.  1.
         21   -1    0    0  501  503 -0.00000000000E+00 -0.00000000000E+00 -0.41070531092E+02  0.41070531092E+02  0.00000000000E+00 0.  1.
          6    1    1    2  501    0  0.12178409980E+03  0.85033797393E+02  0.50486735330E+03  0.55396945592E+03  0.17300000000E+03 0.  1.
         -6    1    1    2    0  502 -0.12178409980E+03 -0.85033797393E+02  0.77029575819E+03  0.80333471775E+03  0.17300000000E+03 0.  1.
<mgrwt>
<rscale>  2 0.22801560E+03</rscale>
<asrwt>0</asrwt>
<pdfrwt beam="1">  1       21 0.20249745E+00 0.22801560E+03</pdfrwt>
<pdfrwt beam="2">  1       21 0.63185443E-02 0.22801560E+03</pdfrwt>
<totfact> 0.22771438E+04</totfact>
</mgrwt>
</event>
<event>
 4    1  0.4025504E+000  0.1779362E+03  0.7546771E-02  0.1169816E+00
         21   -1    0    0  501  502  0.00000000000E+00  0.00000000000E+00  0.14802875470E+03  0.14802875470E+03  0.00000000000E+00 0. -1.
         21   -1    0    0  502  503 -0.00000000000E+00 -0.00000000000E+00 -0.11239171667E+04  0.11239171667E+04  0.00000000000E+00 0. -1.
          6    1    1    2  501    0 -0.25177931995E+02 -0.33141394773E+02  0.84324014136E+02  0.19690561106E+03  0.17300000000E+03 0. -1.
         -6    1    1    2    0  503  0.25177931995E+02  0.33141394773E+02 -0.10602124262E+04  0.10750403104E+04  0.17300000000E+03 0. -1.
<mgrwt>
<rscale>  2 0.17793617E+03</rscale>
<asrwt>0</asrwt>
<pdfrwt beam="1">  1       21 0.22773654E-01 0.17793617E+03</pdfrwt>
<pdfrwt beam="2">  1       21 0.17291034E+00 0.17793617E+03</pdfrwt>
<totfact> 0.37334237E+03</totfact>
</mgrwt>
</event>
<event>
 4    1  0.4025504E+000  0.2119724E+03  0.7546771E-02  0.1140013E+00
         21   -1    0    0  501  502  0.00000000000E+00  0.00000000000E+00  0.33179352054E+02  0.33179352054E+02  0.00000000000E+00 0.  1.
         21   -1    0    0  502  503 -0.00000000000E+00 -0.00000000000E+00 -0.18176942863E+04  0.18176942863E+04  0.00000000000E+00 0. -1.
          6    1    1    2  501    0 -0.40018562619E+02  0.11576628778E+03 -0.42495649813E+03  0.47488982306E+03  0.17300000000E+03 0.  1.
         -6    1    1    2    0  503  0.40018562619E+02 -0.11576628778E+03 -0.13595584361E+04  0.13759838153E+04  0.17300000000E+03 0. -1.
<mgrwt>
<rscale>  2 0.21197245E+03</rscale>
<asrwt>0</asrwt>
<pdfrwt beam="1">  1       21 0.51045146E-02 0.21197245E+03</pdfrwt>
<pdfrwt beam="2">  1       21 0.27964534E+00 0.21197245E+03</pdfrwt>
<totfact> 0.11395098E+04</totfact>
</mgrwt>
</event>
<event>
 4    1  0.4025504E+000  0.2269344E+03  0.7546771E-02  0.1128816E+00
         21   -1    0    0  501  502  0.00000000000E+00  0.00000000000E+00  0.45600286953E+03  0.45600286953E+03  0.00000000000E+00 0.  1.
         21   -1    0    0  502  503 -0.00000000000E+00 -0.00000000000E+00 -0.18199829365E+03  0.18199829365E+03  0.00000000000E+00 0.  1.
          6    1    1    2  501    0  0.14397299878E+03  0.29017199895E+02  0.33350916278E+03  0.40339507176E+03  0.17300000000E+03 0.  1.
         -6    1    1    2    0  503 -0.14397299878E+03 -0.29017199895E+02 -0.59504586897E+02  0.23460609142E+03  0.17300000000E+03 0.  1.
<mgrwt>
<rscale>  2 0.22693440E+03</rscale>
<asrwt>0</asrwt>
<pdfrwt beam="1">  1       21 0.70154287E-01 0.22693440E+03</pdfrwt>
<pdfrwt beam="2">  1       21 0.27999738E-01 0.22693440E+03</pdfrwt>
<totfact> 0.22033592E+04</totfact>
</mgrwt>
</event>
<event>
 4    1  0.4025504E+000  0.1915360E+03  0.7546771E-02  0.1157083E+00
         21   -1    0    0  501  502  0.00000000000E+00  0.00000000000E+00  0.20371838241E+04  0.20371838241E+04  0.00000000000E+00 0. -1.
         21   -1    0    0  502  503 -0.00000000000E+00 -0.00000000000E+00 -0.19099219604E+02  0.19099219604E+02  0.00000000000E+00 0. -1.
          6    1    1    2  501    0 -0.72338097428E+02  0.39041608393E+02  0.76331236830E+03  0.78697637774E+03  0.17300000000E+03 0. -1.
         -6    1    1    2    0  503  0.72338097428E+02 -0.39041608393E+02  0.12547722362E+04  0.12693066660E+04  0.17300000000E+03 0. -1.
<mgrwt>
<rscale>  2 0.19153602E+03</rscale>
<asrwt>0</asrwt>
<pdfrwt beam="1">  1       21 0.31341272E+00 0.19153602E+03</pdfrwt>
<pdfrwt beam="2">  1       21 0.29383431E-02 0.19153602E+03</pdfrwt>
<totfact> 0.18730714E+04</totfact>
</mgrwt>
</event>
<event>
 4    1  0.4025504E+000  0.1934043E+03  0.7546771E-02  0.1155426E+00
         21   -1    0    0  503  502  0.00000000000E+00  0.00000000000E+00  0.41650651539E+03  0.41650651539E+03  0.00000000000E+00 0. -1.
         21   -1    0    0  501  503 -0.00000000000E+00 -0.00000000000E+00 -0.41793000074E+03  0.41793000074E+03  0.00000000000E+00 0. -1.
          6    1    1    2  501    0  0.51228582698E+02 -0.69655396959E+02 -0.37039501792E+03  0.41784890967E+03  0.17300000000E+03 0. -1.
         -6    1    1    2    0  502 -0.51228582698E+02  0.69655396959E+02  0.36897153257E+03  0.41658760646E+03  0.17300000000E+03 0. -1.
<mgrwt>
<rscale>  2 0.19340435E+03</rscale>
<asrwt>0</asrwt>
<pdfrwt beam="1">  1       21 0.64077925E-01 0.19340435E+03</pdfrwt>
<pdfrwt beam="2">  1       21 0.64296923E-01 0.19340435E+03</pdfrwt>
<totfact> 0.50146713E+03</totfact>
</mgrwt>
</event>
<event>
 4    1  0.4025504E+000  0.2099708E+03  0.7546771E-02  0.1141589E+00
         21   -1    0    0  503  502  0.00000000000E+00  0.00000000000E+00  0.10021482124E+04  0.10021482124E+04  0.00000000000E+00 0.  1.
         21   -1    0    0  501  503 -0.00000000000E+00 -0.00000000000E+00 -0.87498506698E+02  0.87498506698E+02  0.00000000000E+00 0. -1.
          6    1    1    2  501    0 -0.65965681480E+02  0.99031698825E+02  0.73152322067E+02  0.22234884917E+03  0.17300000000E+03 0. -1.
         -6    1    1    2    0  502  0.65965681480E+02 -0.99031698825E+02  0.84149738359E+03  0.86729786988E+03  0.17300000000E+03 0.  1.
<mgrwt>
<rscale>  2 0.20997083E+03</rscale>
<asrwt>0</asrwt>
<pdfrwt beam="1">  1       21 0.15417664E+00 0.20997083E+03</pdfrwt>
<pdfrwt beam="2">  1       21 0.13461309E-01 0.20997083E+03</pdfrwt>
<totfact> 0.13104488E+04</totfact>
</mgrwt>
</event>
<event>
 4    1  0.4025504E+000  0.2103660E+03  0.7546771E-02  0.1141276E+00
         21   -1    0    0  503  502  0.00000000000E+00  0.00000000000E+00  0.98827998770E+02  0.98827998770E+02  0.00000000000E+00 0.  1.
         21   -1    0    0  501  503 -0.00000000000E+00 -0.00000000000E+00 -0.47191233270E+03  0.47191233270E+03  0.00000000000E+00 0.  1.
          6    1    1    2  501    0  0.11702411171E+03 -0.25104171792E+02 -0.25106558653E+03  0.32754815051E+03  0.17300000000E+03 0.  1.
         -6    1    1    2    0  502 -0.11702411171E+03  0.25104171792E+02 -0.12201874740E+03  0.24319218096E+03  0.17300000000E+03 0.  1.
<mgrwt>
<rscale>  2 0.21036602E+03</rscale>
<asrwt>0</asrwt>
<pdfrwt beam="1">  1       21 0.15204307E-01 0.21036602E+03</pdfrwt>
<pdfrwt beam="2">  1       21 0.72601898E-01 0.21036602E+03</pdfrwt>
<totfact> 0.64885060E+04</totfact>
</mgrwt>
</event>
<event>
 4    1  0.4025504E+000  0.2272836E+03  0.7546771E-02  0.1128566E+00
         21   -1    0    0  503  502  0.00000000000E+00  0.00000000000E+00  0.41612805159E+03  0.41612805159E+03  0.00000000000E+00 0. -1.
         21   -1    0    0  501  503 -0.00000000000E+00 -0.00000000000E+00 -0.22516645218E+03  0.22516645218E+03  0.00000000000E+00 0. -1.
          6    1    1    2  501    0  0.95831058311E+02  0.11200547976E+03 -0.11929970987E+03  0.25669094259E+03  0.17300000000E+03 0. -1.
         -6    1    1    2    0  502 -0.95831058311E+02 -0.11200547976E+03  0.31026130928E+03  0.38460356118E+03  0.17300000000E+03 0. -1.
<mgrwt>
<rscale>  2 0.22728357E+03</rscale>
<asrwt>0</asrwt>
<pdfrwt beam="1">  1       21 0.64019700E-01 0.22728357E+03</pdfrwt>
<pdfrwt beam="2">  1       21 0.34640993E-01 0.22728357E+03</pdfrwt>
<totfact> 0.17727720E+04</totfact>
</mgrwt>
</event>
<event>
 4    1  0.4025504E+000  0.2220204E+03  0.7546771E-02  0.1132386E+00
         21   -1    0    0  501  502  0.00000000000E+00  0.00000000000E+00  0.11550451035E+04  0.11550451035E+04  0.00000000000E+00 0.  1.
         21   -1    0    0  502  503 -0.00000000000E+00 -0.00000000000E+00 -0.53037770533E+02  0.53037770533E+02  0.00000000000E+00 0.  1.
          6    1    1    2  501    0  0.68733491911E+02  0.12099483370E+03  0.81798749551E+03  0.84758278976E+03  0.17300000000E+03 0.  1.
         -6    1    1    2    0  503 -0.68733491911E+02 -0.12099483370E+03  0.28401983746E+03  0.36050008428E+03  0.17300000000E+03 0.  1.
<mgrwt>
<rscale>  2 0.22202037E+03</rscale>
<asrwt>0</asrwt>
<pdfrwt beam="1">  1       21 0.17769923E+00 0.22202037E+03</pdfrwt>
<pdfrwt beam="2">  1       21 0.81596579E-02 0.22202037E+03</pdfrwt>
<totfact> 0.21439445E+04</totfact>
</mgrwt>
</event>
<event>
 4    1  0.4025504E+000  0.2191044E+03  0.7546771E-02  0.1134553E+00
         21   -1    0    0  503  502  0.00000000000E+00  0.00000000000E+00  0.58205591137E+02  0.58205591137E+02  0.00000000000E+00 0. -1.
         21   -1    0    0  501  503 -0.00000000000E+00 -0.00000000000E+00 -0.82915240649E+03  0.82915240649E+03  0.00000000000E+00 0. -1.
          6    1    1    2  501    0 -0.36422941723E+02 -0.12942600348E+03 -0.35324894688E+03  0.41568201733E+03  0.17300000000E+03 0. -1.
         -6    1    1    2    0  502  0.36422941723E+02  0.12942600348E+03 -0.41769786847E+03  0.47167598029E+03  0.17300000000E+03 0. -1.
<mgrwt>
<rscale>  2 0.21910436E+03</rscale>
<asrwt>0</asrwt>
<pdfrwt beam="1">  1       21 0.89547071E-02 0.21910436E+03</pdfrwt>
<pdfrwt beam="2">  1       21 0.12756190E+00 0.21910436E+03</pdfrwt>
<totfact> 0.44046490E+04</totfact>
</mgrwt>
</event>
<event>
 4    1  0.4025504E+000  0.2043747E+03  0.7546771E-02  0.1146100E+00
         21   -1    0    0  501  502  0.00000000000E+00  0.00000000000E+00  0.21882097757E+03  0.21882097757E+03  0.00000000000E+00 0. -1.
         21   -1    0    0  502  503 -0.00000000000E+00 -0.00000000000E+00 -0.21725574725E+03  0.21725574725E+03  0.00000000000E+00 0. -1.
          6    1    1    2  501    0 -0.74373218085E+02  0.79427001602E+02  0.76750800576E+02  0.21831103852E+03  0.17300000000E+03 0. -1.
         -6    1    1    2    0  503  0.74373218085E+02 -0.79427001602E+02 -0.75185570256E+02  0.21776568629E+03  0.17300000000E+03 0. -1.
<mgrwt>
<rscale>  2 0.20437472E+03</rscale>
<asrwt>0</asrwt>
<pdfrwt beam="1">  1       21 0.33664766E-01 0.20437472E+03</pdfrwt>
<pdfrwt beam="2">  1       21 0.33423961E-01 0.20437472E+03</pdfrwt>
<totfact> 0.72894508E+04</totfact>
</mgrwt>
</event>
<event>
 4    1  0.4025504E+000  0.2121737E+03  0.7546771E-02  0.1139856E+00
         21   -1    0    0  501  502  0.00000000000E+00  0.00000000000E+00  0.13445750710E+04  0.13445750710E+04  0.00000000000E+00 0. -1.
         21   -1    0    0  502  503 -0.00000000000E+00 -0.00000000000E+00 -0.11385744543E+03  0.11385744543E+03  0.00000000000E+00 0.  1.
          6    1    1    2  501    0 -0.19301211401E+02 -0.12131019224E+03  0.12280477803E+04  0.12462419710E+04  0.17300000000E+03 0. -1.
         -6    1    1    2    0  503  0.19301211401E+02  0.12131019224E+03  0.26698452445E+01  0.21219054544E+03  0.17300000000E+03 0.  1.
<mgrwt>
<rscale>  2 0.21217375E+03</rscale>
<asrwt>0</asrwt>
<pdfrwt beam="1">  1       21 0.20685769E+00 0.21217375E+03</pdfrwt>
<pdfrwt beam="2">  1       21 0.17516531E-01 0.21217375E+03</pdfrwt>
<totfact> 0.35190485E+03</totfact>
</mgrwt>
</event>
<event>
 4    1  0.4025504E+000  0.1874560E+03  0.7546771E-02  0.1160776E+00
         21   -1    0    0  503  502  0.00000000000E+00  0.00000000000E+00  0.35880806596E+03  0.35880806596E+03  0.00000000000E+00 0.  1.
         21   -1    0    0  501  503 -0.00000000000E+00 -0.00000000000E+00 -0.10266949795E+03  0.10266949795E+03  0.00000000000E+00 0.  1.
          6    1    1    2  501    0 -0.72169795962E+02  0.15049451311E+01  0.78518258686E+02  0.20323597432E+03  0.17300000000E+03 0.  1.
         -6    1    1    2    0  502  0.72169795962E+02 -0.15049451311E+01  0.17762030933E+03  0.25824158959E+03  0.17300000000E+03 0.  1.
<mgrwt>
<rscale>  2 0.18745598E+03</rscale>
<asrwt>0</asrwt>
<pdfrwt beam="1">  1       21 0.55201240E-01 0.18745598E+03</pdfrwt>
<pdfrwt beam="2">  1       21 0.15795308E-01 0.18745598E+03</pdfrwt>
<totfact> 0.11070627E+05</totfact>
</mgrwt>
</event>
<event>
 4    1  0.4025504E+000  0.2459430E+03  0.7546771E-02  0.1115896E+00
         21   -1    0    0  501  502  0.00000000000E+00  0.00000000000E+00  0.64954902648E+03  0.64954902648E+03  0.00000000000E+00 0.  1.
         21   -1    0    0  502  503 -0.00000000000E+00 -0.00000000000E+00 -0.11771189542E+03  0.11771189542E+03  0.00000000000E+00 0. -1.
          6    1    1    2  501    0  0.61397642627E+02  0.16367438874E+03  0.90582152664E+02  0.26209369018E+03  0.17300000000E+03 0. -1.
         -6    1    1    2    0  503 -0.61397642627E+02 -0.16367438874E+03  0.44125497839E+03  0.50516723172E+03  0.17300000000E+03 0.  1.
<mgrwt>
<rscale>  2 0.24594303E+03</rscale>
<asrwt>0</asrwt>
<pdfrwt beam="1">  1       21 0.99930618E-01 0.24594303E+03</pdfrwt>
<pdfrwt beam="2">  1       21 0.18109523E-01 0.24594303E+03</pdfrwt>
<totfact> 0.22161084E+04</totfact>
</mgrwt>
</event>
<event>
 4    1  0.4025504E+000  0.2049756E+03  0.7546771E-02  0.1145608E+00
         21   -1    0    0  503  502  0.00000000000E+00  0.00000000000E+00  0.38027542285E+03  0.38027542285E+03  0.00000000000E+00 0. -1.
         21   -1    0    0  501  503 -0.00000000000E+00 -0.00000000000E+00 -0.14720819496E+03  0.14720819496E+03  0.00000000000E+00 0.  1.
          6    1    1    2  501    0 -0.10892514239E+02  0.10939546428E+03  0.24826182502E+03  0.32194556719E+03  0.17300000000E+03 0. -1.
         -6    1    1    2    0  502  0.10892514239E+02 -0.10939546428E+03 -0.15194597139E+02  0.20553805062E+03  0.17300000000E+03 0.  1.
<mgrwt>
<rscale>  2 0.20497564E+03</rscale>
<asrwt>0</asrwt>
<pdfrwt beam="1">  1       21 0.58503911E-01 0.20497564E+03</pdfrwt>
<pdfrwt beam="2">  1       21 0.22647415E-01 0.20497564E+03</pdfrwt>
<totfact> 0.49685076E+04</totfact>
</mgrwt>
</event>
<event>
 4    1  0.4025504E+000  0.2469267E+03  0.7546771E-02  0.1115263E+00
         21   -1    0    0  503  502  0.00000000000E+00  0.00000000000E+00  0.24572008913E+03  0.24572008913E+03  0.00000000000E+00 0. -1.
         21   -1    0    0  501  503 -0.00000000000E+00 -0.00000000000E+00 -0.33845658970E+03  0.33845658970E+03  0.00000000000E+00 0.  1.
          6    1    1    2  501    0  0.14374930125E+03 -0.10188200086E+03  0.10451750853E+03  0.26813562482E+03  0.17300000000E+03 0. -1.
         -6    1    1    2    0  502 -0.14374930125E+03  0.10188200086E+03 -0.19725400910E+03  0.31604105400E+03  0.17300000000E+03 0.  1.
<mgrwt>
<rscale>  2 0.24692672E+03</rscale>
<asrwt>0</asrwt>
<pdfrwt beam="1">  1       21 0.37803091E-01 0.24692672E+03</pdfrwt>
<pdfrwt beam="2">  1       21 0.52070244E-01 0.24692672E+03</pdfrwt>
<totfact> 0.22948655E+04</totfact>
</mgrwt>
</event>
<event>
 4    1  0.4025504E+000  0.2268257E+03  0.7546771E-02  0.1128894E+00
         21   -1    0    0  501  502  0.00000000000E+00  0.00000000000E+00  0.14702787978E+04  0.14702787978E+04  0.00000000000E+00 0. -1.
         21   -1    0    0  502  503 -0.00000000000E+00 -0.00000000000E+00 -0.43371927921E+02  0.43371927921E+02  0.00000000000E+00 0. -1.
          6    1    1    2  501    0  0.14385131243E+03 -0.28769954123E+02  0.10460959138E+04  0.10704048633E+04  0.17300000000E+03 0. -1.
         -6    1    1    2    0  503 -0.14385131243E+03  0.28769954123E+02  0.38081095607E+03  0.44324586249E+03  0.17300000000E+03 0. -1.
<mgrwt>
<rscale>  2 0.22682573E+03</rscale>
<asrwt>0</asrwt>
<pdfrwt beam="1">  1       21 0.22619670E+00 0.22682573E+03</pdfrwt>
<pdfrwt beam="2">  1       21 0.66726054E-02 0.22682573E+03</pdfrwt>
<totfact> 0.14737365E+04</totfact>
</mgrwt>
</event>
<event>
 4    1  0.4025504E+000  0.2120651E+03  0.7546771E-02  0.1139941E+00
         21   -1    0    0  503  502  0.00000000000E+00  0.00000000000E+00  0.28822569237E+02  0.28822569237E+02  0.00000000000E+00 0. -1.
         21   -1    0    0  501  503 -0.00000000000E+00 -0.00000000000E+00 -0.16501742632E+04  0.16501742632E+04  0.00000000000E+00 0.  1.
          6    1    1    2  501    0  0.12091170013E+03 -0.20565955754E+02 -0.61474889061E+03  0.65029823640E+03  0.17300000000E+03 0. -1.
         -6    1    1    2    0  502 -0.12091170013E+03  0.20565955754E+02 -0.10066028034E+04  0.10286985961E+04  0.17300000000E+03 0.  1.
<mgrwt>
<rscale>  2 0.21206508E+03</rscale>
<asrwt>0</asrwt>
<pdfrwt beam="1">  1       21 0.44342416E-02 0.21206508E+03</pdfrwt>
<pdfrwt beam="2">  1       21 0.25387295E+00 0.21206508E+03</pdfrwt>
<totfact> 0.20451317E+04</totfact>
</mgrwt>
</event>
<event>
 4    1  0.4025504E+000  0.2069023E+03  0.7546771E-02  0.1144043E+00
         21   -1    0    0  501  502  0.00000000000E+00  0.00000000000E+00  0.64844006753E+03  0.64844006753E+03  0.00000000000E+00 0.  1.
         21   -1    0    0  502  503 -0.00000000000E+00 -0.00000000000E+00 -0.11634780482E+03  0.11634780482E+03  0.00000000000E+00 0.  1.
          6    1    1    2  501    0 -0.11189841947E+03 -0.18928420754E+02  0.51755058929E+03  0.55737523615E+03  0.17300000000E+03 0.  1.
         -6    1    1    2    0  503  0.11189841947E+03  0.18928420754E+02  0.14541673421E+02  0.20741263621E+03  0.17300000000E+03 0.  1.
<mgrwt>
<rscale>  2 0.20690225E+03</rscale>
<asrwt>0</asrwt>
<pdfrwt beam="1">  1       21 0.99760008E-01 0.20690225E+03</pdfrwt>
<pdfrwt beam="2">  1       21 0.17899663E-01 0.20690225E+03</pdfrwt>
<totfact> 0.23222170E+04</totfact>
</mgrwt>
</event>
<event>
 4    1  0.4025504E+000  0.2050906E+03  0.7546771E-02  0.1145514E+00
         21   -1    0    0  503  502  0.00000000000E+00  0.00000000000E+00  0.62931210288E+02  0.62931210288E+02  0.00000000000E+00 0.  1.
         21   -1    0    0  501  503 -0.00000000000E+00 -0.00000000000E+00 -0.93264985811E+03  0.93264985811E+03  0.00000000000E+00 0. -1.
          6    1    1    2  501    0 -0.16973294784E+01  0.11013757968E+03 -0.69983649433E+03  0.72926900810E+03  0.17300000000E+03 0. -1.
         -6    1    1    2    0  502  0.16973294784E+01 -0.11013757968E+03 -0.16988215349E+03  0.26631206030E+03  0.17300000000E+03 0.  1.
<mgrwt>
<rscale>  2 0.20509063E+03</rscale>
<asrwt>0</asrwt>
<pdfrwt beam="1">  1       21 0.96817251E-02 0.20509063E+03</pdfrwt>
<pdfrwt beam="2">  1       21 0.14348459E+00 0.20509063E+03</pdfrwt>
<totfact> 0.28620996E+04</totfact>
</mgrwt>
</event>
<event>
 4    1  0.4025504E+000  0.3210425E+03  0.7546771E-02  0.1075171E+00
         21   -1    0    0  501  502  0.00000000000E+00  0.00000000000E+00  0.17546961243E+04  0.17546961243E+04  0.00000000000E+00 0.  1.
         21   -1    0    0  502  503 -0.00000000000E+00 -0.00000000000E+00 -0.14842064062E+03  0.14842064062E+03  0.00000000000E+00 0. -1.
          6    1    1    2  501    0  0.26801730461E+03 -0.36138837644E+02  0.15428131344E+04  0.15758618781E+04  0.17300000000E+03 0.  1.
         -6    1    1    2    0  503 -0.26801730461E+03  0.36138837644E+02  0.63462349232E+02  0.32725488678E+03  0.17300000000E+03 0. -1.
<mgrwt>
<rscale>  2 0.32104251E+03</rscale>
<asrwt>0</asrwt>
<pdfrwt beam="1">  1       21 0.26995324E+00 0.32104251E+03</pdfrwt>
<pdfrwt beam="2">  1       21 0.22833946E-01 0.32104251E+03</pdfrwt>
<totfact> 0.80553409E+02</totfact>
</mgrwt>
</event>
<event>
 4    1  0.4025504E+000  0.1981695E+03  0.7546771E-02  0.1151293E+00
         21   -1    0    0  503  502  0.00000000000E+00  0.00000000000E+00  0.32166841634E+02  0.32166841634E+02  0.00000000000E+00 0. -1.
         21   -1    0    0  501  503 -0.00000000000E+00 -0.00000000000E+00 -0.12410888791E+04  0.12410888791E+04  0.00000000000E+00 0. -1.
          6    1    1    2  501    0 -0.47941457701E+02  0.83927055259E+02 -0.68574324129E+03  0.71380314299E+03  0.17300000000E+03 0. -1.
         -6    1    1    2    0  502  0.47941457701E+02 -0.83927055259E+02 -0.52317879615E+03  0.55945257771E+03  0.17300000000E+03 0. -1.
<mgrwt>
<rscale>  2 0.19816946E+03</rscale>
<asrwt>0</asrwt>
<pdfrwt beam="1">  1       21 0.49487442E-02 0.19816946E+03</pdfrwt>
<pdfrwt beam="2">  1       21 0.19093678E+00 0.19816946E+03</pdfrwt>
<totfact> 0.41939226E+04</totfact>
</mgrwt>
</event>
<event>
 4    1  0.4025504E+000  0.2815956E+03  0.7546771E-02  0.1094821E+00
         21   -1    0    0  501  502  0.00000000000E+00  0.00000000000E+00  0.80343936577E+02  0.80343936577E+02  0.00000000000E+00 0.  1.
         21   -1    0    0  502  503 -0.00000000000E+00 -0.00000000000E+00 -0.11338606455E+04  0.11338606455E+04  0.00000000000E+00 0. -1.
          6    1    1    2  501    0  0.98921959987E+02 -0.19895109233E+03 -0.74528119282E+03  0.79670581000E+03  0.17300000000E+03 0. -1.
         -6    1    1    2    0  503 -0.98921959987E+02  0.19895109233E+03 -0.30823551611E+03  0.41749877209E+03  0.17300000000E+03 0.  1.
<mgrwt>
<rscale>  2 0.28159562E+03</rscale>
<asrwt>0</asrwt>
<pdfrwt beam="1">  1       21 0.12360606E-01 0.28159562E+03</pdfrwt>
<pdfrwt beam="2">  1       21 0.17444009E+00 0.28159562E+03</pdfrwt>
<totfact> 0.10419995E+04</totfact>
</mgrwt>
</event>
<event>
 4    1  0.4025504E+000  0.2345162E+03  0.7546771E-02  0.1123501E+00
         21   -1    0    0  501  502  0.00000000000E+00  0.00000000000E+00  0.26993122769E+03  0.26993122769E+03  0.00000000000E+00 0. -1.
         21   -1    0    0  502  503 -0.00000000000E+00 -0.00000000000E+00 -0.21124346520E+03  0.21124346520E+03  0.00000000000E+00 0. -1.
          6    1    1    2  501    0  0.15350522222E+03  0.38794562451E+02  0.74663749856E+02  0.24611490582E+03  0.17300000000E+03 0. -1.
         -6    1    1    2    0  503 -0.15350522222E+03 -0.38794562451E+02 -0.15975987363E+02  0.23505978707E+03  0.17300000000E+03 0. -1.
<mgrwt>
<rscale>  2 0.23451625E+03</rscale>
<asrwt>0</asrwt>
<pdfrwt beam="1">  1       21 0.41527882E-01 0.23451625E+03</pdfrwt>
<pdfrwt beam="2">  1       21 0.32498994E-01 0.23451625E+03</pdfrwt>
<totfact> 0.49898553E+04</totfact>
</mgrwt>
</event>
<event>
 4    1  0.4025504E+000  0.1939939E+03  0.7546771E-02  0.1154908E+00
         21   -1    0    0  501  502  0.00000000000E+00  0.00000000000E+00  0.11893461180E+03  0.11893461180E+03  0.00000000000E+00 0.  1.
         21   -1    0    0  502  503 -0.00000000000E+00 -0.00000000000E+00 -0.39946102705E+03  0.39946102705E+03  0.00000000000E+00 0.  1.
          6    1    1    2  501    0 -0.80921904429E+02  0.34004112815E+02 -0.22086218945E+02  0.19524711361E+03  0.17300000000E+03 0.  1.
         -6    1    1    2    0  503  0.80921904429E+02 -0.34004112815E+02 -0.25844019630E+03  0.32314852524E+03  0.17300000000E+03 0.  1.
<mgrwt>
<rscale>  2 0.19399390E+03</rscale>
<asrwt>0</asrwt>
<pdfrwt beam="1">  1       21 0.18297633E-01 0.19399390E+03</pdfrwt>
<pdfrwt beam="2">  1       21 0.61455542E-01 0.19399390E+03</pdfrwt>
<totfact> 0.66991202E+04</totfact>
</mgrwt>
</event>
<event>
 4    1  0.4025504E+000  0.1956827E+03  0.7546771E-02  0.1153433E+00
         21   -1    0    0  503  502  0.00000000000E+00  0.00000000000E+00  0.22068432027E+02  0.22068432027E+02  0.00000000000E+00 0. -1.
         21   -1    0    0  501  503 -0.00000000000E+00 -0.00000000000E+00 -0.18284889389E+04  0.18284889389E+04  0.00000000000E+00 0. -1.
          6    1    1    2  501    0  0.69007529255E+02  0.60005787112E+02 -0.11122794745E+04  0.11293614846E+04  0.17300000000E+03 0. -1.
         -6    1    1    2    0  502 -0.69007529255E+02 -0.60005787112E+02 -0.69414103237E+03  0.72119588629E+03  0.17300000000E+03 0. -1.
<mgrwt>
<rscale>  2 0.19568274E+03</rscale>
<asrwt>0</asrwt>
<pdfrwt beam="1">  1       21 0.33951433E-02 0.19568274E+03</pdfrwt>
<pdfrwt beam="2">  1       21 0.28130600E+00 0.19568274E+03</pdfrwt>
<totfact> 0.22472558E+04</totfact>
</mgrwt>
</event>
<event>
 4    1  0.4025504E+000  0.2538198E+03  0.7546771E-02  0.1110914E+00
         21   -1    0    0  501  502  0.00000000000E+00  0.00000000000E+00  0.62424704851E+03  0.62424704851E+03  0.00000000000E+00 0. -1.
         21   -1    0    0  502  503 -0.00000000000E+00 -0.00000000000E+00 -0.12332917741E+03  0.12332917741E+03  0.00000000000E+00 0. -1.
          6    1    1    2  501    0 -0.16147814075E+03  0.91762280660E+02  0.40145560771E+03  0.47496432609E+03  0.17300000000E+03 0. -1.
         -6    1    1    2    0  503  0.16147814075E+03 -0.91762280660E+02  0.99462263387E+02  0.27261189983E+03  0.17300000000E+03 0. -1.
<mgrwt>
<rscale>  2 0.25381983E+03</rscale>
<asrwt>0</asrwt>
<pdfrwt beam="1">  1       21 0.96038006E-01 0.25381983E+03</pdfrwt>
<pdfrwt beam="2">  1       21 0.18973720E-01 0.25381983E+03</pdfrwt>
<totfact> 0.22240564E+04</totfact>
</mgrwt>
</event>
<event>
 4    1  0.4025504E+000  0.1743556E+03  0.7546771E-02  0.1173380E+00
         21   -1    0    0  503  502  0.00000000000E+00  0.00000000000E+00  0.84486675186E+02  0.84486675186E+02  0.00000000000E+00 0.  1.
         21   -1    0    0  501  503 -0.00000000000E+00 -0.00000000000E+00 -0.40478895800E+03  0.40478895800E+03  0.00000000000E+00 0.  1.
          6    1    1    2  501    0  0.19563734028E+02 -0.93877865248E+01 -0.24169154066E+03  0.29801790391E+03  0.17300000000E+03 0.  1.
         -6    1    1    2    0  502 -0.19563734028E+02  0.93877865248E+01 -0.78610742152E+02  0.19125772927E+03  0.17300000000E+03 0.  1.
<mgrwt>
<rscale>  2 0.17435559E+03</rscale>
<asrwt>0</asrwt>
<pdfrwt beam="1">  1       21 0.12997950E-01 0.17435559E+03</pdfrwt>
<pdfrwt beam="2">  1       21 0.62275224E-01 0.17435559E+03</pdfrwt>
<totfact> 0.12240785E+05</totfact>
</mgrwt>
</event>
<event>
 4    1  0.4025504E+000  0.2392009E+03  0.7546771E-02  0.1120326E+00
         21   -1    0    0  501  502  0.00000000000E+00  0.00000000000E+00  0.25413081026E+03  0.25413081026E+03  0.00000000000E+00 0.  1.
         21   -1    0    0  502  503 -0.00000000000E+00 -0.00000000000E+00 -0.54423473507E+03  0.54423473507E+03  0.00000000000E+00 0.  1.
          6    1    1    2  501    0 -0.14369987437E+03  0.81476334905E+02  0.16060410995E+03  0.28811582250E+03  0.17300000000E+03 0.  1.
         -6    1    1    2    0  503  0.14369987437E+03 -0.81476334905E+02 -0.45070803476E+03  0.51024972283E+03  0.17300000000E+03 0.  1.
<mgrwt>
<rscale>  2 0.23920085E+03</rscale>
<asrwt>0</asrwt>
<pdfrwt beam="1">  1       21 0.39097048E-01 0.23920085E+03</pdfrwt>
<pdfrwt beam="2">  1       21 0.83728420E-01 0.23920085E+03</pdfrwt>
<totfact> 0.75802405E+03</totfact>
</mgrwt>
</event>
<event>
 4    1  0.4025504E+000  0.1770512E+03  0.7546771E-02  0.1170688E+00
         21   -1    0    0  501  502  0.00000000000E+00  0.00000000000E+00  0.42955081920E+02  0.42955081920E+02  0.00000000000E+00 0.  1.
         21   -1    0    0  502  503 -0.00000000000E+00 -0.00000000000E+00 -0.74898644145E+03  0.74898644145E+03  0.00000000000E+00 0. -1.
          6    1    1    2  501    0  0.37511569975E+02  0.33196551323E+01 -0.28958298457E+03  0.33941927309E+03  0.17300000000E+03 0. -1.
         -6    1    1    2    0  503 -0.37511569975E+02 -0.33196551323E+01 -0.41644837496E+03  0.45252225028E+03  0.17300000000E+03 0. -1.
<mgrwt>
<rscale>  2 0.17705123E+03</rscale>
<asrwt>0</asrwt>
<pdfrwt beam="1">  1       21 0.66084752E-02 0.17705123E+03</pdfrwt>
<pdfrwt beam="2">  1       21 0.11522867E+00 0.17705123E+03</pdfrwt>
<totfact> 0.98120267E+04</totfact>
</mgrwt>
</event>
<event>
 4    1  0.4025504E+000  0.1749259E+03  0.7546771E-02  0.1172806E+00
         21   -1    0    0  503  502  0.00000000000E+00  0.00000000000E+00  0.22768058366E+03  0.22768058366E+03  0.00000000000E+00 0.  1.
         21   -1    0    0  501  503 -0.00000000000E+00 -0.00000000000E+00 -0.15699507527E+03  0.15699507527E+03  0.00000000000E+00 0.  1.
          6    1    1    2  501    0 -0.17288985846E+02  0.19265593279E+02 -0.37633096714E+02  0.17892825960E+03  0.17300000000E+03 0.  1.
         -6    1    1    2    0  502  0.17288985846E+02 -0.19265593279E+02  0.10831860511E+03  0.20574739933E+03  0.17300000000E+03 0.  1.
<mgrwt>
<rscale>  2 0.17492590E+03</rscale>
<asrwt>0</asrwt>
<pdfrwt beam="1">  1       21 0.35027782E-01 0.17492590E+03</pdfrwt>
<pdfrwt beam="2">  1       21 0.24153088E-01 0.17492590E+03</pdfrwt>
<totfact> 0.12786848E+05</totfact>
</mgrwt>
</event>
<event>
 4    1  0.4025504E+000  0.1746685E+03  0.7546771E-02  0.1173065E+00
         21   -1    0    0  503  502  0.00000000000E+00  0.00000000000E+00  0.11938625916E+03  0.11938625916E+03  0.00000000000E+00 0.  1.
         21   -1    0    0  501  503 -0.00000000000E+00 -0.00000000000E+00 -0.83966717537E+03  0.83966717537E+03  0.00000000000E+00 0.  1.
          6    1    1    2  501    0  0.18965370840E+02 -0.14846418252E+02 -0.76009385284E+03  0.77990497277E+03  0.17300000000E+03 0.  1.
         -6    1    1    2    0  502 -0.18965370840E+02  0.14846418252E+02  0.39812936629E+02  0.17914846175E+03  0.17300000000E+03 0.  1.
<mgrwt>
<rscale>  2 0.17466855E+03</rscale>
<asrwt>0</asrwt>
<pdfrwt beam="1">  1       21 0.18367116E-01 0.17466855E+03</pdfrwt>
<pdfrwt beam="2">  1       21 0.12917957E+00 0.17466855E+03</pdfrwt>
<totfact> 0.12034559E+04</totfact>
</mgrwt>
</event>
<event>
 4    1  0.4025504E+000  0.3645760E+03  0.7546771E-02  0.1056787E+00
         21   -1    0    0  501  502  0.00000000000E+00  0.00000000000E+00  0.45424112881E+03  0.45424112881E+03  0.00000000000E+00 0.  1.
         21   -1    0    0  502  503 -0.00000000000E+00 -0.00000000000E+00 -0.36025624895E+03  0.36025624895E+03  0.00000000000E+00 0. -1.
          6    1    1    2  501    0  0.26693905269E+03  0.17812964926E+03  0.22346405184E+03  0.42761175412E+03  0.17300000000E+03 0.  1.
         -6    1    1    2    0  503 -0.26693905269E+03 -0.17812964926E+03 -0.12947917198E+03  0.38688562363E+03  0.17300000000E+03 0. -1.
<mgrwt>
<rscale>  2 0.36457596E+03</rscale>
<asrwt>0</asrwt>
<pdfrwt beam="1">  1       21 0.69883251E-01 0.36457596E+03</pdfrwt>
<pdfrwt beam="2">  1       21 0.55424038E-01 0.36457596E+03</pdfrwt>
<totfact> 0.51825108E+03</totfact>
</mgrwt>
</event>
<event>
 4    1  0.4025504E+000  0.1924218E+03  0.7546771E-02  0.1156295E+00
         21   -1    0    0  503  502  0.00000000000E+00  0.00000000000E+00  0.31746976611E+03  0.31746976611E+03  0.00000000000E+00 0.  1.
         21   -1    0    0  501  503 -0.00000000000E+00 -0.00000000000E+00 -0.11666274527E+03  0.11666274527E+03  0.00000000000E+00 0.  1.
          6    1    1    2  501    0 -0.48873641225E+02 -0.68618564557E+02  0.10410234589E+03  0.21877714375E+03  0.17300000000E+03 0.  1.
         -6    1    1    2    0  502  0.48873641225E+02  0.68618564557E+02  0.96704674946E+02  0.21535536762E+03  0.17300000000E+03 0.  1.
<mgrwt>
<rscale>  2 0.19242178E+03</rscale>
<asrwt>0</asrwt>
<pdfrwt beam="1">  1       21 0.48841502E-01 0.19242178E+03</pdfrwt>
<pdfrwt beam="2">  1       21 0.17948115E-01 0.19242178E+03</pdfrwt>
<totfact> 0.11294721E+05</totfact>
</mgrwt>
</event>
<event>
 4    1  0.4025504E+000  0.1869320E+03  0.7546771E-02  0.1161258E+00
         21   -1    0    0  503  502  0.00000000000E+00  0.00000000000E+00  0.13820641445E+04  0.13820641445E+04  0.00000000000E+00 0.  1.
         21   -1    0    0  501  503 -0.00000000000E+00 -0.00000000000E+00 -0.70509120414E+02  0.70509120414E+02  0.00000000000E+00 0.  1.
          6    1    1    2  501    0  0.89478153001E+01  0.70246194488E+02  0.74106970107E+02  0.20108563911E+03  0.17300000000E+03 0.  1.
         -6    1    1    2    0  502 -0.89478153001E+01 -0.70246194488E+02  0.12374480540E+04  0.12514876258E+04  0.17300000000E+03 0.  1.
<mgrwt>
<rscale>  2 0.18693205E+03</rscale>
<asrwt>0</asrwt>
<pdfrwt beam="1">  1       21 0.21262523E+00 0.18693205E+03</pdfrwt>
<pdfrwt beam="2">  1       21 0.10847558E-01 0.18693205E+03</pdfrwt>
<totfact> 0.78908536E+03</totfact>
</mgrwt>
</event>
<event>
 4    1  0.4025504E+000  0.1767193E+03  0.7546771E-02  0.1171016E+00
         21   -1    0    0  503  502  0.00000000000E+00  0.00000000000E+00  0.18321352838E+03  0.18321352838E+03  0.00000000000E+00 0.  1.
         21   -1    0    0  501  503 -0.00000000000E+00 -0.00000000000E+00 -0.20979684301E+03  0.20979684301E+03  0.00000000000E+00 0.  1.
          6    1    1    2  501    0 -0.30447107730E+02  0.19331259045E+02 -0.98385870141E+02  0.20226097841E+03  0.17300000000E+03 0.  1.
         -6    1    1    2    0  502  0.30447107730E+02 -0.19331259045E+02  0.71802555510E+02  0.19074939298E+03  0.17300000000E+03 0.  1.
<mgrwt>
<rscale>  2 0.17671934E+03</rscale>
<asrwt>0</asrwt>
<pdfrwt beam="1">  1       21 0.28186697E-01 0.17671934E+03</pdfrwt>
<pdfrwt beam="2">  1       21 0.32276437E-01 0.17671934E+03</pdfrwt>
<totfact> 0.11171968E+05</totfact>
</mgrwt>
</event>
<event>
 4    1  0.4025504E+000  0.1756741E+03  0.7546771E-02  0.1172057E+00
         21   -1    0    0  501  502  0.00000000000E+00  0.00000000000E+00  0.12441252678E+03  0.12441252678E+03  0.00000000000E+00 0. -1.
         21   -1    0    0  502  503 -0.00000000000E+00 -0.00000000000E+00 -0.24915517237E+03  0.24915517237E+03  0.00000000000E+00 0.  1.
          6    1    1    2  501    0 -0.11452424318E+02  0.28306303005E+02 -0.49971112638E+02  0.18264314088E+03  0.17300000000E+03 0. -1.
         -6    1    1    2    0  503  0.11452424318E+02 -0.28306303005E+02 -0.74771532948E+02  0.19092455827E+03  0.17300000000E+03 0.  1.
<mgrwt>
<rscale>  2 0.17567414E+03</rscale>
<asrwt>0</asrwt>
<pdfrwt beam="1">  1       21 0.19140389E-01 0.17567414E+03</pdfrwt>
<pdfrwt beam="2">  1       21 0.38331565E-01 0.17567414E+03</pdfrwt>
<totfact> 0.16529856E+05</totfact>
</mgrwt>
</event>
<event>
 4    1  0.4025504E+000  0.1858678E+03  0.7546771E-02  0.1162242E+00
         21   -1    0    0  503  502  0.00000000000E+00  0.00000000000E+00  0.30620079523E+03  0.30620079523E+03  0.00000000000E+00 0.  1.
         21   -1    0    0  501  503 -0.00000000000E+00 -0.00000000000E+00 -0.26869712492E+03  0.26869712492E+03  0.00000000000E+00 0.  1.
          6    1    1    2  501    0  0.67949787564E+02 -0.81355222186E+00 -0.20018290744E+03  0.27316667427E+03  0.17300000000E+03 0.  1.
         -6    1    1    2    0  502 -0.67949787564E+02  0.81355222186E+00  0.23768657776E+03  0.30173124589E+03  0.17300000000E+03 0.  1.
<mgrwt>
<rscale>  2 0.18586779E+03</rscale>
<asrwt>0</asrwt>
<pdfrwt beam="1">  1       21 0.47107815E-01 0.18586779E+03</pdfrwt>
<pdfrwt beam="2">  1       21 0.41338019E-01 0.18586779E+03</pdfrwt>
<totfact> 0.24393222E+04</totfact>
</mgrwt>
</event>
<event>
 4    1  0.4025504E+000  0.2831164E+03  0.7546771E-02  0.1093999E+00
         21   -1    0    0  503  502  0.00000000000E+00  0.00000000000E+00  0.64271755614E+02  0.64271755614E+02  0.00000000000E+00 0.  1.
         21   -1    0    0  501  503 -0.00000000000E+00 -0.00000000000E+00 -0.15870480664E+04  0.15870480664E+04  0.00000000000E+00 0. -1.
          6    1    1    2  501    0  0.11979232027E+03 -0.18940883457E+03 -0.11435053159E+04  0.11780319665E+04  0.17300000000E+03 0.  1.
         -6    1    1    2    0  502 -0.11979232027E+03  0.18940883457E+03 -0.37927099487E+03  0.47328785549E+03  0.17300000000E+03 0. -1.
<mgrwt>
<rscale>  2 0.28311642E+03</rscale>
<asrwt>0</asrwt>
<pdfrwt beam="1">  1       21 0.98879629E-02 0.28311642E+03</pdfrwt>
<pdfrwt beam="2">  1       21 0.24416123E+00 0.28311642E+03</pdfrwt>
<totfact> 0.55220678E+03</totfact>
</mgrwt>
</event>
<event>
 4    1  0.4025504E+000  0.2055984E+03  0.7546771E-02  0.1145100E+00
         21   -1    0    0  501  502  0.00000000000E+00  0.00000000000E+00  0.30371363181E+03  0.30371363181E+03  0.00000000000E+00 0. -1.
         21   -1    0    0  502  503 -0.00000000000E+00 -0.00000000000E+00 -0.13953450249E+03  0.13953450249E+03  0.00000000000E+00 0. -1.
          6    1    1    2  501    0  0.66174751442E+02 -0.89233322919E+02  0.93269717377E+02  0.22576519623E+03  0.17300000000E+03 0. -1.
         -6    1    1    2    0  503 -0.66174751442E+02  0.89233322919E+02  0.70909411943E+02  0.21748293807E+03  0.17300000000E+03 0. -1.
<mgrwt>
<rscale>  2 0.20559836E+03</rscale>
<asrwt>0</asrwt>
<pdfrwt beam="1">  1       21 0.46725174E-01 0.20559836E+03</pdfrwt>
<pdfrwt beam="2">  1       21 0.21466847E-01 0.20559836E+03</pdfrwt>
<totfact> 0.88174648E+04</totfact>
</mgrwt>
</event>
<event>
 4    1  0.4025504E+000  0.1962176E+03  0.7546771E-02  0.1152970E+00
         21   -1    0    0  501  502  0.00000000000E+00  0.00000000000E+00  0.62880959657E+03  0.62880959657E+03  0.00000000000E+00 0.  1.
         21   -1    0    0  502  503 -0.00000000000E+00 -0.00000000000E+00 -0.64554395954E+02  0.64554395954E+02  0.00000000000E+00 0.  1.
          6    1    1    2  501    0  0.89522878165E+02  0.23621634672E+02  0.20344189937E+03  0.28264807404E+03  0.17300000000E+03 0.  1.
         -6    1    1    2    0  503 -0.89522878165E+02 -0.23621634672E+02  0.36081330124E+03  0.41071591848E+03  0.17300000000E+03 0.  1.
<mgrwt>
<rscale>  2 0.19621755E+03</rscale>
<asrwt>0</asrwt>
<pdfrwt beam="1">  1       21 0.96739934E-01 0.19621755E+03</pdfrwt>
<pdfrwt beam="2">  1       21 0.99314460E-02 0.19621755E+03</pdfrwt>
<totfact> 0.72796451E+04</totfact>
</mgrwt>
</event>
<event>
 4    1  0.4025504E+000  0.2190790E+03  0.7546771E-02  0.1134572E+00
         21   -1    0    0  501  502  0.00000000000E+00  0.00000000000E+00  0.18804453927E+03  0.18804453927E+03  0.00000000000E+00 0. -1.
         21   -1    0    0  502  503 -0.00000000000E+00 -0.00000000000E+00 -0.40829484190E+03  0.40829484190E+03  0.00000000000E+00 0. -1.
          6    1    1    2  501    0 -0.50392732060E+02 -0.12460816349E+03  0.72435266415E+02  0.23074334156E+03  0.17300000000E+03 0. -1.
         -6    1    1    2    0  503  0.50392732060E+02  0.12460816349E+03 -0.29268556904E+03  0.36559603961E+03  0.17300000000E+03 0. -1.
<mgrwt>
<rscale>  2 0.21907903E+03</rscale>
<asrwt>0</asrwt>
<pdfrwt beam="1">  1       21 0.28929930E-01 0.21907903E+03</pdfrwt>
<pdfrwt beam="2">  1       21 0.62814590E-01 0.21907903E+03</pdfrwt>
<totfact> 0.26456119E+04</totfact>
</mgrwt>
</event>
<event>
 4    1  0.4025504E+000  0.2073517E+03  0.7546771E-02  0.1143680E+00
         21   -1    0    0  503  502  0.00000000000E+00  0.00000000000E+00  0.44402502132E+02  0.44402502132E+02  0.00000000000E+00 0.  1.
         21   -1    0    0  501  503 -0.00000000000E+00 -0.00000000000E+00 -0.12870934418E+04  0.12870934418E+04  0.00000000000E+00 0.  1.
          6    1    1    2  501    0  0.41142885350E+02  0.10664431068E+03 -0.95267681342E+03  0.97498095205E+03  0.17300000000E+03 0.  1.
         -6    1    1    2    0  502 -0.41142885350E+02 -0.10664431068E+03 -0.29001412622E+03  0.35651499186E+03  0.17300000000E+03 0.  1.
<mgrwt>
<rscale>  2 0.20735174E+03</rscale>
<asrwt>0</asrwt>
<pdfrwt beam="1">  1       21 0.68311549E-02 0.20735174E+03</pdfrwt>
<pdfrwt beam="2">  1       21 0.19801435E+00 0.20735174E+03</pdfrwt>
<totfact> 0.21581647E+04</totfact>
</mgrwt>
</event>
<event>
 4    1  0.4025504E+000  0.1865567E+03  0.7546771E-02  0.1161604E+00
         21   -1    0    0  501  502  0.00000000000E+00  0.00000000000E+00  0.18005912315E+04  0.18005912315E+04  0.00000000000E+00 0.  1.
         21   -1    0    0  502  503 -0.00000000000E+00 -0.00000000000E+00 -0.29105206808E+02  0.29105206808E+02  0.00000000000E+00 0.  1.
          6    1    1    2  501    0  0.67409203207E+02 -0.18177366490E+02  0.14159573776E+04  0.14281942139E+04  0.17300000000E+03 0.  1.
         -6    1    1    2    0  503 -0.67409203207E+02  0.18177366490E+02  0.35552864706E+03  0.40150222441E+03  0.17300000000E+03 0.  1.
<mgrwt>
<rscale>  2 0.18655674E+03</rscale>
<asrwt>0</asrwt>
<pdfrwt beam="1">  1       21 0.27701395E+00 0.18655674E+03</pdfrwt>
<pdfrwt beam="2">  1       21 0.44777255E-02 0.18655674E+03</pdfrwt>
<totfact> 0.15099323E+04</totfact>
</mgrwt>
</event>
<event>
 4    1  0.4025504E+000  0.1851601E+03  0.7546771E-02  0.1162900E+00
         21   -1    0    0  503  502  0.00000000000E+00  0.00000000000E+00  0.33927045555E+02  0.33927045555E+02  0.00000000000E+00 0. -1.
         21   -1    0    0  501  503 -0.00000000000E+00 -0.00000000000E+00 -0.12390549199E+04  0.12390549199E+04  0.00000000000E+00 0. -1.
          6    1    1    2  501    0 -0.65841107109E+02  0.44960970292E+01 -0.87591113736E+03  0.89526788551E+03  0.17300000000E+03 0. -1.
         -6    1    1    2    0  502  0.65841107109E+02 -0.44960970292E+01 -0.32921673694E+03  0.37771407990E+03  0.17300000000E+03 0. -1.
<mgrwt>
<rscale>  2 0.18516011E+03</rscale>
<asrwt>0</asrwt>
<pdfrwt beam="1">  1       21 0.52195464E-02 0.18516011E+03</pdfrwt>
<pdfrwt beam="2">  1       21 0.19062380E+00 0.18516011E+03</pdfrwt>
<totfact> 0.38829051E+04</totfact>
</mgrwt>
</event>
<event>
 4    1  0.4025504E+000  0.3257978E+03  0.7546771E-02  0.1073011E+00
         21   -1    0    0  503  502  0.00000000000E+00  0.00000000000E+00  0.93593776425E+02  0.93593776425E+02  0.00000000000E+00 0. -1.
         21   -1    0    0  501  503 -0.00000000000E+00 -0.00000000000E+00 -0.12126196987E+04  0.12126196987E+04  0.00000000000E+00 0.  1.
          6    1    1    2  501    0  0.14258722670E+03  0.23639814288E+03 -0.72571104756E+03  0.79548772695E+03  0.17300000000E+03 0.  1.
         -6    1    1    2    0  502 -0.14258722670E+03 -0.23639814288E+03 -0.39331487472E+03  0.51072574818E+03  0.17300000000E+03 0. -1.
<mgrwt>
<rscale>  2 0.32579779E+03</rscale>
<asrwt>0</asrwt>
<pdfrwt beam="1">  1       21 0.14399043E-01 0.32579779E+03</pdfrwt>
<pdfrwt beam="2">  1       21 0.18655688E+00 0.32579779E+03</pdfrwt>
<totfact> 0.63510049E+03</totfact>
</mgrwt>
</event>
<event>
 4    1  0.4025504E+000  0.2098269E+03  0.7546771E-02  0.1141703E+00
         21   -1    0    0  501  502  0.00000000000E+00  0.00000000000E+00  0.13250007795E+03  0.13250007795E+03  0.00000000000E+00 0. -1.
         21   -1    0    0  502  503 -0.00000000000E+00 -0.00000000000E+00 -0.46170533328E+03  0.46170533328E+03  0.00000000000E+00 0. -1.
          6    1    1    2  501    0 -0.67110783320E+01 -0.11854664819E+03 -0.73017971855E+01  0.20995395355E+03  0.17300000000E+03 0. -1.
         -6    1    1    2    0  503  0.67110783320E+01  0.11854664819E+03 -0.32190345814E+03  0.38425145768E+03  0.17300000000E+03 0. -1.
<mgrwt>
<rscale>  2 0.20982694E+03</rscale>
<asrwt>0</asrwt>
<pdfrwt beam="1">  1       21 0.20384627E-01 0.20982694E+03</pdfrwt>
<pdfrwt beam="2">  1       21 0.71031590E-01 0.20982694E+03</pdfrwt>
<totfact> 0.39608718E+04</totfact>
</mgrwt>
</event>
<event>
 4    1  0.4025504E+000  0.2009171E+03  0.7546771E-02  0.1148968E+00
         21   -1    0    0  503  502  0.00000000000E+00  0.00000000000E+00  0.49865384632E+03  0.49865384632E+03  0.00000000000E+00 0.  1.
         21   -1    0    0  501  503 -0.00000000000E+00 -0.00000000000E+00 -0.84749463465E+02  0.84749463465E+02  0.00000000000E+00 0.  1.
          6    1    1    2  501    0  0.41627115542E+02  0.93305215540E+02  0.14521565981E+03  0.24790173023E+03  0.17300000000E+03 0.  1.
         -6    1    1    2    0  502 -0.41627115542E+02 -0.93305215540E+02  0.26868872305E+03  0.33550157956E+03  0.17300000000E+03 0.  1.
<mgrwt>
<rscale>  2 0.20091710E+03</rscale>
<asrwt>0</asrwt>
<pdfrwt beam="1">  1       21 0.76715974E-01 0.20091710E+03</pdfrwt>
<pdfrwt beam="2">  1       21 0.13038379E-01 0.20091710E+03</pdfrwt>
<totfact> 0.76138869E+04</totfact>
</mgrwt>
</event>
<event>
 4    1  0.4025504E+000  0.1938776E+03  0.7546771E-02  0.1155010E+00
         21   -1    0    0  501  502  0.00000000000E+00  0.00000000000E+00  0.17059127050E+03  0.17059127050E+03  0.00000000000E+00 0.  1.
         21   -1    0    0  502  503 -0.00000000000E+00 -0.00000000000E+00 -0.30038299999E+03  0.30038299999E+03  0.00000000000E+00 0.  1.
          6    1    1    2  501    0 -0.84852966590E+01 -0.87106494455E+02  0.56662222357E+02  0.20198799241E+03  0.17300000000E+03 0.  1.
         -6    1    1    2    0  503  0.84852966590E+01  0.87106494455E+02 -0.18645395185E+03  0.26898627808E+03  0.17300000000E+03 0.  1.
<mgrwt>
<rscale>  2 0.19387765E+03</rscale>
<asrwt>0</asrwt>
<pdfrwt beam="1">  1       21 0.26244811E-01 0.19387765E+03</pdfrwt>
<pdfrwt beam="2">  1       21 0.46212769E-01 0.19387765E+03</pdfrwt>
<totfact> 0.61887509E+04</totfact>
</mgrwt>
</event>
<event>
 4    1  0.4025504E+000  0.1998680E+03  0.7546771E-02  0.1149850E+00
         21   -1    0    0  503  502  0.00000000000E+00  0.00000000000E+00  0.40657348264E+03  0.40657348264E+03  0.00000000000E+00 0. -1.
         21   -1    0    0  501  503 -0.00000000000E+00 -0.00000000000E+00 -0.98357887945E+02  0.98357887945E+02  0.00000000000E+00 0.  1.
          6    1    1    2  501    0 -0.89157818240E+02 -0.45487259349E+02  0.16233839821E+03  0.25748973349E+03  0.17300000000E+03 0.  1.
         -6    1    1    2    0  502  0.89157818240E+02  0.45487259349E+02  0.14587719648E+03  0.24744163710E+03  0.17300000000E+03 0.  1.
<mgrwt>
<rscale>  2 0.19986797E+03</rscale>
<asrwt>0</asrwt>
<pdfrwt beam="1">  1       21 0.62549766E-01 0.19986797E+03</pdfrwt>
<pdfrwt beam="2">  1       21 0.15131983E-01 0.19986797E+03</pdfrwt>
<totfact> 0.91181768E+04</totfact>
</mgrwt>
</event>
<event>
 4    1  0.4025504E+000  0.2722507E+03  0.7546771E-02  0.1099998E+00
         21   -1    0    0  501  502  0.00000000000E+00  0.00000000000E+00  0.38962868283E+03  0.38962868283E+03  0.00000000000E+00 0. -1.
         21   -1    0    0  502  503 -0.00000000000E+00 -0.00000000000E+00 -0.23141767143E+03  0.23141767143E+03  0.00000000000E+00 0.  1.
          6    1    1    2  501    0  0.18126045582E+03 -0.10647102159E+03  0.21010236515E+03  0.34389451162E+03  0.17300000000E+03 0. -1.
         -6    1    1    2    0  503 -0.18126045582E+03  0.10647102159E+03 -0.51891353750E+02  0.27715184264E+03  0.17300000000E+03 0.  1.
<mgrwt>
<rscale>  2 0.27225068E+03</rscale>
<asrwt>0</asrwt>
<pdfrwt beam="1">  1       21 0.59942874E-01 0.27225068E+03</pdfrwt>
<pdfrwt beam="2">  1       21 0.35602719E-01 0.27225068E+03</pdfrwt>
<totfact> 0.18939623E+04</totfact>
</mgrwt>
</event>
<event>
 4    1  0.4025504E+000  0.3359014E+03  0.7546771E-02  0.1068555E+00
         21   -1    0    0  503  502  0.00000000000E+00  0.00000000000E+00  0.80483446550E+03  0.80483446550E+03  0.00000000000E+00 0.  1.
         21   -1    0    0  501  503 -0.00000000000E+00 -0.00000000000E+00 -0.14677232888E+03  0.14677232888E+03  0.00000000000E+00 0. -1.
          6    1    1    2  501    0 -0.22906732167E+03  0.17443894102E+03  0.22826979075E+03  0.40612421668E+03  0.17300000000E+03 0.  1.
         -6    1    1    2    0  502  0.22906732167E+03 -0.17443894102E+03  0.42979234587E+03  0.54548257770E+03  0.17300000000E+03 0. -1.
<mgrwt>
<rscale>  2 0.33590145E+03</rscale>
<asrwt>0</asrwt>
<pdfrwt beam="1">  1       21 0.12382068E+00 0.33590145E+03</pdfrwt>
<pdfrwt beam="2">  1       21 0.22580359E-01 0.33590145E+03</pdfrwt>
<totfact> 0.82704254E+03</totfact>
</mgrwt>
</event>
<event>
 4    1  0.4025504E+000  0.1743838E+03  0.7546771E-02  0.1173352E+00
         21   -1    0    0  501  502  0.00000000000E+00  0.00000000000E+00  0.26836647260E+03  0.26836647260E+03  0.00000000000E+00 0. -1.
         21   -1    0    0  502  503 -0.00000000000E+00 -0.00000000000E+00 -0.17160689200E+03  0.17160689200E+03  0.00000000000E+00 0. -1.
          6    1    1    2  501    0 -0.11944884681E+02  0.18385403942E+02 -0.79834514775E+02  0.19178960633E+03  0.17300000000E+03 0. -1.
         -6    1    1    2    0  503  0.11944884681E+02 -0.18385403942E+02  0.17659409537E+03  0.24818375827E+03  0.17300000000E+03 0. -1.
<mgrwt>
<rscale>  2 0.17438378E+03</rscale>
<asrwt>0</asrwt>
<pdfrwt beam="1">  1       21 0.41287149E-01 0.17438378E+03</pdfrwt>
<pdfrwt beam="2">  1       21 0.26401061E-01 0.17438378E+03</pdfrwt>
<totfact> 0.77673075E+04</totfact>
</mgrwt>
</event>
<event>
 4    1  0.4025504E+000  0.2159300E+03  0.7546771E-02  0.1136954E+00
         21   -1    0    0  501  502  0.00000000000E+00  0.00000000000E+00  0.38646202826E+02  0.38646202826E+02  0.00000000000E+00 0. -1.
         21   -1    0    0  502  503 -0.00000000000E+00 -0.00000000000E+00 -0.14812840251E+04  0.14812840251E+04  0.00000000000E+00 0.  1.
          6    1    1    2  501    0  0.89647420798E+02 -0.93059714537E+02 -0.39398719929E+03  0.44927907110E+03  0.17300000000E+03 0.  1.
         -6    1    1    2    0  503 -0.89647420798E+02  0.93059714537E+02 -0.10486506230E+04  0.10706511568E+04  0.17300000000E+03 0. -1.
<mgrwt>
<rscale>  2 0.21593001E+03</rscale>
<asrwt>0</asrwt>
<pdfrwt beam="1">  1       21 0.59455699E-02 0.21593001E+03</pdfrwt>
<pdfrwt beam="2">  1       21 0.22788984E+00 0.21593001E+03</pdfrwt>
<totfact> 0.17701070E+04</totfact>
</mgrwt>
</event>
<event>
 4    1  0.4025504E+000  0.2218257E+03  0.7546771E-02  0.1132529E+00
         21   -1    0    0  501  502  0.00000000000E+00  0.00000000000E+00  0.38626668153E+02  0.38626668153E+02  0.00000000000E+00 0. -1.
         21   -1    0    0  502  503 -0.00000000000E+00 -0.00000000000E+00 -0.12946431070E+04  0.12946431070E+04  0.00000000000E+00 0.  1.
          6    1    1    2  501    0 -0.13790371328E+03 -0.16131421545E+02 -0.71238263730E+03  0.74612041845E+03  0.17300000000E+03 0. -1.
         -6    1    1    2    0  503  0.13790371328E+03  0.16131421545E+02 -0.54363380158E+03  0.58714935674E+03  0.17300000000E+03 0.  1.
<mgrwt>
<rscale>  2 0.22182574E+03</rscale>
<asrwt>0</asrwt>
<pdfrwt beam="1">  1       21 0.59425640E-02 0.22182574E+03</pdfrwt>
<pdfrwt beam="2">  1       21 0.19917587E+00 0.22182574E+03</pdfrwt>
<totfact> 0.26695373E+04</totfact>
</mgrwt>
</event>
<event>
 4    1  0.4025504E+000  0.2415587E+03  0.7546771E-02  0.1118759E+00
         21   -1    0    0  501  502  0.00000000000E+00  0.00000000000E+00  0.33568949176E+03  0.33568949176E+03  0.00000000000E+00 0. -1.
         21   -1    0    0  502  503 -0.00000000000E+00 -0.00000000000E+00 -0.23766487952E+03  0.23766487952E+03  0.00000000000E+00 0. -1.
          6    1    1    2  501    0  0.11080590583E+03  0.12705760511E+03  0.19759326722E+03  0.31207961009E+03  0.17300000000E+03 0. -1.
         -6    1    1    2    0  503 -0.11080590583E+03 -0.12705760511E+03 -0.99568654980E+02  0.26127476119E+03  0.17300000000E+03 0. -1.
<mgrwt>
<rscale>  2 0.24155865E+03</rscale>
<asrwt>0</asrwt>
<pdfrwt beam="1">  1       21 0.51644537E-01 0.24155865E+03</pdfrwt>
<pdfrwt beam="2">  1       21 0.36563828E-01 0.24155865E+03</pdfrwt>
<totfact> 0.25032020E+04</totfact>
</mgrwt>
</event>
<event>
 4    1  0.4025504E+000  0.1802263E+03  0.7546771E-02  0.1167584E+00
         21   -1    0    0  501  502  0.00000000000E+00  0.00000000000E+00  0.72525393051E+03  0.72525393051E+03  0.00000000000E+00 0. -1.
         21   -1    0    0  502  503 -0.00000000000E+00 -0.00000000000E+00 -0.50629383891E+02  0.50629383891E+02  0.00000000000E+00 0. -1.
          6    1    1    2  501    0  0.35036736913E+02  0.36400023036E+02  0.46910192608E+03  0.50253174195E+03  0.17300000000E+03 0. -1.
         -6    1    1    2    0  503 -0.35036736913E+02 -0.36400023036E+02  0.20552262054E+03  0.27335157245E+03  0.17300000000E+03 0. -1.
<mgrwt>
<rscale>  2 0.18022634E+03</rscale>
<asrwt>0</asrwt>
<pdfrwt beam="1">  1       21 0.11157752E+00 0.18022634E+03</pdfrwt>
<pdfrwt beam="2">  1       21 0.77891365E-02 0.18022634E+03</pdfrwt>
<totfact> 0.79763380E+04</totfact>
</mgrwt>
</event>
<event>
 4    1  0.4025504E+000  0.1770685E+03  0.7546771E-02  0.1170671E+00
         21   -1    0    0  503  502  0.00000000000E+00  0.00000000000E+00  0.54587587958E+02  0.54587587958E+02  0.00000000000E+00 0.  1.
         21   -1    0    0  501  503 -0.00000000000E+00 -0.00000000000E+00 -0.68530470733E+03  0.68530470733E+03  0.00000000000E+00 0.  1.
          6    1    1    2  501    0  0.24671990012E+01  0.37658398828E+02 -0.16651205198E+03  0.24306276047E+03  0.17300000000E+03 0.  1.
         -6    1    1    2    0  502 -0.24671990012E+01 -0.37658398828E+02 -0.46420506740E+03  0.49682953482E+03  0.17300000000E+03 0.  1.
<mgrwt>
<rscale>  2 0.17706847E+03</rscale>
<asrwt>0</asrwt>
<pdfrwt beam="1">  1       21 0.83980913E-02 0.17706847E+03</pdfrwt>
<pdfrwt beam="2">  1       21 0.10543148E+00 0.17706847E+03</pdfrwt>
<totfact> 0.80325687E+04</totfact>
</mgrwt>
</event>
<event>
 4    1  0.4025504E+000  0.2331113E+03  0.7546771E-02  0.1124469E+00
         21   -1    0    0  501  502  0.00000000000E+00  0.00000000000E+00  0.21626084748E+04  0.21626084748E+04  0.00000000000E+00 0. -1.
         21   -1    0    0  502  503 -0.00000000000E+00 -0.00000000000E+00 -0.34929426221E+02  0.34929426221E+02  0.00000000000E+00 0. -1.
          6    1    1    2  501    0  0.15374915625E+03 -0.27804247999E+02  0.16458985595E+04  0.16623245614E+04  0.17300000000E+03 0. -1.
         -6    1    1    2    0  503 -0.15374915625E+03  0.27804247999E+02  0.48178048909E+03  0.53521333963E+03  0.17300000000E+03 0. -1.
<mgrwt>
<rscale>  2 0.23311130E+03</rscale>
<asrwt>0</asrwt>
<pdfrwt beam="1">  1       21 0.33270889E+00 0.23311130E+03</pdfrwt>
<pdfrwt beam="2">  1       21 0.53737596E-02 0.23311130E+03</pdfrwt>
<totfact> 0.50192011E+03</totfact>
</mgrwt>
</event>
<event>
 4    1  0.4025504E+000  0.2802724E+03  0.7546771E-02  0.1095540E+00
         21   -1    0    0  503  502  0.00000000000E+00  0.00000000000E+00  0.12826326570E+03  0.12826326570E+03  0.00000000000E+00 0. -1.
         21   -1    0    0  501  503 -0.00000000000E+00 -0.00000000000E+00 -0.84127404843E+03  0.84127404843E+03  0.00000000000E+00 0.  1.
          6    1    1    2  501    0  0.22043819667E+03  0.55358627089E+01 -0.10367292467E+03  0.29883226003E+03  0.17300000000E+03 0. -1.
         -6    1    1    2    0  502 -0.22043819667E+03 -0.55358627089E+01 -0.60933785806E+03  0.67070505410E+03  0.17300000000E+03 0.  1.
<mgrwt>
<rscale>  2 0.28027245E+03</rscale>
<asrwt>0</asrwt>
<pdfrwt beam="1">  1       21 0.19732811E-01 0.28027245E+03</pdfrwt>
<pdfrwt beam="2">  1       21 0.12942677E+00 0.28027245E+03</pdfrwt>
<totfact> 0.97961462E+03</totfact>
</mgrwt>
</event>
<event>
 4    1  0.4025504E+000  0.2641883E+03  0.7546771E-02  0.1104653E+00
         21   -1    0    0  501  502  0.00000000000E+00  0.00000000000E+00  0.84500707056E+03  0.84500707056E+03  0.00000000000E+00 0.  1.
         21   -1    0    0  502  503 -0.00000000000E+00 -0.00000000000E+00 -0.84545501007E+02  0.84545501007E+02  0.00000000000E+00 0. -1.
          6    1    1    2  501    0  0.15523939791E+03  0.12556738217E+03  0.30968067361E+03  0.40705964886E+03  0.17300000000E+03 0. -1.
         -6    1    1    2    0  503 -0.15523939791E+03 -0.12556738217E+03  0.45078089595E+03  0.52249292271E+03  0.17300000000E+03 0. -1.
<mgrwt>
<rscale>  2 0.26418826E+03</rscale>
<asrwt>0</asrwt>
<pdfrwt beam="1">  1       21 0.13000108E+00 0.26418826E+03</pdfrwt>
<pdfrwt beam="2">  1       21 0.13007001E-01 0.26418826E+03</pdfrwt>
<totfact> 0.21078990E+04</totfact>
</mgrwt>
</event>
<event>
 4    1  0.4025504E+000  0.2095612E+03  0.7546771E-02  0.1141914E+00
         21   -1    0    0  501  502  0.00000000000E+00  0.00000000000E+00  0.16049837837E+03  0.16049837837E+03  0.00000000000E+00 0. -1.
         21   -1    0    0  502  503 -0.00000000000E+00 -0.00000000000E+00 -0.12960831067E+04  0.12960831067E+04  0.00000000000E+00 0. -1.
          6    1    1    2  501    0 -0.49761197939E+02  0.10728809231E+03  0.79069772399E+02  0.22398200928E+03  0.17300000000E+03 0. -1.
         -6    1    1    2    0  503  0.49761197939E+02 -0.10728809231E+03 -0.12146545007E+04  0.12325994758E+04  0.17300000000E+03 0. -1.
<mgrwt>
<rscale>  2 0.20956124E+03</rscale>
<asrwt>0</asrwt>
<pdfrwt beam="1">  1       21 0.24692059E-01 0.20956124E+03</pdfrwt>
<pdfrwt beam="2">  1       21 0.19939739E+00 0.20956124E+03</pdfrwt>
<totfact> 0.20655153E+03</totfact>
</mgrwt>
</event>
<event>
 4    1  0.4025504E+000  0.1936523E+03  0.7546771E-02  0.1155208E+00
         21   -1    0    0  501  502  0.00000000000E+00  0.00000000000E+00  0.95355949837E+02  0.95355949837E+02  0.00000000000E+00 0.  1.
         21   -1    0    0  502  503 -0.00000000000E+00 -0.00000000000E+00 -0.71771469885E+03  0.71771469885E+03  0.00000000000E+00 0.  1.
          6    1    1    2  501    0 -0.58141928945E+01 -0.86824059960E+02 -0.37848567947E+02  0.19731633567E+03  0.17300000000E+03 0.  1.
         -6    1    1    2    0  503  0.58141928945E+01  0.86824059960E+02 -0.58451018107E+03  0.61575431302E+03  0.17300000000E+03 0.  1.
<mgrwt>
<rscale>  2 0.19365232E+03</rscale>
<asrwt>0</asrwt>
<pdfrwt beam="1">  1       21 0.14670146E-01 0.19365232E+03</pdfrwt>
<pdfrwt beam="2">  1       21 0.11041765E+00 0.19365232E+03</pdfrwt>
<totfact> 0.26419919E+04</totfact>
</mgrwt>
</event>
<event>
 4    1  0.4025504E+000  0.1953773E+03  0.7546771E-02  0.1153699E+00
         21   -1    0    0  503  502  0.00000000000E+00  0.00000000000E+00  0.12174517072E+03  0.12174517072E+03  0.00000000000E+00 0. -1.
         21   -1    0    0  501  503 -0.00000000000E+00 -0.00000000000E+00 -0.62225761072E+03  0.62225761072E+03  0.00000000000E+00 0.  1.
          6    1    1    2  501    0 -0.54705938539E+02  0.72460589458E+02 -0.51227863645E+03  0.54827153683E+03  0.17300000000E+03 0.  1.
         -6    1    1    2    0  502  0.54705938539E+02 -0.72460589458E+02  0.11766196444E+02  0.19573124461E+03  0.17300000000E+03 0. -1.
<mgrwt>
<rscale>  2 0.19537727E+03</rscale>
<asrwt>0</asrwt>
<pdfrwt beam="1">  1       21 0.18730026E-01 0.19537727E+03</pdfrwt>
<pdfrwt beam="2">  1       21 0.95731941E-01 0.19537727E+03</pdfrwt>
<totfact> 0.23693016E+04</totfact>
</mgrwt>
</event>
<event>
 4    1  0.4025504E+000  0.1768270E+03  0.7546771E-02  0.1170910E+00
         21   -1    0    0  501  502  0.00000000000E+00  0.00000000000E+00  0.25473059352E+03  0.25473059352E+03  0.00000000000E+00 0. -1.
         21   -1    0    0  502  503 -0.00000000000E+00 -0.00000000000E+00 -0.14614101073E+03  0.14614101073E+03  0.00000000000E+00 0.  1.
          6    1    1    2  501    0 -0.29692704570E+02 -0.21380915576E+02 -0.25896570827E+02  0.17871326933E+03  0.17300000000E+03 0.  1.
         -6    1    1    2    0  503  0.29692704570E+02  0.21380915576E+02  0.13448615362E+03  0.22215833491E+03  0.17300000000E+03 0.  1.
<mgrwt>
<rscale>  2 0.17682703E+03</rscale>
<asrwt>0</asrwt>
<pdfrwt beam="1">  1       21 0.39189322E-01 0.17682703E+03</pdfrwt>
<pdfrwt beam="2">  1       21 0.22483232E-01 0.17682703E+03</pdfrwt>
<totfact> 0.11696808E+05</totfact>
</mgrwt>
</event>
<event>
 4    1  0.4025504E+000  0.1999504E+03  0.7546771E-02  0.1149781E+00
         21   -1    0    0  501  502  0.00000000000E+00  0.00000000000E+00  0.22149396077E+03  0.22149396077E+03  0.00000000000E+00 0. -1.
         21   -1    0    0  502  503 -0.00000000000E+00 -0.00000000000E+00 -0.18476227592E+03  0.18476227592E+03  0.00000000000E+00 0. -1.
          6    1    1    2  501    0 -0.94759668031E+02  0.32737759790E+02 -0.12478117574E+02  0.20033935964E+03  0.17300000000E+03 0.  1.
         -6    1    1    2    0  503  0.94759668031E+02 -0.32737759790E+02  0.49209802426E+02  0.20591687706E+03  0.17300000000E+03 0.  1.
<mgrwt>
<rscale>  2 0.19995038E+03</rscale>
<asrwt>0</asrwt>
<pdfrwt beam="1">  1       21 0.34075994E-01 0.19995038E+03</pdfrwt>
<pdfrwt beam="2">  1       21 0.28424965E-01 0.19995038E+03</pdfrwt>
<totfact> 0.97902760E+04</totfact>
</mgrwt>
</event>
<event>
 4    1  0.4025504E+000  0.1770172E+03  0.7546771E-02  0.1170721E+00
         21   -1    0    0  503  502  0.00000000000E+00  0.00000000000E+00  0.54309299832E+03  0.54309299832E+03  0.00000000000E+00 0.  1.
         21   -1    0    0  501  503 -0.00000000000E+00 -0.00000000000E+00 -0.24580809994E+03  0.24580809994E+03  0.00000000000E+00 0.  1.
          6    1    1    2  501    0  0.80797768576E+01  0.36617149877E+02 -0.19642272105E+03  0.26441819870E+03  0.17300000000E+03 0.  1.
         -6    1    1    2    0  502 -0.80797768576E+01 -0.36617149877E+02  0.49370761942E+03  0.52448289956E+03  0.17300000000E+03 0.  1.
<mgrwt>
<rscale>  2 0.17701723E+03</rscale>
<asrwt>0</asrwt>
<pdfrwt beam="1">  1       21 0.83552769E-01 0.17701723E+03</pdfrwt>
<pdfrwt beam="2">  1       21 0.37816631E-01 0.17701723E+03</pdfrwt>
<totfact> 0.85000797E+03</totfact>
</mgrwt>
</event>
<event>
 4    1  0.4025504E+000  0.2176222E+03  0.7546771E-02  0.1135668E+00
         21   -1    0    0  501  502  0.00000000000E+00  0.00000000000E+00  0.22311227873E+04  0.22311227873E+04  0.00000000000E+00 0.  1.
         21   -1    0    0  502  503 -0.00000000000E+00 -0.00000000000E+00 -0.34470796787E+02  0.34470796787E+02  0.00000000000E+00 0.  1.
          6    1    1    2  501    0 -0.93705507058E+02  0.93003646077E+02  0.18004880076E+04  0.18135921443E+04  0.17300000000E+03 0.  1.
         -6    1    1    2    0  503  0.93705507058E+02 -0.93003646077E+02  0.39616398287E+03  0.45200143978E+03  0.17300000000E+03 0.  1.
<mgrwt>
<rscale>  2 0.21762215E+03</rscale>
<asrwt>0</asrwt>
<pdfrwt beam="1">  1       21 0.34324955E+00 0.21762215E+03</pdfrwt>
<pdfrwt beam="2">  1       21 0.53032013E-02 0.21762215E+03</pdfrwt>
<totfact> 0.45262880E+03</totfact>
</mgrwt>
</event>
<event>
 4    1  0.4025504E+000  0.1740697E+03  0.7546771E-02  0.1173669E+00
         21   -1    0    0  503  502  0.00000000000E+00  0.00000000000E+00  0.71368392671E+03  0.71368392671E+03  0.00000000000E+00 0.  1.
         21   -1    0    0  501  503 -0.00000000000E+00 -0.00000000000E+00 -0.44264416549E+02  0.44264416549E+02  0.00000000000E+00 0.  1.
          6    1    1    2  501    0  0.17134045880E+02  0.88138379566E+01  0.41130742887E+03  0.44662518997E+03  0.17300000000E+03 0.  1.
         -6    1    1    2    0  502 -0.17134045880E+02 -0.88138379566E+01  0.25811208129E+03  0.31132315329E+03  0.17300000000E+03 0.  1.
<mgrwt>
<rscale>  2 0.17406970E+03</rscale>
<asrwt>0</asrwt>
<pdfrwt beam="1">  1       21 0.10979752E+00 0.17406970E+03</pdfrwt>
<pdfrwt beam="2">  1       21 0.68099108E-02 0.17406970E+03</pdfrwt>
<totfact> 0.10487864E+05</totfact>
</mgrwt>
</event>
<event>
 4    1  0.4025504E+000  0.1760371E+03  0.7546771E-02  0.1171694E+00
         21   -1    0    0  503  502  0.00000000000E+00  0.00000000000E+00  0.43314345496E+02  0.43314345496E+02  0.00000000000E+00 0. -1.
         21   -1    0    0  501  503 -0.00000000000E+00 -0.00000000000E+00 -0.71701179112E+03  0.71701179112E+03  0.00000000000E+00 0. -1.
          6    1    1    2  501    0 -0.23663792366E+01  0.32472449431E+02 -0.31908134550E+03  0.36442003892E+03  0.17300000000E+03 0. -1.
         -6    1    1    2    0  502  0.23663792366E+01 -0.32472449431E+02 -0.35461610013E+03  0.39590609770E+03  0.17300000000E+03 0. -1.
<mgrwt>
<rscale>  2 0.17603710E+03</rscale>
<asrwt>0</asrwt>
<pdfrwt beam="1">  1       21 0.66637457E-02 0.17603710E+03</pdfrwt>
<pdfrwt beam="2">  1       21 0.11030950E+00 0.17603710E+03</pdfrwt>
<totfact> 0.10755891E+05</totfact>
</mgrwt>
</event>
<event>
 4    1  0.4025504E+000  0.2441381E+03  0.7546771E-02  0.1117066E+00
         21   -1    0    0  503  502  0.00000000000E+00  0.00000000000E+00  0.13612943730E+03  0.13612943730E+03  0.00000000000E+00 0. -1.
         21   -1    0    0  501  503 -0.00000000000E+00 -0.00000000000E+00 -0.51824928164E+03  0.51824928164E+03  0.00000000000E+00 0. -1.
          6    1    1    2  501    0  0.15138947428E+03  0.82192663103E+02 -0.31993623692E+03  0.40244577583E+03  0.17300000000E+03 0. -1.
         -6    1    1    2    0  502 -0.15138947428E+03 -0.82192663103E+02 -0.62183607429E+02  0.25193294311E+03  0.17300000000E+03 0. -1.
<mgrwt>
<rscale>  2 0.24413809E+03</rscale>
<asrwt>0</asrwt>
<pdfrwt beam="1">  1       21 0.20942991E-01 0.24413809E+03</pdfrwt>
<pdfrwt beam="2">  1       21 0.79730658E-01 0.24413809E+03</pdfrwt>
<totfact> 0.28570256E+04</totfact>
</mgrwt>
</event>
<event>
 4    1  0.4025504E+000  0.1854743E+03  0.7546771E-02  0.1162608E+00
         21   -1    0    0  503  502  0.00000000000E+00  0.00000000000E+00  0.47029136619E+03  0.47029136619E+03  0.00000000000E+00 0.  1.
         21   -1    0    0  501  503 -0.00000000000E+00 -0.00000000000E+00 -0.73182403566E+02  0.73182403566E+02  0.00000000000E+00 0. -1.
          6    1    1    2  501    0 -0.44344738477E+02 -0.50052533035E+02  0.19263346099E+03  0.26741047509E+03  0.17300000000E+03 0.  1.
         -6    1    1    2    0  502  0.44344738477E+02  0.50052533035E+02  0.20447550163E+03  0.27606329466E+03  0.17300000000E+03 0.  1.
<mgrwt>
<rscale>  2 0.18547429E+03</rscale>
<asrwt>0</asrwt>
<pdfrwt beam="1">  1       21 0.72352516E-01 0.18547429E+03</pdfrwt>
<pdfrwt beam="2">  1       21 0.11258832E-01 0.18547429E+03</pdfrwt>
<totfact> 0.11355159E+05</totfact>
</mgrwt>
</event>
<event>
 4    1  0.4025504E+000  0.3506886E+03  0.7546771E-02  0.1062333E+00
         21   -1    0    0  501  502  0.00000000000E+00  0.00000000000E+00  0.55711532535E+03  0.55711532535E+03  0.00000000000E+00 0. -1.
         21   -1    0    0  502  503 -0.00000000000E+00 -0.00000000000E+00 -0.22121137197E+03  0.22121137197E+03  0.00000000000E+00 0.  1.
          6    1    1    2  501    0  0.30440162425E+03  0.19827177948E+02  0.15015361793E+03  0.38148207665E+03  0.17300000000E+03 0. -1.
         -6    1    1    2    0  503 -0.30440162425E+03 -0.19827177948E+02  0.18575033546E+03  0.39684462067E+03  0.17300000000E+03 0. -1.
<mgrwt>
<rscale>  2 0.35068856E+03</rscale>
<asrwt>0</asrwt>
<pdfrwt beam="1">  1       21 0.85710050E-01 0.35068856E+03</pdfrwt>
<pdfrwt beam="2">  1       21 0.34032519E-01 0.35068856E+03</pdfrwt>
<totfact> 0.89956031E+03</totfact>
</mgrwt>
</event>
<event>
 4    1  0.4025504E+000  0.1838668E+03  0.7546771E-02  0.1164112E+00
         21   -1    0    0  501  502  0.00000000000E+00  0.00000000000E+00  0.78614688430E+03  0.78614688430E+03  0.00000000000E+00 0. -1.
         21   -1    0    0  502  503 -0.00000000000E+00 -0.00000000000E+00 -0.10056674715E+03  0.10056674715E+03  0.00000000000E+00 0. -1.
          6    1    1    2  501    0  0.33850483768E+02 -0.52270000583E+02  0.67821791565E+03  0.70269947298E+03  0.17300000000E+03 0. -1.
         -6    1    1    2    0  503 -0.33850483768E+02  0.52270000583E+02  0.73622214935E+01  0.18401415847E+03  0.17300000000E+03 0. -1.
<mgrwt>
<rscale>  2 0.18386682E+03</rscale>
<asrwt>0</asrwt>
<pdfrwt beam="1">  1       21 0.12094567E+00 0.18386682E+03</pdfrwt>
<pdfrwt beam="2">  1       21 0.15471808E-01 0.18386682E+03</pdfrwt>
<totfact> 0.19309470E+04</totfact>
</mgrwt>
</event>
<event>
 4    1  0.4025504E+000  0.2110320E+03  0.7546771E-02  0.1140751E+00
         21   -1    0    0  503  502  0.00000000000E+00  0.00000000000E+00  0.21030180319E+04  0.21030180319E+04  0.00000000000E+00 0. -1.
         21   -1    0    0  501  503 -0.00000000000E+00 -0.00000000000E+00 -0.39991609516E+02  0.39991609516E+02  0.00000000000E+00 0. -1.
          6    1    1    2  501    0  0.88284745548E+02 -0.82530738907E+02  0.29655390319E+03  0.36397628584E+03  0.17300000000E+03 0. -1.
         -6    1    1    2    0  502 -0.88284745548E+02  0.82530738907E+02  0.17664725192E+04  0.17790333556E+04  0.17300000000E+03 0. -1.
<mgrwt>
<rscale>  2 0.21103203E+03</rscale>
<asrwt>0</asrwt>
<pdfrwt beam="1">  1       21 0.32354115E+00 0.21103203E+03</pdfrwt>
<pdfrwt beam="2">  1       21 0.61525570E-02 0.21103203E+03</pdfrwt>
<totfact> 0.46148295E+03</totfact>
</mgrwt>
</event>
<event>
 4    1  0.4025504E+000  0.2323821E+03  0.7546771E-02  0.1124974E+00
         21   -1    0    0  501  502  0.00000000000E+00  0.00000000000E+00  0.50546513811E+03  0.50546513811E+03  0.00000000000E+00 0.  1.
         21   -1    0    0  502  503 -0.00000000000E+00 -0.00000000000E+00 -0.10702867573E+03  0.10702867573E+03  0.00000000000E+00 0.  1.
          6    1    1    2  501    0 -0.13713003880E+03 -0.72579507838E+02  0.21224138567E+03  0.31471866530E+03  0.17300000000E+03 0.  1.
         -6    1    1    2    0  503  0.13713003880E+03  0.72579507838E+02  0.18619507670E+03  0.29777514854E+03  0.17300000000E+03 0.  1.
<mgrwt>
<rscale>  2 0.23238208E+03</rscale>
<asrwt>0</asrwt>
<pdfrwt beam="1">  1       21 0.77763866E-01 0.23238208E+03</pdfrwt>
<pdfrwt beam="2">  1       21 0.16465950E-01 0.23238208E+03</pdfrwt>
<totfact> 0.47589239E+04</totfact>
</mgrwt>
</event>
<event>
 4    1  0.4025504E+000  0.1794716E+03  0.7546771E-02  0.1168315E+00
         21   -1    0    0  501  502  0.00000000000E+00  0.00000000000E+00  0.49737433381E+03  0.49737433381E+03  0.00000000000E+00 0. -1.
         21   -1    0    0  502  503 -0.00000000000E+00 -0.00000000000E+00 -0.79704852794E+02  0.79704852794E+02  0.00000000000E+00 0. -1.
          6    1    1    2  501    0  0.11066005457E+02  0.46460709277E+02  0.33377608147E+03  0.37896771174E+03  0.17300000000E+03 0. -1.
         -6    1    1    2    0  503 -0.11066005457E+02 -0.46460709277E+02  0.83893399546E+02  0.19811147486E+03  0.17300000000E+03 0. -1.
<mgrwt>
<rscale>  2 0.17947160E+03</rscale>
<asrwt>0</asrwt>
<pdfrwt beam="1">  1       21 0.76519126E-01 0.17947160E+03</pdfrwt>
<pdfrwt beam="2">  1       21 0.12262285E-01 0.17947160E+03</pdfrwt>
<totfact> 0.86286348E+04</totfact>
</mgrwt>
</event>
<event>
 4    1  0.4025504E+000  0.2508755E+03  0.7546771E-02  0.1112753E+00
         21   -1    0    0  503  502  0.00000000000E+00  0.00000000000E+00  0.11018538723E+04  0.11018538723E+04  0.00000000000E+00 0. -1.
         21   -1    0    0  501  503 -0.00000000000E+00 -0.00000000000E+00 -0.57299468903E+02  0.57299468903E+02  0.00000000000E+00 0. -1.
          6    1    1    2  501    0  0.17500119234E+03  0.48827477691E+02  0.48989406731E+03  0.55039507363E+03  0.17300000000E+03 0. -1.
         -6    1    1    2    0  502 -0.17500119234E+03 -0.48827477691E+02  0.55466033606E+03  0.60875826754E+03  0.17300000000E+03 0. -1.
<mgrwt>
<rscale>  2 0.25087555E+03</rscale>
<asrwt>0</asrwt>
<pdfrwt beam="1">  1       21 0.16951596E+00 0.25087555E+03</pdfrwt>
<pdfrwt beam="2">  1       21 0.88153037E-02 0.25087555E+03</pdfrwt>
<totfact> 0.20998947E+04</totfact>
</mgrwt>
</event>
<event>
 4    1  0.4025504E+000  0.1764439E+03  0.7546771E-02  0.1171290E+00
         21   -1    0    0  501  502  0.00000000000E+00  0.00000000000E+00  0.18175116988E+03  0.18175116988E+03  0.00000000000E+00 0.  1.
         21   -1    0    0  502  503 -0.00000000000E+00 -0.00000000000E+00 -0.31809672150E+03  0.31809672150E+03  0.00000000000E+00 0.  1.
          6    1    1    2  501    0  0.10524603914E+01 -0.34674707301E+02  0.10161206896E+03  0.20361103987E+03  0.17300000000E+03 0.  1.
         -6    1    1    2    0  503 -0.10524603914E+01  0.34674707301E+02 -0.23795762058E+03  0.29623685151E+03  0.17300000000E+03 0.  1.
<mgrwt>
<rscale>  2 0.17644388E+03</rscale>
<asrwt>0</asrwt>
<pdfrwt beam="1">  1       21 0.27961719E-01 0.17644388E+03</pdfrwt>
<pdfrwt beam="2">  1       21 0.48937956E-01 0.17644388E+03</pdfrwt>
<totfact> 0.49052946E+04</totfact>
</mgrwt>
</event>
<event>
 4    1  0.4025504E+000  0.2515214E+03  0.7546771E-02  0.1112347E+00
         21   -1    0    0  501  502  0.00000000000E+00  0.00000000000E+00  0.16858553218E+03  0.16858553218E+03  0.00000000000E+00 0. -1.
         21   -1    0    0  502  503 -0.00000000000E+00 -0.00000000000E+00 -0.43689767984E+03  0.43689767984E+03  0.00000000000E+00 0.  1.
          6    1    1    2  501    0 -0.16064977600E+03  0.86750644031E+02 -0.24786992445E+03  0.35313244571E+03  0.17300000000E+03 0.  1.
         -6    1    1    2    0  503  0.16064977600E+03 -0.86750644031E+02 -0.20442223213E+02  0.25235076631E+03  0.17300000000E+03 0. -1.
<mgrwt>
<rscale>  2 0.25152142E+03</rscale>
<asrwt>0</asrwt>
<pdfrwt beam="1">  1       21 0.25936236E-01 0.25152142E+03</pdfrwt>
<pdfrwt beam="2">  1       21 0.67215027E-01 0.25152142E+03</pdfrwt>
<totfact> 0.27752672E+04</totfact>
</mgrwt>
</event>
<event>
 4    1  0.4025504E+000  0.2243727E+03  0.7546771E-02  0.1130664E+00
         21   -1    0    0  501  502  0.00000000000E+00  0.00000000000E+00  0.97427684899E+02  0.97427684899E+02  0.00000000000E+00 0. -1.
         21   -1    0    0  502  503 -0.00000000000E+00 -0.00000000000E+00 -0.54026004408E+03  0.54026004408E+03  0.00000000000E+00 0.  1.
          6    1    1    2  501    0  0.35681612539E+02  0.13835074359E+03 -0.15486519515E+03  0.27262856489E+03  0.17300000000E+03 0. -1.
         -6    1    1    2    0  503 -0.35681612539E+02 -0.13835074359E+03 -0.28796716402E+03  0.36505916408E+03  0.17300000000E+03 0.  1.
<mgrwt>
<rscale>  2 0.22437269E+03</rscale>
<asrwt>0</asrwt>
<pdfrwt beam="1">  1       21 0.14988875E-01 0.22437269E+03</pdfrwt>
<pdfrwt beam="2">  1       21 0.83116930E-01 0.22437269E+03</pdfrwt>
<totfact> 0.48781573E+04</totfact>
</mgrwt>
</event>
<event>
 4    1  0.4025504E+000  0.1857699E+03  0.7546771E-02  0.1162333E+00
         21   -1    0    0  501  502  0.00000000000E+00  0.00000000000E+00  0.18995090027E+03  0.18995090027E+03  0.00000000000E+00 0. -1.
         21   -1    0    0  502  503 -0.00000000000E+00 -0.00000000000E+00 -0.20789324588E+03  0.20789324588E+03  0.00000000000E+00 0. -1.
          6    1    1    2  501    0  0.65802755562E+02 -0.15857393934E+02  0.61663076893E+02  0.19573654394E+03  0.17300000000E+03 0. -1.
         -6    1    1    2    0  503 -0.65802755562E+02  0.15857393934E+02 -0.79605422500E+02  0.20210760222E+03  0.17300000000E+03 0. -1.
<mgrwt>
<rscale>  2 0.18576991E+03</rscale>
<asrwt>0</asrwt>
<pdfrwt beam="1">  1       21 0.29223216E-01 0.18576991E+03</pdfrwt>
<pdfrwt beam="2">  1       21 0.31983576E-01 0.18576991E+03</pdfrwt>
<totfact> 0.10570083E+05</totfact>
</mgrwt>
</event>
<event>
 4    1  0.4025504E+000  0.1743918E+03  0.7546771E-02  0.1173344E+00
         21   -1    0    0  501  502  0.00000000000E+00  0.00000000000E+00  0.49433038506E+02  0.49433038506E+02  0.00000000000E+00 0. -1.
         21   -1    0    0  502  503 -0.00000000000E+00 -0.00000000000E+00 -0.80412130424E+03  0.80412130424E+03  0.00000000000E+00 0. -1.
          6    1    1    2  501    0  0.12205780847E+02  0.18289661079E+02 -0.17049632376E+03  0.24388827197E+03  0.17300000000E+03 0. -1.
         -6    1    1    2    0  503 -0.12205780847E+02 -0.18289661079E+02 -0.58419194197E+03  0.60966607077E+03  0.17300000000E+03 0. -1.
<mgrwt>
<rscale>  2 0.17439178E+03</rscale>
<asrwt>0</asrwt>
<pdfrwt beam="1">  1       21 0.76050831E-02 0.17439178E+03</pdfrwt>
<pdfrwt beam="2">  1       21 0.12371097E+00 0.17439178E+03</pdfrwt>
<totfact> 0.64735788E+04</totfact>
</mgrwt>
</event>
<event>
 4    1  0.4025504E+000  0.2780878E+03  0.7546771E-02  0.1096738E+00
         21   -1    0    0  501  502  0.00000000000E+00  0.00000000000E+00  0.20676312312E+04  0.20676312312E+04  0.00000000000E+00 0. -1.
         21   -1    0    0  502  503 -0.00000000000E+00 -0.00000000000E+00 -0.54934395286E+02  0.54934395286E+02  0.00000000000E+00 0.  1.
          6    1    1    2  501    0 -0.21412579431E+03  0.39420175776E+02  0.40678655519E+03  0.49275562659E+03  0.17300000000E+03 0. -1.
         -6    1    1    2    0  503  0.21412579431E+03 -0.39420175776E+02  0.16059102807E+04  0.16298099999E+04  0.17300000000E+03 0. -1.
<mgrwt>
<rscale>  2 0.27808777E+03</rscale>
<asrwt>0</asrwt>
<pdfrwt beam="1">  1       21 0.31809705E+00 0.27808777E+03</pdfrwt>
<pdfrwt beam="2">  1       21 0.84514470E-02 0.27808777E+03</pdfrwt>
<totfact> 0.26746049E+03</totfact>
</mgrwt>
</event>
<event>
 4    1  0.4025504E+000  0.2899744E+03  0.7546771E-02  0.1090363E+00
         21   -1    0    0  503  502  0.00000000000E+00  0.00000000000E+00  0.35309228799E+03  0.35309228799E+03  0.00000000000E+00 0. -1.
         21   -1    0    0  501  503 -0.00000000000E+00 -0.00000000000E+00 -0.24478892022E+03  0.24478892022E+03  0.00000000000E+00 0.  1.
          6    1    1    2  501    0  0.20737858557E+03 -0.10559490354E+03  0.48812458611E+01  0.29001549608E+03  0.17300000000E+03 0.  1.
         -6    1    1    2    0  502 -0.20737858557E+03  0.10559490354E+03  0.10342212191E+03  0.30786571213E+03  0.17300000000E+03 0. -1.
<mgrwt>
<rscale>  2 0.28997442E+03</rscale>
<asrwt>0</asrwt>
<pdfrwt beam="1">  1       21 0.54321891E-01 0.28997442E+03</pdfrwt>
<pdfrwt beam="2">  1       21 0.37659834E-01 0.28997442E+03</pdfrwt>
<totfact> 0.20741979E+04</totfact>
</mgrwt>
</event>
<event>
 4    1  0.4025504E+000  0.1855358E+03  0.7546771E-02  0.1162551E+00
         21   -1    0    0  503  502  0.00000000000E+00  0.00000000000E+00  0.25493678534E+03  0.25493678534E+03  0.00000000000E+00 0.  1.
         21   -1    0    0  501  503 -0.00000000000E+00 -0.00000000000E+00 -0.24704235309E+03  0.24704235309E+03  0.00000000000E+00 0.  1.
          6    1    1    2  501    0  0.22023089479E+02 -0.63320711871E+02 -0.16506082771E+03  0.24833164491E+03  0.17300000000E+03 0.  1.
         -6    1    1    2    0  502 -0.22023089479E+02  0.63320711871E+02  0.17295525995E+03  0.25364749351E+03  0.17300000000E+03 0.  1.
<mgrwt>
<rscale>  2 0.18553579E+03</rscale>
<asrwt>0</asrwt>
<pdfrwt beam="1">  1       21 0.39221044E-01 0.18553579E+03</pdfrwt>
<pdfrwt beam="2">  1       21 0.38006516E-01 0.18553579E+03</pdfrwt>
<totfact> 0.41988777E+04</totfact>
</mgrwt>
</event>
<event>
 4    1  0.4025504E+000  0.1734209E+03  0.7546771E-02  0.1174327E+00
         21   -1    0    0  503  502  0.00000000000E+00  0.00000000000E+00  0.41818107943E+03  0.41818107943E+03  0.00000000000E+00 0.  1.
         21   -1    0    0  501  503 -0.00000000000E+00 -0.00000000000E+00 -0.16330832256E+03  0.16330832256E+03  0.00000000000E+00 0.  1.
          6    1    1    2  501    0  0.11906171069E+02  0.20092215873E+01 -0.90062733073E+02  0.19541261415E+03  0.17300000000E+03 0.  1.
         -6    1    1    2    0  502 -0.11906171069E+02 -0.20092215873E+01  0.34493548994E+03  0.38607678783E+03  0.17300000000E+03 0.  1.
<mgrwt>
<rscale>  2 0.17342086E+03</rscale>
<asrwt>0</asrwt>
<pdfrwt beam="1">  1       21 0.64335550E-01 0.17342086E+03</pdfrwt>
<pdfrwt beam="2">  1       21 0.25124358E-01 0.17342086E+03</pdfrwt>
<totfact> 0.33786358E+04</totfact>
</mgrwt>
</event>
<event>
 4    1  0.4025504E+000  0.2037183E+03  0.7546771E-02  0.1146639E+00
         21   -1    0    0  503  502  0.00000000000E+00  0.00000000000E+00  0.60011807769E+03  0.60011807769E+03  0.00000000000E+00 0. -1.
         21   -1    0    0  501  503 -0.00000000000E+00 -0.00000000000E+00 -0.16703335324E+03  0.16703335324E+03  0.00000000000E+00 0.  1.
          6    1    1    2  501    0 -0.10293935283E+03  0.31235360850E+02 -0.77082522112E+02  0.21781385021E+03  0.17300000000E+03 0.  1.
         -6    1    1    2    0  502  0.10293935283E+03 -0.31235360850E+02  0.51016724656E+03  0.54933758072E+03  0.17300000000E+03 0. -1.
<mgrwt>
<rscale>  2 0.20371833E+03</rscale>
<asrwt>0</asrwt>
<pdfrwt beam="1">  1       21 0.92325857E-01 0.20371833E+03</pdfrwt>
<pdfrwt beam="2">  1       21 0.25697439E-01 0.20371833E+03</pdfrwt>
<totfact> 0.14126323E+04</totfact>
</mgrwt>
</event>
<event>
 4    1  0.4025504E+000  0.1765645E+03  0.7546771E-02  0.1171170E+00
         21   -1    0    0  501  502  0.00000000000E+00  0.00000000000E+00  0.32415617100E+03  0.32415617100E+03  0.00000000000E+00 0.  1.
         21   -1    0    0  502  503 -0.00000000000E+00 -0.00000000000E+00 -0.16210078068E+03  0.16210078068E+03  0.00000000000E+00 0. -1.
          6    1    1    2  501    0  0.35126542457E+02  0.34850509498E+01  0.23607992973E+03  0.29480290498E+03  0.17300000000E+03 0.  1.
         -6    1    1    2    0  503 -0.35126542457E+02 -0.34850509498E+01 -0.74024539408E+02  0.19145404670E+03  0.17300000000E+03 0. -1.
<mgrwt>
<rscale>  2 0.17656449E+03</rscale>
<asrwt>0</asrwt>
<pdfrwt beam="1">  1       21 0.49870180E-01 0.17656449E+03</pdfrwt>
<pdfrwt beam="2">  1       21 0.24938582E-01 0.17656449E+03</pdfrwt>
<totfact> 0.58728654E+04</totfact>
</mgrwt>
</event>
<event>
 4    1  0.4025504E+000  0.2305079E+03  0.7546771E-02  0.1126283E+00
         21   -1    0    0  501  502  0.00000000000E+00  0.00000000000E+00  0.10321244103E+04  0.10321244103E+04  0.00000000000E+00 0. -1.
         21   -1    0    0  502  503 -0.00000000000E+00 -0.00000000000E+00 -0.53214613580E+02  0.53214613580E+02  0.00000000000E+00 0.  1.
          6    1    1    2  501    0  0.13488694037E+03 -0.70784266825E+02  0.58742758715E+03  0.63103491921E+03  0.17300000000E+03 0. -1.
         -6    1    1    2    0  503 -0.13488694037E+03  0.70784266825E+02  0.39148220955E+03  0.45430410465E+03  0.17300000000E+03 0.  1.
<mgrwt>
<rscale>  2 0.23050792E+03</rscale>
<asrwt>0</asrwt>
<pdfrwt beam="1">  1       21 0.15878836E+00 0.23050792E+03</pdfrwt>
<pdfrwt beam="2">  1       21 0.81868644E-02 0.23050792E+03</pdfrwt>
<totfact> 0.28935407E+04</totfact>
</mgrwt>
</event>
<event>
 4    1  0.4025504E+000  0.1846125E+03  0.7546771E-02  0.1163412E+00
         21   -1    0    0  501  502  0.00000000000E+00  0.00000000000E+00  0.19931259769E+03  0.19931259769E+03  0.00000000000E+00 0. -1.
         21   -1    0    0  502  503 -0.00000000000E+00 -0.00000000000E+00 -0.27353085707E+03  0.27353085707E+03  0.00000000000E+00 0. -1.
          6    1    1    2  501    0  0.64435057382E+02 -0.93862759168E+00  0.10764098560E+03  0.21370151947E+03  0.17300000000E+03 0. -1.
         -6    1    1    2    0  503 -0.64435057382E+02  0.93862759168E+00 -0.18185924498E+03  0.25914193529E+03  0.17300000000E+03 0. -1.
<mgrwt>
<rscale>  2 0.18461245E+03</rscale>
<asrwt>0</asrwt>
<pdfrwt beam="1">  1       21 0.30663477E-01 0.18461245E+03</pdfrwt>
<pdfrwt beam="2">  1       21 0.42081670E-01 0.18461245E+03</pdfrwt>
<totfact> 0.55695541E+04</totfact>
</mgrwt>
</event>
<event>
 4    1  0.4025504E+000  0.2030164E+03  0.7546771E-02  0.1147219E+00
         21   -1    0    0  501  502  0.00000000000E+00  0.00000000000E+00  0.72797221833E+02  0.72797221833E+02  0.00000000000E+00 0.  1.
         21   -1    0    0  502  503 -0.00000000000E+00 -0.00000000000E+00 -0.65025689684E+03  0.65025689684E+03  0.00000000000E+00 0.  1.
          6    1    1    2  501    0 -0.10263539424E+03 -0.27434479370E+02 -0.15872487108E+03  0.25769994084E+03  0.17300000000E+03 0.  1.
         -6    1    1    2    0  503  0.10263539424E+03  0.27434479370E+02 -0.41873480393E+03  0.46535417783E+03  0.17300000000E+03 0.  1.
<mgrwt>
<rscale>  2 0.20301644E+03</rscale>
<asrwt>0</asrwt>
<pdfrwt beam="1">  1       21 0.11199573E-01 0.20301644E+03</pdfrwt>
<pdfrwt beam="2">  1       21 0.10003952E+00 0.20301644E+03</pdfrwt>
<totfact> 0.54157613E+04</totfact>
</mgrwt>
</event>
<event>
 4    1  0.4025504E+000  0.3398757E+03  0.7546771E-02  0.1066849E+00
         21   -1    0    0  503  502  0.00000000000E+00  0.00000000000E+00  0.20032711782E+03  0.20032711782E+03  0.00000000000E+00 0. -1.
         21   -1    0    0  501  503 -0.00000000000E+00 -0.00000000000E+00 -0.59895688068E+03  0.59895688068E+03  0.00000000000E+00 0.  1.
          6    1    1    2  501    0 -0.27040240440E+03  0.11166467272E+03 -0.27646683016E+03  0.43812026616E+03  0.17300000000E+03 0.  1.
         -6    1    1    2    0  502  0.27040240440E+03 -0.11166467272E+03 -0.12216293269E+03  0.36116373234E+03  0.17300000000E+03 0. -1.
<mgrwt>
<rscale>  2 0.33987565E+03</rscale>
<asrwt>0</asrwt>
<pdfrwt beam="1">  1       21 0.30819557E-01 0.33987565E+03</pdfrwt>
<pdfrwt beam="2">  1       21 0.92147211E-01 0.33987565E+03</pdfrwt>
<totfact> 0.92888484E+03</totfact>
</mgrwt>
</event>
<event>
 4    1  0.4025504E+000  0.1920223E+03  0.7546771E-02  0.1156650E+00
         21   -1    0    0  501  502  0.00000000000E+00  0.00000000000E+00  0.60677134165E+02  0.60677134165E+02  0.00000000000E+00 0.  1.
         21   -1    0    0  502  503 -0.00000000000E+00 -0.00000000000E+00 -0.60882821180E+03  0.60882821180E+03  0.00000000000E+00 0.  1.
          6    1    1    2  501    0 -0.54441771089E+02 -0.63084474113E+02 -0.28858410196E+03  0.34663141983E+03  0.17300000000E+03 0.  1.
         -6    1    1    2    0  503  0.54441771089E+02  0.63084474113E+02 -0.25956697568E+03  0.32287392614E+03  0.17300000000E+03 0.  1.
<mgrwt>
<rscale>  2 0.19202228E+03</rscale>
<asrwt>0</asrwt>
<pdfrwt beam="1">  1       21 0.93349434E-02 0.19202228E+03</pdfrwt>
<pdfrwt beam="2">  1       21 0.93665882E-01 0.19202228E+03</pdfrwt>
<totfact> 0.87742389E+04</totfact>
</mgrwt>
</event>
<event>
 4    1  0.4025504E+000  0.1949639E+03  0.7546771E-02  0.1154059E+00
         21   -1    0    0  503  502  0.00000000000E+00  0.00000000000E+00  0.56065397759E+03  0.56065397759E+03  0.00000000000E+00 0. -1.
         21   -1    0    0  501  503 -0.00000000000E+00 -0.00000000000E+00 -0.70396045973E+02  0.70396045973E+02  0.00000000000E+00 0. -1.
          6    1    1    2  501    0 -0.84557181826E+02 -0.30528869577E+02  0.18450752871E+03  0.26842868145E+03  0.17300000000E+03 0.  1.
         -6    1    1    2    0  502  0.84557181826E+02  0.30528869577E+02  0.30575040291E+03  0.36262134211E+03  0.17300000000E+03 0.  1.
<mgrwt>
<rscale>  2 0.19496392E+03</rscale>
<asrwt>0</asrwt>
<pdfrwt beam="1">  1       21 0.86254455E-01 0.19496392E+03</pdfrwt>
<pdfrwt beam="2">  1       21 0.10830161E-01 0.19496392E+03</pdfrwt>
<totfact> 0.81555600E+04</totfact>
</mgrwt>
</event>
<event>
 4    1  0.4025504E+000  0.1967255E+03  0.7546771E-02  0.1152531E+00
         21   -1    0    0  503  502  0.00000000000E+00  0.00000000000E+00  0.32343709090E+03  0.32343709090E+03  0.00000000000E+00 0. -1.
         21   -1    0    0  501  503 -0.00000000000E+00 -0.00000000000E+00 -0.36616282662E+03  0.36616282662E+03  0.00000000000E+00 0. -1.
          6    1    1    2  501    0 -0.88311226118E+02 -0.31193609540E+02 -0.30427091612E+03  0.36232817214E+03  0.17300000000E+03 0. -1.
         -6    1    1    2    0  502  0.88311226118E+02  0.31193609540E+02  0.26154518039E+03  0.32727174537E+03  0.17300000000E+03 0. -1.
<mgrwt>
<rscale>  2 0.19672548E+03</rscale>
<asrwt>0</asrwt>
<pdfrwt beam="1">  1       21 0.49759553E-01 0.19672548E+03</pdfrwt>
<pdfrwt beam="2">  1       21 0.56332742E-01 0.19672548E+03</pdfrwt>
<totfact> 0.11380269E+04</totfact>
</mgrwt>
</event>
<event>
 4    1  0.4025504E+000  0.2374917E+03  0.7546771E-02  0.1121475E+00
         21   -1    0    0  503  502  0.00000000000E+00  0.00000000000E+00  0.14661297373E+03  0.14661297373E+03  0.00000000000E+00 0. -1.
         21   -1    0    0  501  503 -0.00000000000E+00 -0.00000000000E+00 -0.67527406995E+03  0.67527406995E+03  0.00000000000E+00 0. -1.
          6    1    1    2  501    0 -0.11172256569E+03  0.11828507148E+03 -0.53389902752E+03  0.58433762621E+03  0.17300000000E+03 0. -1.
         -6    1    1    2    0  502  0.11172256569E+03 -0.11828507148E+03  0.52379313015E+01  0.23754941748E+03  0.17300000000E+03 0. -1.
<mgrwt>
<rscale>  2 0.23749166E+03</rscale>
<asrwt>0</asrwt>
<pdfrwt beam="1">  1       21 0.22555842E-01 0.23749166E+03</pdfrwt>
<pdfrwt beam="2">  1       21 0.10388832E+00 0.23749166E+03</pdfrwt>
<totfact> 0.13419781E+04</totfact>
</mgrwt>
</event>
<event>
 4    1  0.4025504E+000  0.1931355E+03  0.7546771E-02  0.1155663E+00
         21   -1    0    0  503  502  0.00000000000E+00  0.00000000000E+00  0.37373460901E+02  0.37373460901E+02  0.00000000000E+00 0. -1.
         21   -1    0    0  501  503 -0.00000000000E+00 -0.00000000000E+00 -0.10903558593E+04  0.10903558593E+04  0.00000000000E+00 0. -1.
          6    1    1    2  501    0  0.49534780296E+02 -0.70132816841E+02 -0.36244740124E+03  0.41069383381E+03  0.17300000000E+03 0. -1.
         -6    1    1    2    0  502 -0.49534780296E+02  0.70132816841E+02 -0.69053499720E+03  0.71703548644E+03  0.17300000000E+03 0. -1.
<mgrwt>
<rscale>  2 0.19313546E+03</rscale>
<asrwt>0</asrwt>
<pdfrwt beam="1">  1       21 0.57497632E-02 0.19313546E+03</pdfrwt>
<pdfrwt beam="2">  1       21 0.16774706E+00 0.19313546E+03</pdfrwt>
<totfact> 0.46929290E+04</totfact>
</mgrwt>
</event>
<event>
 4    1  0.4025504E+000  0.1804339E+03  0.7546771E-02  0.1167384E+00
         21   -1    0    0  503  502  0.00000000000E+00  0.00000000000E+00  0.42130861423E+03  0.42130861423E+03  0.00000000000E+00 0.  1.
         21   -1    0    0  501  503 -0.00000000000E+00 -0.00000000000E+00 -0.80428480340E+02  0.80428480340E+02  0.00000000000E+00 0.  1.
          6    1    1    2  501    0 -0.24167427873E+02  0.45203218587E+02  0.12076098661E+03  0.21711658488E+03  0.17300000000E+03 0.  1.
         -6    1    1    2    0  502  0.24167427873E+02 -0.45203218587E+02  0.22011914728E+03  0.28462050969E+03  0.17300000000E+03 0.  1.
<mgrwt>
<rscale>  2 0.18043391E+03</rscale>
<asrwt>0</asrwt>
<pdfrwt beam="1">  1       21 0.64816708E-01 0.18043391E+03</pdfrwt>
<pdfrwt beam="2">  1       21 0.12373613E-01 0.18043391E+03</pdfrwt>
<totfact> 0.12234447E+05</totfact>
</mgrwt>
</event>
<event>
 4    1  0.4025504E+000  0.2273759E+03  0.7546771E-02  0.1128500E+00
         21   -1    0    0  501  502  0.00000000000E+00  0.00000000000E+00  0.11316926861E+03  0.11316926861E+03  0.00000000000E+00 0. -1.
         21   -1    0    0  502  503 -0.00000000000E+00 -0.00000000000E+00 -0.86866039977E+03  0.86866039977E+03  0.00000000000E+00 0.  1.
          6    1    1    2  501    0 -0.14126389248E+03 -0.42606749078E+02 -0.39729721374E+02  0.23082086809E+03  0.17300000000E+03 0. -1.
         -6    1    1    2    0  503  0.14126389248E+03  0.42606749078E+02 -0.71576140978E+03  0.75100880029E+03  0.17300000000E+03 0.  1.
<mgrwt>
<rscale>  2 0.22737595E+03</rscale>
<asrwt>0</asrwt>
<pdfrwt beam="1">  1       21 0.17410656E-01 0.22737595E+03</pdfrwt>
<pdfrwt beam="2">  1       21 0.13364007E+00 0.22737595E+03</pdfrwt>
<totfact> 0.11752038E+04</totfact>
</mgrwt>
</event>
<event>
 4    1  0.4025504E+000  0.2489636E+03  0.7546771E-02  0.1113962E+00
         21   -1    0    0  503  502  0.00000000000E+00  0.00000000000E+00  0.22221157948E+03  0.22221157948E+03  0.00000000000E+00 0. -1.
         21   -1    0    0  501  503 -0.00000000000E+00 -0.00000000000E+00 -0.30914966895E+03  0.30914966895E+03  0.00000000000E+00 0.  1.
          6    1    1    2  501    0  0.17795195223E+01  0.17902706401E+03 -0.12652594070E+03  0.27926988740E+03  0.17300000000E+03 0.  1.
         -6    1    1    2    0  502 -0.17795195223E+01 -0.17902706401E+03  0.39587851227E+02  0.25209136102E+03  0.17300000000E+03 0. -1.
<mgrwt>
<rscale>  2 0.24896356E+03</rscale>
<asrwt>0</asrwt>
<pdfrwt beam="1">  1       21 0.34186397E-01 0.24896356E+03</pdfrwt>
<pdfrwt beam="2">  1       21 0.47561487E-01 0.24896356E+03</pdfrwt>
<totfact> 0.33911144E+04</totfact>
</mgrwt>
</event>
<event>
 4    1  0.4025504E+000  0.2006025E+03  0.7546771E-02  0.1149232E+00
         21   -1    0    0  503  502  0.00000000000E+00  0.00000000000E+00  0.29194429197E+03  0.29194429197E+03  0.00000000000E+00 0.  1.
         21   -1    0    0  501  503 -0.00000000000E+00 -0.00000000000E+00 -0.13922356381E+03  0.13922356381E+03  0.00000000000E+00 0. -1.
          6    1    1    2  501    0  0.59495742280E+02  0.82295925308E+02  0.54862871895E+02  0.20796946262E+03  0.17300000000E+03 0.  1.
         -6    1    1    2    0  502 -0.59495742280E+02 -0.82295925308E+02  0.97857856265E+02  0.22319839315E+03  0.17300000000E+03 0. -1.
<mgrwt>
<rscale>  2 0.20060250E+03</rscale>
<asrwt>0</asrwt>
<pdfrwt beam="1">  1       21 0.44914506E-01 0.20060250E+03</pdfrwt>
<pdfrwt beam="2">  1       21 0.21419010E-01 0.20060250E+03</pdfrwt>
<totfact> 0.96260354E+04</totfact>
</mgrwt>
</event>
<event>
 4    1  0.4025504E+000  0.1849971E+03  0.7546771E-02  0.1163053E+00
         21   -1    0    0  501  502  0.00000000000E+00  0.00000000000E+00  0.12467573400E+03  0.12467573400E+03  0.00000000000E+00 0. -1.
         21   -1    0    0  502  503 -0.00000000000E+00 -0.00000000000E+00 -0.40899381931E+03  0.40899381931E+03  0.00000000000E+00 0. -1.
          6    1    1    2  501    0 -0.41139685308E+02 -0.51014281694E+02  0.10854370205E+02  0.18531526650E+03  0.17300000000E+03 0. -1.
         -6    1    1    2    0  503  0.41139685308E+02  0.51014281694E+02 -0.29517245552E+03  0.34835428681E+03  0.17300000000E+03 0. -1.
<mgrwt>
<rscale>  2 0.18499711E+03</rscale>
<asrwt>0</asrwt>
<pdfrwt beam="1">  1       21 0.19180882E-01 0.18499711E+03</pdfrwt>
<pdfrwt beam="2">  1       21 0.62922128E-01 0.18499711E+03</pdfrwt>
<totfact> 0.58564318E+04</totfact>
</mgrwt>
</event>
<event>
 4    1  0.4025504E+000  0.1865388E+03  0.7546771E-02  0.1161621E+00
         21   -1    0    0  501  502  0.00000000000E+00  0.00000000000E+00  0.32075370256E+03  0.32075370256E+03  0.00000000000E+00 0.  1.
         21   -1    0    0  502  503 -0.00000000000E+00 -0.00000000000E+00 -0.11092431143E+03  0.11092431143E+03  0.00000000000E+00 0.  1.
          6    1    1    2  501    0  0.52241519732E+01 -0.69573083404E+02  0.72901998904E+02  0.20027832419E+03  0.17300000000E+03 0.  1.
         -6    1    1    2    0  503 -0.52241519732E+01  0.69573083404E+02  0.13692739223E+03  0.23139968980E+03  0.17300000000E+03 0.  1.
<mgrwt>
<rscale>  2 0.18653875E+03</rscale>
<asrwt>0</asrwt>
<pdfrwt beam="1">  1       21 0.49346723E-01 0.18653875E+03</pdfrwt>
<pdfrwt beam="2">  1       21 0.17065279E-01 0.18653875E+03</pdfrwt>
<totfact> 0.12157841E+05</totfact>
</mgrwt>
</event>
<event>
 4    1  0.4025504E+000  0.1979285E+03  0.7546771E-02  0.1151499E+00
         21   -1    0    0  503  502  0.00000000000E+00  0.00000000000E+00  0.37813481296E+03  0.37813481296E+03  0.00000000000E+00 0. -1.
         21   -1    0    0  501  503 -0.00000000000E+00 -0.00000000000E+00 -0.17201062523E+03  0.17201062523E+03  0.00000000000E+00 0.  1.
          6    1    1    2  501    0 -0.59731615009E+02 -0.75358047788E+02 -0.70407682191E+02  0.21007842086E+03  0.17300000000E+03 0.  1.
         -6    1    1    2    0  502  0.59731615009E+02  0.75358047788E+02  0.27653186991E+03  0.34006701733E+03  0.17300000000E+03 0. -1.
<mgrwt>
<rscale>  2 0.19792853E+03</rscale>
<asrwt>0</asrwt>
<pdfrwt beam="1">  1       21 0.58174586E-01 0.19792853E+03</pdfrwt>
<pdfrwt beam="2">  1       21 0.26463173E-01 0.19792853E+03</pdfrwt>
<totfact> 0.37502420E+04</totfact>
</mgrwt>
</event>
<event>
 4    1  0.4025504E+000  0.2002686E+03  0.7546771E-02  0.1149513E+00
         21   -1    0    0  501  502  0.00000000000E+00  0.00000000000E+00  0.78684910518E+02  0.78684910518E+02  0.00000000000E+00 0. -1.
         21   -1    0    0  502  503 -0.00000000000E+00 -0.00000000000E+00 -0.52316539767E+03  0.52316539767E+03  0.00000000000E+00 0. -1.
          6    1    1    2  501    0  0.10047704810E+03  0.91034557482E+01 -0.17400360279E+03  0.26530127004E+03  0.17300000000E+03 0. -1.
         -6    1    1    2    0  503 -0.10047704810E+03 -0.91034557482E+01 -0.27047688437E+03  0.33654903815E+03  0.17300000000E+03 0. -1.
<mgrwt>
<rscale>  2 0.20026859E+03</rscale>
<asrwt>0</asrwt>
<pdfrwt beam="1">  1       21 0.12105371E-01 0.20026859E+03</pdfrwt>
<pdfrwt beam="2">  1       21 0.80486982E-01 0.20026859E+03</pdfrwt>
<totfact> 0.78105773E+04</totfact>
</mgrwt>
</event>
<event>
 4    1  0.4025504E+000  0.1896958E+03  0.7546771E-02  0.1158736E+00
         21   -1    0    0  501  502  0.00000000000E+00  0.00000000000E+00  0.16343109245E+03  0.16343109245E+03  0.00000000000E+00 0. -1.
         21   -1    0    0  502  503 -0.00000000000E+00 -0.00000000000E+00 -0.27288417271E+03  0.27288417271E+03  0.00000000000E+00 0. -1.
          6    1    1    2  501    0  0.60888676720E+02  0.48456823862E+02  0.41146780352E+02  0.19410706392E+03  0.17300000000E+03 0. -1.
         -6    1    1    2    0  503 -0.60888676720E+02 -0.48456823862E+02 -0.15059986062E+03  0.24220820124E+03  0.17300000000E+03 0. -1.
<mgrwt>
<rscale>  2 0.18969580E+03</rscale>
<asrwt>0</asrwt>
<pdfrwt beam="1">  1       21 0.25143245E-01 0.18969580E+03</pdfrwt>
<pdfrwt beam="2">  1       21 0.41982180E-01 0.18969580E+03</pdfrwt>
<totfact> 0.81917182E+04</totfact>
</mgrwt>
</event>
<event>
 4    1  0.4025504E+000  0.1819773E+03  0.7546771E-02  0.1165903E+00
         21   -1    0    0  503  502  0.00000000000E+00  0.00000000000E+00  0.47362025534E+02  0.47362025534E+02  0.00000000000E+00 0. -1.
         21   -1    0    0  501  503 -0.00000000000E+00 -0.00000000000E+00 -0.70016310034E+03  0.70016310034E+03  0.00000000000E+00 0. -1.
          6    1    1    2  501    0  0.10947740945E+02 -0.55379439606E+02 -0.31256984988E+03  0.36168445698E+03  0.17300000000E+03 0. -1.
         -6    1    1    2    0  502 -0.10947740945E+02  0.55379439606E+02 -0.34023122493E+03  0.38584066890E+03  0.17300000000E+03 0. -1.
<mgrwt>
<rscale>  2 0.18197729E+03</rscale>
<asrwt>0</asrwt>
<pdfrwt beam="1">  1       21 0.72864659E-02 0.18197729E+03</pdfrwt>
<pdfrwt beam="2">  1       21 0.10771739E+00 0.18197729E+03</pdfrwt>
<totfact> 0.97400028E+04</totfact>
</mgrwt>
</event>
<event>
 4    1  0.4025504E+000  0.2088750E+03  0.7546771E-02  0.1142460E+00
         21   -1    0    0  501  502  0.00000000000E+00  0.00000000000E+00  0.21872563086E+03  0.21872563086E+03  0.00000000000E+00 0.  1.
         21   -1    0    0  502  503 -0.00000000000E+00 -0.00000000000E+00 -0.21842724033E+03  0.21842724033E+03  0.00000000000E+00 0.  1.
          6    1    1    2  501    0 -0.11255923431E+03  0.32096473244E+02  0.64545414464E+02  0.21862039098E+03  0.17300000000E+03 0.  1.
         -6    1    1    2    0  503  0.11255923431E+03 -0.32096473244E+02 -0.64247023928E+02  0.21853248021E+03  0.17300000000E+03 0.  1.
<mgrwt>
<rscale>  2 0.20887500E+03</rscale>
<asrwt>0</asrwt>
<pdfrwt beam="1">  1       21 0.33650097E-01 0.20887500E+03</pdfrwt>
<pdfrwt beam="2">  1       21 0.33604191E-01 0.20887500E+03</pdfrwt>
<totfact> 0.72045301E+04</totfact>
</mgrwt>
</event>
<event>
 4    1  0.4025504E+000  0.2063681E+03  0.7546771E-02  0.1144475E+00
         21   -1    0    0  503  502  0.00000000000E+00  0.00000000000E+00  0.33247633564E+03  0.33247633564E+03  0.00000000000E+00 0.  1.
         21   -1    0    0  501  503 -0.00000000000E+00 -0.00000000000E+00 -0.26755114163E+03  0.26755114163E+03  0.00000000000E+00 0. -1.
          6    1    1    2  501    0  0.14344581705E+01  0.11250211642E+03 -0.18413826394E+03  0.27657672374E+03  0.17300000000E+03 0. -1.
         -6    1    1    2    0  502 -0.14344581705E+01 -0.11250211642E+03  0.24906345795E+03  0.32345075353E+03  0.17300000000E+03 0.  1.
<mgrwt>
<rscale>  2 0.20636808E+03</rscale>
<asrwt>0</asrwt>
<pdfrwt beam="1">  1       21 0.51150206E-01 0.20636808E+03</pdfrwt>
<pdfrwt beam="2">  1       21 0.41161714E-01 0.20636808E+03</pdfrwt>
<totfact> 0.20486827E+04</totfact>
</mgrwt>
</event>
<event>
 4    1  0.4025504E+000  0.2192249E+03  0.7546771E-02  0.1134462E+00
         21   -1    0    0  501  502  0.00000000000E+00  0.00000000000E+00  0.65614396476E+03  0.65614396476E+03  0.00000000000E+00 0.  1.
         21   -1    0    0  502  503 -0.00000000000E+00 -0.00000000000E+00 -0.75412095482E+02  0.75412095482E+02  0.00000000000E+00 0. -1.
          6    1    1    2  501    0 -0.97573188811E+02  0.92790181097E+02  0.22836569849E+03  0.31656032147E+03  0.17300000000E+03 0. -1.
         -6    1    1    2    0  503  0.97573188811E+02 -0.92790181097E+02  0.35236617079E+03  0.41499573877E+03  0.17300000000E+03 0. -1.
<mgrwt>
<rscale>  2 0.21922487E+03</rscale>
<asrwt>0</asrwt>
<pdfrwt beam="1">  1       21 0.10094522E+00 0.21922487E+03</pdfrwt>
<pdfrwt beam="2">  1       21 0.11601861E-01 0.21922487E+03</pdfrwt>
<totfact> 0.49374569E+04</totfact>
</mgrwt>
</event>
<event>
 4    1  0.4025504E+000  0.1764748E+03  0.7546771E-02  0.1171259E+00
         21   -1    0    0  503  502  0.00000000000E+00  0.00000000000E+00  0.18851772139E+03  0.18851772139E+03  0.00000000000E+00 0. -1.
         21   -1    0    0  501  503 -0.00000000000E+00 -0.00000000000E+00 -0.17100630230E+03  0.17100630230E+03  0.00000000000E+00 0. -1.
          6    1    1    2  501    0  0.26330399964E+02 -0.22826664533E+02 -0.24364893296E+02  0.17814879905E+03  0.17300000000E+03 0.  1.
         -6    1    1    2    0  502 -0.26330399964E+02  0.22826664533E+02  0.41876312390E+02  0.18137522465E+03  0.17300000000E+03 0.  1.
<mgrwt>
<rscale>  2 0.17647478E+03</rscale>
<asrwt>0</asrwt>
<pdfrwt beam="1">  1       21 0.29002727E-01 0.17647478E+03</pdfrwt>
<pdfrwt beam="2">  1       21 0.26308662E-01 0.17647478E+03</pdfrwt>
<totfact> 0.15714029E+05</totfact>
</mgrwt>
</event>
<event>
 4    1  0.4025504E+000  0.2208587E+03  0.7546771E-02  0.1133245E+00
         21   -1    0    0  503  502  0.00000000000E+00  0.00000000000E+00  0.77009252775E+02  0.77009252775E+02  0.00000000000E+00 0.  1.
         21   -1    0    0  501  503 -0.00000000000E+00 -0.00000000000E+00 -0.64916779702E+03  0.64916779702E+03  0.00000000000E+00 0.  1.
          6    1    1    2  501    0 -0.74280106843E+02 -0.11546435100E+03 -0.22951263669E+03  0.31851938878E+03  0.17300000000E+03 0.  1.
         -6    1    1    2    0  502  0.74280106843E+02  0.11546435100E+03 -0.34264590755E+03  0.40765766102E+03  0.17300000000E+03 0.  1.
<mgrwt>
<rscale>  2 0.22085867E+03</rscale>
<asrwt>0</asrwt>
<pdfrwt beam="1">  1       21 0.11847578E-01 0.22085867E+03</pdfrwt>
<pdfrwt beam="2">  1       21 0.99871964E-01 0.22085867E+03</pdfrwt>
<totfact> 0.48747000E+04</totfact>
</mgrwt>
</event>
<event>
 4    1  0.4025504E+000  0.3266442E+03  0.7546771E-02  0.1072631E+00
         21   -1    0    0  503  502  0.00000000000E+00  0.00000000000E+00  0.22660746339E+04  0.22660746339E+04  0.00000000000E+00 0. -1.
         21   -1    0    0  501  503 -0.00000000000E+00 -0.00000000000E+00 -0.50184925991E+02  0.50184925991E+02  0.00000000000E+00 0.  1.
          6    1    1    2  501    0 -0.13086328073E+03 -0.24421765501E+03  0.82007403401E+03  0.88273318875E+03  0.17300000000E+03 0. -1.
         -6    1    1    2    0  502  0.13086328073E+03  0.24421765501E+03  0.13958156739E+04  0.14335263711E+04  0.17300000000E+03 0.  1.
<mgrwt>
<rscale>  2 0.32664424E+03</rscale>
<asrwt>0</asrwt>
<pdfrwt beam="1">  1       21 0.34862679E+00 0.32664424E+03</pdfrwt>
<pdfrwt beam="2">  1       21 0.77207596E-02 0.32664424E+03</pdfrwt>
<totfact> 0.19809895E+03</totfact>
</mgrwt>
</event>
<event>
 4    1  0.4025504E+000  0.2017750E+03  0.7546771E-02  0.1148250E+00
         21   -1    0    0  501  502  0.00000000000E+00  0.00000000000E+00  0.45244766476E+02  0.45244766476E+02  0.00000000000E+00 0.  1.
         21   -1    0    0  502  503 -0.00000000000E+00 -0.00000000000E+00 -0.90860893696E+03  0.90860893696E+03  0.00000000000E+00 0.  1.
          6    1    1    2  501    0 -0.57320810656E+02 -0.86593835301E+02 -0.38483606393E+03  0.43452498633E+03  0.17300000000E+03 0.  1.
         -6    1    1    2    0  503  0.57320810656E+02  0.86593835301E+02 -0.47852810656E+03  0.51932871711E+03  0.17300000000E+03 0.  1.
<mgrwt>
<rscale>  2 0.20177504E+03</rscale>
<asrwt>0</asrwt>
<pdfrwt beam="1">  1       21 0.69607338E-02 0.20177504E+03</pdfrwt>
<pdfrwt beam="2">  1       21 0.13978598E+00 0.20177504E+03</pdfrwt>
<totfact> 0.54600156E+04</totfact>
</mgrwt>
</event>
<event>
 4    1  0.4025504E+000  0.2712899E+03  0.7546771E-02  0.1100544E+00
         21   -1    0    0  501  502  0.00000000000E+00  0.00000000000E+00  0.50415725703E+03  0.50415725703E+03  0.00000000000E+00 0.  1.
         21   -1    0    0  502  503 -0.00000000000E+00 -0.00000000000E+00 -0.60489244962E+03  0.60489244962E+03  0.00000000000E+00 0.  1.
          6    1    1    2  501    0  0.18565125839E+02 -0.20814550840E+03  0.43263069662E+03  0.51065402791E+03  0.17300000000E+03 0.  1.
         -6    1    1    2    0  503 -0.18565125839E+02  0.20814550840E+03 -0.53336588921E+03  0.59839567874E+03  0.17300000000E+03 0.  1.
<mgrwt>
<rscale>  2 0.27128991E+03</rscale>
<asrwt>0</asrwt>
<pdfrwt beam="1">  1       21 0.77562655E-01 0.27128991E+03</pdfrwt>
<pdfrwt beam="2">  1       21 0.93060377E-01 0.27128991E+03</pdfrwt>
<totfact> 0.13437948E+03</totfact>
</mgrwt>
</event>
<event>
 4    1  0.4025504E+000  0.2907075E+03  0.7546771E-02  0.1089980E+00
         21   -1    0    0  503  502  0.00000000000E+00  0.00000000000E+00  0.10359771997E+04  0.10359771997E+04  0.00000000000E+00 0.  1.
         21   -1    0    0  501  503 -0.00000000000E+00 -0.00000000000E+00 -0.30588641827E+03  0.30588641827E+03  0.00000000000E+00 0. -1.
          6    1    1    2  501    0  0.69514414158E+02  0.22304615297E+03 -0.20949827557E+03  0.35832997027E+03  0.17300000000E+03 0. -1.
         -6    1    1    2    0  502 -0.69514414158E+02 -0.22304615297E+03  0.93958905700E+03  0.98353364770E+03  0.17300000000E+03 0.  1.
<mgrwt>
<rscale>  2 0.29070748E+03</rscale>
<asrwt>0</asrwt>
<pdfrwt beam="1">  1       21 0.15938111E+00 0.29070748E+03</pdfrwt>
<pdfrwt beam="2">  1       21 0.47059450E-01 0.29070748E+03</pdfrwt>
<totfact> 0.10097289E+03</totfact>
</mgrwt>
</event>
<event>
 4    1  0.4025504E+000  0.1756497E+03  0.7546771E-02  0.1172081E+00
         21   -1    0    0  503  502  0.00000000000E+00  0.00000000000E+00  0.71101062572E+02  0.71101062572E+02  0.00000000000E+00 0. -1.
         21   -1    0    0  501  503 -0.00000000000E+00 -0.00000000000E+00 -0.46725797948E+03  0.46725797948E+03  0.00000000000E+00 0. -1.
          6    1    1    2  501    0 -0.19521409318E+02  0.23296615670E+02 -0.26996940902E+03  0.32208120021E+03  0.17300000000E+03 0. -1.
         -6    1    1    2    0  502  0.19521409318E+02 -0.23296615670E+02 -0.12618750789E+03  0.21627784184E+03  0.17300000000E+03 0. -1.
<mgrwt>
<rscale>  2 0.17564970E+03</rscale>
<asrwt>0</asrwt>
<pdfrwt beam="1">  1       21 0.10938625E-01 0.17564970E+03</pdfrwt>
<pdfrwt beam="2">  1       21 0.71885846E-01 0.17564970E+03</pdfrwt>
<totfact> 0.12169346E+05</totfact>
</mgrwt>
</event>
<event>
 4    1  0.4025504E+000  0.1812968E+03  0.7546771E-02  0.1166554E+00
         21   -1    0    0  501  502  0.00000000000E+00  0.00000000000E+00  0.14856065355E+03  0.14856065355E+03  0.00000000000E+00 0.  1.
         21   -1    0    0  502  503 -0.00000000000E+00 -0.00000000000E+00 -0.25689867351E+03  0.25689867351E+03  0.00000000000E+00 0.  1.
          6    1    1    2  501    0  0.22930526307E+01 -0.54168940400E+02 -0.12969198066E+03  0.22290926863E+03  0.17300000000E+03 0. -1.
         -6    1    1    2    0  503 -0.22930526307E+01  0.54168940400E+02  0.21353960710E+02  0.18255005843E+03  0.17300000000E+03 0. -1.
<mgrwt>
<rscale>  2 0.18129681E+03</rscale>
<asrwt>0</asrwt>
<pdfrwt beam="1">  1       21 0.22855485E-01 0.18129681E+03</pdfrwt>
<pdfrwt beam="2">  1       21 0.39522873E-01 0.18129681E+03</pdfrwt>
<totfact> 0.11129985E+05</totfact>
</mgrwt>
</event>
<event>
 4    1  0.4025504E+000  0.1732665E+03  0.7546771E-02  0.1174484E+00
         21   -1    0    0  501  502  0.00000000000E+00  0.00000000000E+00  0.32362970216E+02  0.32362970216E+02  0.00000000000E+00 0. -1.
         21   -1    0    0  502  503 -0.00000000000E+00 -0.00000000000E+00 -0.96643275468E+03  0.96643275468E+03  0.00000000000E+00 0. -1.
          6    1    1    2  501    0 -0.96036243476E+01  0.18537328867E+00 -0.56708616783E+03  0.59296541696E+03  0.17300000000E+03 0. -1.
         -6    1    1    2    0  503  0.96036243476E+01 -0.18537328867E+00 -0.36698361663E+03  0.40583030794E+03  0.17300000000E+03 0. -1.
<mgrwt>
<rscale>  2 0.17326645E+03</rscale>
<asrwt>0</asrwt>
<pdfrwt beam="1">  1       21 0.49789181E-02 0.17326645E+03</pdfrwt>
<pdfrwt beam="2">  1       21 0.14868197E+00 0.17326645E+03</pdfrwt>
<totfact> 0.83692499E+04</totfact>
</mgrwt>
</event>
<event>
 4    1  0.4025504E+000  0.1757186E+03  0.7546771E-02  0.1172012E+00
         21   -1    0    0  503  502  0.00000000000E+00  0.00000000000E+00  0.71337454991E+03  0.71337454991E+03  0.00000000000E+00 0.  1.
         21   -1    0    0  501  503 -0.00000000000E+00 -0.00000000000E+00 -0.58884055748E+02  0.58884055748E+02  0.00000000000E+00 0.  1.
          6    1    1    2  501    0  0.13088505126E+02 -0.27869825756E+02  0.12849393257E+03  0.21768722255E+03  0.17300000000E+03 0.  1.
         -6    1    1    2    0  502 -0.13088505126E+02  0.27869825756E+02  0.52599656159E+03  0.55457138311E+03  0.17300000000E+03 0.  1.
<mgrwt>
<rscale>  2 0.17571863E+03</rscale>
<asrwt>0</asrwt>
<pdfrwt beam="1">  1       21 0.10974992E+00 0.17571863E+03</pdfrwt>
<pdfrwt beam="2">  1       21 0.90590860E-02 0.17571863E+03</pdfrwt>
<totfact> 0.63936321E+04</totfact>
</mgrwt>
</event>
<event>
 4    1  0.4025504E+000  0.2013060E+03  0.7546771E-02  0.1148642E+00
         21   -1    0    0  503  502  0.00000000000E+00  0.00000000000E+00  0.30229174783E+03  0.30229174783E+03  0.00000000000E+00 0.  1.
         21   -1    0    0  501  503 -0.00000000000E+00 -0.00000000000E+00 -0.20135491977E+03  0.20135491977E+03  0.00000000000E+00 0. -1.
          6    1    1    2  501    0  0.68404343925E+02  0.76915235144E+02 -0.95117039790E+02  0.22264626411E+03  0.17300000000E+03 0. -1.
         -6    1    1    2    0  502 -0.68404343925E+02 -0.76915235144E+02  0.19605386785E+03  0.28100040349E+03  0.17300000000E+03 0.  1.
<mgrwt>
<rscale>  2 0.20130601E+03</rscale>
<asrwt>0</asrwt>
<pdfrwt beam="1">  1       21 0.46506423E-01 0.20130601E+03</pdfrwt>
<pdfrwt beam="2">  1       21 0.30977680E-01 0.20130601E+03</pdfrwt>
<totfact> 0.44129839E+04</totfact>
</mgrwt>
</event>
<event>
 4    1  0.4025504E+000  0.1973146E+03  0.7546771E-02  0.1152025E+00
         21   -1    0    0  503  502  0.00000000000E+00  0.00000000000E+00  0.13487460359E+03  0.13487460359E+03  0.00000000000E+00 0.  1.
         21   -1    0    0  501  503 -0.00000000000E+00 -0.00000000000E+00 -0.34987965368E+03  0.34987965368E+03  0.00000000000E+00 0. -1.
          6    1    1    2  501    0  0.37322246129E+02 -0.87241568128E+02 -0.20888761530E+03  0.28734487483E+03  0.17300000000E+03 0. -1.
         -6    1    1    2    0  502 -0.37322246129E+02  0.87241568128E+02 -0.61174347864E+01  0.19740938244E+03  0.17300000000E+03 0.  1.
<mgrwt>
<rscale>  2 0.19731457E+03</rscale>
<asrwt>0</asrwt>
<pdfrwt beam="1">  1       21 0.20749939E-01 0.19731457E+03</pdfrwt>
<pdfrwt beam="2">  1       21 0.53827638E-01 0.19731457E+03</pdfrwt>
<totfact> 0.70191325E+04</totfact>
</mgrwt>
</event>
<event>
 4    1  0.4025504E+000  0.2969685E+03  0.7546771E-02  0.1086766E+00
         21   -1    0    0  501  502  0.00000000000E+00  0.00000000000E+00  0.16749696679E+03  0.16749696679E+03  0.00000000000E+00 0.  1.
         21   -1    0    0  502  503 -0.00000000000E+00 -0.00000000000E+00 -0.52967299644E+03  0.52967299644E+03  0.00000000000E+00 0. -1.
          6    1    1    2  501    0  0.23514000787E+03  0.54501780508E+02 -0.15418732998E+03  0.33461022117E+03  0.17300000000E+03 0. -1.
         -6    1    1    2    0  503 -0.23514000787E+03 -0.54501780508E+02 -0.20798869966E+03  0.36255974207E+03  0.17300000000E+03 0.  1.
<mgrwt>
<rscale>  2 0.29696846E+03</rscale>
<asrwt>0</asrwt>
<pdfrwt beam="1">  1       21 0.25768764E-01 0.29696846E+03</pdfrwt>
<pdfrwt beam="2">  1       21 0.81488153E-01 0.29696846E+03</pdfrwt>
<totfact> 0.17871943E+04</totfact>
</mgrwt>
</event>
<event>
 4    1  0.4025504E+000  0.1731916E+03  0.7546771E-02  0.1174560E+00
         21   -1    0    0  501  502  0.00000000000E+00  0.00000000000E+00  0.45111457119E+02  0.45111457119E+02  0.00000000000E+00 0. -1.
         21   -1    0    0  502  503 -0.00000000000E+00 -0.00000000000E+00 -0.74162229150E+03  0.74162229150E+03  0.00000000000E+00 0. -1.
          6    1    1    2  501    0  0.29544510587E+01 -0.75889848306E+01 -0.22174613197E+03  0.28136572022E+03  0.17300000000E+03 0.  1.
         -6    1    1    2    0  503 -0.29544510587E+01  0.75889848306E+01 -0.47476470241E+03  0.50536802840E+03  0.17300000000E+03 0.  1.
<mgrwt>
<rscale>  2 0.17319157E+03</rscale>
<asrwt>0</asrwt>
<pdfrwt beam="1">  1       21 0.69402241E-02 0.17319157E+03</pdfrwt>
<pdfrwt beam="2">  1       21 0.11409574E+00 0.17319157E+03</pdfrwt>
<totfact> 0.92544318E+04</totfact>
</mgrwt>
</event>
<event>
 4    1  0.4025504E+000  0.1760393E+03  0.7546771E-02  0.1171692E+00
         21   -1    0    0  501  502  0.00000000000E+00  0.00000000000E+00  0.74850813477E+03  0.74850813477E+03  0.00000000000E+00 0. -1.
         21   -1    0    0  502  503 -0.00000000000E+00 -0.00000000000E+00 -0.10238129799E+03  0.10238129799E+03  0.00000000000E+00 0. -1.
          6    1    1    2  501    0 -0.11043961130E+02 -0.30640665656E+02  0.65140328806E+03  0.67477111910E+03  0.17300000000E+03 0. -1.
         -6    1    1    2    0  503  0.11043961130E+02  0.30640665656E+02 -0.52764512809E+01  0.17611831366E+03  0.17300000000E+03 0. -1.
<mgrwt>
<rscale>  2 0.17603926E+03</rscale>
<asrwt>0</asrwt>
<pdfrwt beam="1">  1       21 0.11515509E+00 0.17603926E+03</pdfrwt>
<pdfrwt beam="2">  1       21 0.15750969E-01 0.17603926E+03</pdfrwt>
<totfact> 0.21188836E+04</totfact>
</mgrwt>
</event>
<event>
 4    1  0.4025504E+000  0.1759355E+03  0.7546771E-02  0.1171796E+00
         21   -1    0    0  501  502  0.00000000000E+00  0.00000000000E+00  0.76357409549E+02  0.76357409549E+02  0.00000000000E+00 0.  1.
         21   -1    0    0  502  503 -0.00000000000E+00 -0.00000000000E+00 -0.45389213752E+03  0.45389213752E+03  0.00000000000E+00 0.  1.
          6    1    1    2  501    0  0.31968584009E+02  0.15224089778E+01 -0.10208593398E+03  0.20340807754E+03  0.17300000000E+03 0.  1.
         -6    1    1    2    0  503 -0.31968584009E+02 -0.15224089778E+01 -0.27544879399E+03  0.32684146953E+03  0.17300000000E+03 0.  1.
<mgrwt>
<rscale>  2 0.17593552E+03</rscale>
<asrwt>0</asrwt>
<pdfrwt beam="1">  1       21 0.11747294E-01 0.17593552E+03</pdfrwt>
<pdfrwt beam="2">  1       21 0.69829559E-01 0.17593552E+03</pdfrwt>
<totfact> 0.11426907E+05</totfact>
</mgrwt>
</event>
<event>
 4    1  0.4025504E+000  0.2144224E+03  0.7546771E-02  0.1138111E+00
         21   -1    0    0  503  502  0.00000000000E+00  0.00000000000E+00  0.42159061815E+02  0.42159061815E+02  0.00000000000E+00 0.  1.
         21   -1    0    0  501  503 -0.00000000000E+00 -0.00000000000E+00 -0.11276825066E+04  0.11276825066E+04  0.00000000000E+00 0. -1.
          6    1    1    2  501    0 -0.12256048501E+03 -0.32045125420E+02 -0.64888865090E+03  0.68339845172E+03  0.17300000000E+03 0.  1.
         -6    1    1    2    0  502  0.12256048501E+03  0.32045125420E+02 -0.43663479390E+03  0.48644311671E+03  0.17300000000E+03 0.  1.
<mgrwt>
<rscale>  2 0.21442239E+03</rscale>
<asrwt>0</asrwt>
<pdfrwt beam="1">  1       21 0.64860106E-02 0.21442239E+03</pdfrwt>
<pdfrwt beam="2">  1       21 0.17348959E+00 0.21442239E+03</pdfrwt>
<totfact> 0.34324467E+04</totfact>
</mgrwt>
</event>
<event>
 4    1  0.4025504E+000  0.1809298E+03  0.7546771E-02  0.1166906E+00
         21   -1    0    0  503  502  0.00000000000E+00  0.00000000000E+00  0.31762016090E+02  0.31762016090E+02  0.00000000000E+00 0. -1.
         21   -1    0    0  501  503 -0.00000000000E+00 -0.00000000000E+00 -0.10436812272E+04  0.10436812272E+04  0.00000000000E+00 0. -1.
          6    1    1    2  501    0  0.52231867934E+02 -0.88551753118E+01 -0.44587895894E+03  0.48118980474E+03  0.17300000000E+03 0. -1.
         -6    1    1    2    0  502 -0.52231867934E+02  0.88551753118E+01 -0.56604025220E+03  0.59425343858E+03  0.17300000000E+03 0. -1.
<mgrwt>
<rscale>  2 0.18092977E+03</rscale>
<asrwt>0</asrwt>
<pdfrwt beam="1">  1       21 0.48864646E-02 0.18092977E+03</pdfrwt>
<pdfrwt beam="2">  1       21 0.16056632E+00 0.18092977E+03</pdfrwt>
<totfact> 0.70163187E+04</totfact>
</mgrwt>
</event>
<event>
 4    1  0.4025504E+000  0.1762994E+03  0.7546771E-02  0.1171433E+00
         21   -1    0    0  503  502  0.00000000000E+00  0.00000000000E+00  0.27430273624E+03  0.27430273624E+03  0.00000000000E+00 0.  1.
         21   -1    0    0  501  503 -0.00000000000E+00 -0.00000000000E+00 -0.12172066431E+03  0.12172066431E+03  0.00000000000E+00 0.  1.
          6    1    1    2  501    0 -0.36190809301E+01  0.33754673857E+02  0.24243288187E+02  0.17795845801E+03  0.17300000000E+03 0. -1.
         -6    1    1    2    0  502  0.36190809301E+01 -0.33754673857E+02  0.12833878374E+03  0.21806494254E+03  0.17300000000E+03 0. -1.
<mgrwt>
<rscale>  2 0.17629939E+03</rscale>
<asrwt>0</asrwt>
<pdfrwt beam="1">  1       21 0.42200421E-01 0.17629939E+03</pdfrwt>
<pdfrwt beam="2">  1       21 0.18726256E-01 0.17629939E+03</pdfrwt>
<totfact> 0.14176250E+05</totfact>
</mgrwt>
</event>
<event>
 4    1  0.4025504E+000  0.1744987E+03  0.7546771E-02  0.1173236E+00
         21   -1    0    0  501  502  0.00000000000E+00  0.00000000000E+00  0.62391036832E+02  0.62391036832E+02  0.00000000000E+00 0.  1.
         21   -1    0    0  502  503 -0.00000000000E+00 -0.00000000000E+00 -0.20089578564E+04  0.20089578564E+04  0.00000000000E+00 0.  1.
          6    1    1    2  501    0  0.18531171379E+02  0.13318919603E+02 -0.72148867864E+02  0.18882599680E+03  0.17300000000E+03 0.  1.
         -6    1    1    2    0  503 -0.18531171379E+02 -0.13318919603E+02 -0.18744179517E+04  0.18825228964E+04  0.17300000000E+03 0.  1.
<mgrwt>
<rscale>  2 0.17449870E+03</rscale>
<asrwt>0</asrwt>
<pdfrwt beam="1">  1       21 0.95986205E-02 0.17449870E+03</pdfrwt>
<pdfrwt beam="2">  1       21 0.30907046E+00 0.17449870E+03</pdfrwt>
<totfact> 0.27038338E+03</totfact>
</mgrwt>
</event>
<event>
 4    1  0.4025504E+000  0.2019703E+03  0.7546771E-02  0.1148087E+00
         21   -1    0    0  503  502  0.00000000000E+00  0.00000000000E+00  0.51217447727E+03  0.51217447727E+03  0.00000000000E+00 0. -1.
         21   -1    0    0  501  503 -0.00000000000E+00 -0.00000000000E+00 -0.11582886882E+03  0.11582886882E+03  0.00000000000E+00 0. -1.
          6    1    1    2  501    0  0.44119828704E+02  0.94426859885E+02  0.22670527544E+02  0.20323863799E+03  0.17300000000E+03 0. -1.
         -6    1    1    2    0  502 -0.44119828704E+02 -0.94426859885E+02  0.37367508090E+03  0.42476470809E+03  0.17300000000E+03 0. -1.
<mgrwt>
<rscale>  2 0.20197027E+03</rscale>
<asrwt>0</asrwt>
<pdfrwt beam="1">  1       21 0.78796072E-01 0.20197027E+03</pdfrwt>
<pdfrwt beam="2">  1       21 0.17819826E-01 0.20197027E+03</pdfrwt>
<totfact> 0.40509719E+04</totfact>
</mgrwt>
</event>
<event>
 4    1  0.4025504E+000  0.2113759E+03  0.7546771E-02  0.1140481E+00
         21   -1    0    0  501  502  0.00000000000E+00  0.00000000000E+00  0.35815417774E+03  0.35815417774E+03  0.00000000000E+00 0. -1.
         21   -1    0    0  502  503 -0.00000000000E+00 -0.00000000000E+00 -0.18330451048E+03  0.18330451048E+03  0.00000000000E+00 0.  1.
          6    1    1    2  501    0 -0.10361321826E+03  0.63364600207E+02  0.24043790771E+03  0.32014084248E+03  0.17300000000E+03 0. -1.
         -6    1    1    2    0  503  0.10361321826E+03 -0.63364600207E+02 -0.65588240457E+02  0.22131784574E+03  0.17300000000E+03 0.  1.
<mgrwt>
<rscale>  2 0.21137590E+03</rscale>
<asrwt>0</asrwt>
<pdfrwt beam="1">  1       21 0.55100643E-01 0.21137590E+03</pdfrwt>
<pdfrwt beam="2">  1       21 0.28200694E-01 0.21137590E+03</pdfrwt>
<totfact> 0.36974936E+04</totfact>
</mgrwt>
</event>
<event>
 4    1  0.4025504E+000  0.1965190E+03  0.7546771E-02  0.1152710E+00
         21   -1    0    0  503  502  0.00000000000E+00  0.00000000000E+00  0.71751341877E+02  0.71751341877E+02  0.00000000000E+00 0.  1.
         21   -1    0    0  501  503 -0.00000000000E+00 -0.00000000000E+00 -0.54000651535E+03  0.54000651535E+03  0.00000000000E+00 0.  1.
          6    1    1    2  501    0  0.61131384284E+02 -0.70382366468E+02 -0.25160294687E+03  0.31925501802E+03  0.17300000000E+03 0.  1.
         -6    1    1    2    0  502 -0.61131384284E+02  0.70382366468E+02 -0.21665222660E+03  0.29250283921E+03  0.17300000000E+03 0.  1.
<mgrwt>
<rscale>  2 0.19651902E+03</rscale>
<asrwt>0</asrwt>
<pdfrwt beam="1">  1       21 0.11038668E-01 0.19651902E+03</pdfrwt>
<pdfrwt beam="2">  1       21 0.83077927E-01 0.19651902E+03</pdfrwt>
<totfact> 0.85839597E+04</totfact>
</mgrwt>
</event>
<event>
 4    1  0.4025504E+000  0.1778643E+03  0.7546771E-02  0.1169886E+00
         21   -1    0    0  503  502  0.00000000000E+00  0.00000000000E+00  0.11890268802E+03  0.11890268802E+03  0.00000000000E+00 0. -1.
         21   -1    0    0  501  503 -0.00000000000E+00 -0.00000000000E+00 -0.32535794377E+03  0.32535794377E+03  0.00000000000E+00 0. -1.
          6    1    1    2  501    0 -0.87164326757E+01  0.40382396120E+02 -0.19805476170E+03  0.26619805174E+03  0.17300000000E+03 0. -1.
         -6    1    1    2    0  502  0.87164326757E+01 -0.40382396120E+02 -0.84004940547E+01  0.17806258005E+03  0.17300000000E+03 0. -1.
<mgrwt>
<rscale>  2 0.17786431E+03</rscale>
<asrwt>0</asrwt>
<pdfrwt beam="1">  1       21 0.18292721E-01 0.17786431E+03</pdfrwt>
<pdfrwt beam="2">  1       21 0.50055068E-01 0.17786431E+03</pdfrwt>
<totfact> 0.10417244E+05</totfact>
</mgrwt>
</event>
<event>
 4    1  0.4025504E+000  0.2115446E+03  0.7546771E-02  0.1140349E+00
         21   -1    0    0  501  502  0.00000000000E+00  0.00000000000E+00  0.28777457498E+03  0.28777457498E+03  0.00000000000E+00 0. -1.
         21   -1    0    0  502  503 -0.00000000000E+00 -0.00000000000E+00 -0.38540706401E+03  0.38540706401E+03  0.00000000000E+00 0. -1.
          6    1    1    2  501    0  0.99810374370E+02  0.69713847583E+02  0.21114668210E+03  0.29888802709E+03  0.17300000000E+03 0. -1.
         -6    1    1    2    0  503 -0.99810374370E+02 -0.69713847583E+02 -0.30877917113E+03  0.37429361189E+03  0.17300000000E+03 0. -1.
<mgrwt>
<rscale>  2 0.21154463E+03</rscale>
<asrwt>0</asrwt>
<pdfrwt beam="1">  1       21 0.44273012E-01 0.21154463E+03</pdfrwt>
<pdfrwt beam="2">  1       21 0.59293394E-01 0.21154463E+03</pdfrwt>
<totfact> 0.12864455E+04</totfact>
</mgrwt>
</event>
<event>
 4    1  0.4025504E+000  0.3270813E+03  0.7546771E-02  0.1072436E+00
         21   -1    0    0  503  502  0.00000000000E+00  0.00000000000E+00  0.54364186350E+03  0.54364186350E+03  0.00000000000E+00 0.  1.
         21   -1    0    0  501  503 -0.00000000000E+00 -0.00000000000E+00 -0.26468065928E+03  0.26468065928E+03  0.00000000000E+00 0. -1.
          6    1    1    2  501    0 -0.11241574044E+03  0.25380280754E+03 -0.65213426747E+02  0.33351904720E+03  0.17300000000E+03 0.  1.
         -6    1    1    2    0  502  0.11241574044E+03 -0.25380280754E+03  0.34417463097E+03  0.47480347558E+03  0.17300000000E+03 0.  1.
<mgrwt>
<rscale>  2 0.32708128E+03</rscale>
<asrwt>0</asrwt>
<pdfrwt beam="1">  1       21 0.83637209E-01 0.32708128E+03</pdfrwt>
<pdfrwt beam="2">  1       21 0.40720102E-01 0.32708128E+03</pdfrwt>
<totfact> 0.66838563E+03</totfact>
</mgrwt>
</event>
<event>
 4    1  0.4025504E+000  0.1943816E+03  0.7546771E-02  0.1154568E+00
         21   -1    0    0  503  502  0.00000000000E+00  0.00000000000E+00  0.13054099680E+03  0.13054099680E+03  0.00000000000E+00 0.  1.
         21   -1    0    0  501  503 -0.00000000000E+00 -0.00000000000E+00 -0.29091293646E+03  0.29091293646E+03  0.00000000000E+00 0.  1.
          6    1    1    2  501    0  0.88425717622E+02  0.60096170122E+01 -0.95163376202E+02  0.21642617957E+03  0.17300000000E+03 0.  1.
         -6    1    1    2    0  502 -0.88425717622E+02 -0.60096170122E+01 -0.65208563468E+02  0.20502775369E+03  0.17300000000E+03 0.  1.
<mgrwt>
<rscale>  2 0.19438164E+03</rscale>
<asrwt>0</asrwt>
<pdfrwt beam="1">  1       21 0.20083231E-01 0.19438164E+03</pdfrwt>
<pdfrwt beam="2">  1       21 0.44755836E-01 0.19438164E+03</pdfrwt>
<totfact> 0.10968833E+05</totfact>
</mgrwt>
</event>
<event>
 4    1  0.4025504E+000  0.2013429E+03  0.7546771E-02  0.1148611E+00
         21   -1    0    0  501  502  0.00000000000E+00  0.00000000000E+00  0.39639783634E+03  0.39639783634E+03  0.00000000000E+00 0. -1.
         21   -1    0    0  502  503 -0.00000000000E+00 -0.00000000000E+00 -0.16024128417E+03  0.16024128417E+03  0.00000000000E+00 0. -1.
          6    1    1    2  501    0  0.94821788700E+01  0.10256726022E+03 -0.49327000951E+02  0.20729714810E+03  0.17300000000E+03 0. -1.
         -6    1    1    2    0  503 -0.94821788700E+01 -0.10256726022E+03  0.28548355313E+03  0.34934197242E+03  0.17300000000E+03 0. -1.
<mgrwt>
<rscale>  2 0.20134288E+03</rscale>
<asrwt>0</asrwt>
<pdfrwt beam="1">  1       21 0.60984282E-01 0.20134288E+03</pdfrwt>
<pdfrwt beam="2">  1       21 0.24652505E-01 0.20134288E+03</pdfrwt>
<totfact> 0.38748055E+04</totfact>
</mgrwt>
</event>
<event>
 4    1  0.4025504E+000  0.1753577E+03  0.7546771E-02  0.1172373E+00
         21   -1    0    0  501  502  0.00000000000E+00  0.00000000000E+00  0.91391250982E+03  0.91391250982E+03  0.00000000000E+00 0.  1.
         21   -1    0    0  502  503 -0.00000000000E+00 -0.00000000000E+00 -0.34442756302E+02  0.34442756302E+02  0.00000000000E+00 0.  1.
          6    1    1    2  501    0 -0.26120960004E+02  0.11790765034E+02  0.51181380012E+03  0.54102097250E+03  0.17300000000E+03 0. -1.
         -6    1    1    2    0  503  0.26120960004E+02 -0.11790765034E+02  0.36765595340E+03  0.40733429363E+03  0.17300000000E+03 0. -1.
<mgrwt>
<rscale>  2 0.17535771E+03</rscale>
<asrwt>0</asrwt>
<pdfrwt beam="1">  1       21 0.14060191E+00 0.17535771E+03</pdfrwt>
<pdfrwt beam="2">  1       21 0.52988863E-02 0.17535771E+03</pdfrwt>
<totfact> 0.86978109E+04</totfact>
</mgrwt>
</event>
<event>
 4    1  0.4025504E+000  0.2531493E+03  0.7546771E-02  0.1111331E+00
         21   -1    0    0  501  502  0.00000000000E+00  0.00000000000E+00  0.26715125820E+03  0.26715125820E+03  0.00000000000E+00 0.  1.
         21   -1    0    0  502  503 -0.00000000000E+00 -0.00000000000E+00 -0.25751096447E+03  0.25751096447E+03  0.00000000000E+00 0. -1.
          6    1    1    2  501    0  0.10149247964E+03  0.15445006485E+03  0.73459952003E+02  0.26359231875E+03  0.17300000000E+03 0.  1.
         -6    1    1    2    0  503 -0.10149247964E+03 -0.15445006485E+03 -0.63819658266E+02  0.26106990392E+03  0.17300000000E+03 0. -1.
<mgrwt>
<rscale>  2 0.25314926E+03</rscale>
<asrwt>0</asrwt>
<pdfrwt beam="1">  1       21 0.41100194E-01 0.25314926E+03</pdfrwt>
<pdfrwt beam="2">  1       21 0.39617071E-01 0.25314926E+03</pdfrwt>
<totfact> 0.34009856E+04</totfact>
</mgrwt>
</event>
<event>
 4    1  0.4025504E+000  0.3197340E+03  0.7546771E-02  0.1075772E+00
         21   -1    0    0  501  502  0.00000000000E+00  0.00000000000E+00  0.14141194520E+04  0.14141194520E+04  0.00000000000E+00 0. -1.
         21   -1    0    0  502  503 -0.00000000000E+00 -0.00000000000E+00 -0.10024371567E+03  0.10024371567E+03  0.00000000000E+00 0. -1.
          6    1    1    2  501    0  0.11186433032E+03 -0.24451419641E+03  0.10567666619E+04  0.11040768082E+04  0.17300000000E+03 0. -1.
         -6    1    1    2    0  503 -0.11186433032E+03  0.24451419641E+03  0.25710907443E+03  0.41028635951E+03  0.17300000000E+03 0. -1.
<mgrwt>
<rscale>  2 0.31973398E+03</rscale>
<asrwt>0</asrwt>
<pdfrwt beam="1">  1       21 0.21755682E+00 0.31973398E+03</pdfrwt>
<pdfrwt beam="2">  1       21 0.15422111E-01 0.31973398E+03</pdfrwt>
<totfact> 0.35183071E+03</totfact>
</mgrwt>
</event>
<event>
 4    1  0.4025504E+000  0.1841769E+03  0.7546771E-02  0.1163821E+00
         21   -1    0    0  501  502  0.00000000000E+00  0.00000000000E+00  0.84428591990E+02  0.84428591990E+02  0.00000000000E+00 0.  1.
         21   -1    0    0  502  503 -0.00000000000E+00 -0.00000000000E+00 -0.55887323952E+03  0.55887323952E+03  0.00000000000E+00 0.  1.
          6    1    1    2  501    0 -0.60389288801E+02 -0.18581061642E+02 -0.66686090194E+02  0.19587791269E+03  0.17300000000E+03 0.  1.
         -6    1    1    2    0  503  0.60389288801E+02  0.18581061642E+02 -0.40775855734E+03  0.44742391882E+03  0.17300000000E+03 0.  1.
<mgrwt>
<rscale>  2 0.18417688E+03</rscale>
<asrwt>0</asrwt>
<pdfrwt beam="1">  1       21 0.12989014E-01 0.18417688E+03</pdfrwt>
<pdfrwt beam="2">  1       21 0.85980498E-01 0.18417688E+03</pdfrwt>
<totfact> 0.59653046E+04</totfact>
</mgrwt>
</event>
<event>
 4    1  0.4025504E+000  0.2091226E+03  0.7546771E-02  0.1142263E+00
         21   -1    0    0  503  502  0.00000000000E+00  0.00000000000E+00  0.57958545481E+03  0.57958545481E+03  0.00000000000E+00 0. -1.
         21   -1    0    0  501  503 -0.00000000000E+00 -0.00000000000E+00 -0.75788939100E+02  0.75788939100E+02  0.00000000000E+00 0. -1.
          6    1    1    2  501    0  0.80724535382E+02 -0.85362838665E+02  0.27366978299E+03  0.34442330781E+03  0.17300000000E+03 0. -1.
         -6    1    1    2    0  502 -0.80724535382E+02  0.85362838665E+02  0.23012673272E+03  0.31095108610E+03  0.17300000000E+03 0. -1.
<mgrwt>
<rscale>  2 0.20912261E+03</rscale>
<asrwt>0</asrwt>
<pdfrwt beam="1">  1       21 0.89166990E-01 0.20912261E+03</pdfrwt>
<pdfrwt beam="2">  1       21 0.11659837E-01 0.20912261E+03</pdfrwt>
<totfact> 0.65801445E+04</totfact>
</mgrwt>
</event>
<event>
 4    1  0.4025504E+000  0.1910759E+03  0.7546771E-02  0.1157495E+00
         21   -1    0    0  503  502  0.00000000000E+00  0.00000000000E+00  0.49053562239E+02  0.49053562239E+02  0.00000000000E+00 0.  1.
         21   -1    0    0  501  503 -0.00000000000E+00 -0.00000000000E+00 -0.87621512334E+03  0.87621512334E+03  0.00000000000E+00 0.  1.
          6    1    1    2  501    0 -0.66793150626E+02  0.46039854344E+02 -0.59309507026E+03  0.62311456052E+03  0.17300000000E+03 0.  1.
         -6    1    1    2    0  502  0.66793150626E+02 -0.46039854344E+02 -0.23406649084E+03  0.30215412506E+03  0.17300000000E+03 0.  1.
<mgrwt>
<rscale>  2 0.19107588E+03</rscale>
<asrwt>0</asrwt>
<pdfrwt beam="1">  1       21 0.75467026E-02 0.19107588E+03</pdfrwt>
<pdfrwt beam="2">  1       21 0.13480231E+00 0.19107588E+03</pdfrwt>
<totfact> 0.52410157E+04</totfact>
</mgrwt>
</event>
<event>
 4    1  0.4025504E+000  0.1954408E+03  0.7546771E-02  0.1153644E+00
         21   -1    0    0  501  502  0.00000000000E+00  0.00000000000E+00  0.23410164156E+02  0.23410164156E+02  0.00000000000E+00 0.  1.
         21   -1    0    0  502  503 -0.00000000000E+00 -0.00000000000E+00 -0.20806748985E+04  0.20806748985E+04  0.00000000000E+00 0.  1.
          6    1    1    2  501    0  0.68981106092E+02  0.59242840436E+02 -0.53990326931E+03  0.57418868619E+03  0.17300000000E+03 0.  1.
         -6    1    1    2    0  503 -0.68981106092E+02 -0.59242840436E+02 -0.15173614650E+04  0.15298963765E+04  0.17300000000E+03 0.  1.
<mgrwt>
<rscale>  2 0.19544080E+03</rscale>
<asrwt>0</asrwt>
<pdfrwt beam="1">  1       21 0.36015632E-02 0.19544080E+03</pdfrwt>
<pdfrwt beam="2">  1       21 0.32010387E+00 0.19544080E+03</pdfrwt>
<totfact> 0.12168696E+04</totfact>
</mgrwt>
</event>
<event>
 4    1  0.4025504E+000  0.1795068E+03  0.7546771E-02  0.1168281E+00
         21   -1    0    0  503  502  0.00000000000E+00  0.00000000000E+00  0.21055935583E+03  0.21055935583E+03  0.00000000000E+00 0.  1.
         21   -1    0    0  501  503 -0.00000000000E+00 -0.00000000000E+00 -0.30414490238E+03  0.30414490238E+03  0.00000000000E+00 0.  1.
          6    1    1    2  501    0  0.45777186017E+02  0.14075664020E+02 -0.22819217083E+03  0.29033487890E+03  0.17300000000E+03 0.  1.
         -6    1    1    2    0  502 -0.45777186017E+02 -0.14075664020E+02  0.13460662427E+03  0.22436937932E+03  0.17300000000E+03 0.  1.
<mgrwt>
<rscale>  2 0.17950675E+03</rscale>
<asrwt>0</asrwt>
<pdfrwt beam="1">  1       21 0.32393747E-01 0.17950675E+03</pdfrwt>
<pdfrwt beam="2">  1       21 0.46791523E-01 0.17950675E+03</pdfrwt>
<totfact> 0.40357994E+04</totfact>
</mgrwt>
</event>
<event>
 4    1  0.4025504E+000  0.1947611E+03  0.7546771E-02  0.1154236E+00
         21   -1    0    0  501  502  0.00000000000E+00  0.00000000000E+00  0.11903627054E+03  0.11903627054E+03  0.00000000000E+00 0. -1.
         21   -1    0    0  502  503 -0.00000000000E+00 -0.00000000000E+00 -0.41034205076E+03  0.41034205076E+03  0.00000000000E+00 0. -1.
          6    1    1    2  501    0 -0.45184909338E+02  0.77208786079E+02 -0.20537773031E+02  0.19584093750E+03  0.17300000000E+03 0. -1.
         -6    1    1    2    0  503  0.45184909338E+02 -0.77208786079E+02 -0.27076800719E+03  0.33353738381E+03  0.17300000000E+03 0. -1.
<mgrwt>
<rscale>  2 0.19476107E+03</rscale>
<asrwt>0</asrwt>
<pdfrwt beam="1">  1       21 0.18313273E-01 0.19476107E+03</pdfrwt>
<pdfrwt beam="2">  1       21 0.63129545E-01 0.19476107E+03</pdfrwt>
<totfact> 0.63088001E+04</totfact>
</mgrwt>
</event>
<event>
 4    1  0.4025504E+000  0.1848424E+03  0.7546771E-02  0.1163197E+00
         21   -1    0    0  503  502  0.00000000000E+00  0.00000000000E+00  0.15486874541E+03  0.15486874541E+03  0.00000000000E+00 0. -1.
         21   -1    0    0  501  503 -0.00000000000E+00 -0.00000000000E+00 -0.41030792914E+03  0.41030792914E+03  0.00000000000E+00 0. -1.
          6    1    1    2  501    0  0.48856153709E+01 -0.64914250024E+02 -0.31986153724E+03  0.36942946837E+03  0.17300000000E+03 0. -1.
         -6    1    1    2    0  502 -0.48856153709E+01  0.64914250024E+02  0.64422353507E+02  0.19574720617E+03  0.17300000000E+03 0. -1.
<mgrwt>
<rscale>  2 0.18484244E+03</rscale>
<asrwt>0</asrwt>
<pdfrwt beam="1">  1       21 0.23825961E-01 0.18484244E+03</pdfrwt>
<pdfrwt beam="2">  1       21 0.63124296E-01 0.18484244E+03</pdfrwt>
<totfact> 0.38706425E+04</totfact>
</mgrwt>
</event>
<event>
 4    1  0.4025504E+000  0.2462134E+03  0.7546771E-02  0.1115722E+00
         21   -1    0    0  501  502  0.00000000000E+00  0.00000000000E+00  0.28654933852E+03  0.28654933852E+03  0.00000000000E+00 0.  1.
         21   -1    0    0  502  503 -0.00000000000E+00 -0.00000000000E+00 -0.28517787298E+03  0.28517787298E+03  0.00000000000E+00 0. -1.
          6    1    1    2  501    0 -0.13919022653E+03 -0.10638666694E+03  0.14593245458E+03  0.28621202519E+03  0.17300000000E+03 0.  1.
         -6    1    1    2    0  503  0.13919022653E+03  0.10638666694E+03 -0.14456098904E+03  0.28551518631E+03  0.17300000000E+03 0.  1.
<mgrwt>
<rscale>  2 0.24621341E+03</rscale>
<asrwt>0</asrwt>
<pdfrwt beam="1">  1       21 0.44084514E-01 0.24621341E+03</pdfrwt>
<pdfrwt beam="2">  1       21 0.43873519E-01 0.24621341E+03</pdfrwt>
<totfact> 0.23981827E+04</totfact>
</mgrwt>
</event>
<event>
 4    1  0.4025504E+000  0.2008668E+03  0.7546771E-02  0.1149010E+00
         21   -1    0    0  501  502  0.00000000000E+00  0.00000000000E+00  0.11399477784E+03  0.11399477784E+03  0.00000000000E+00 0.  1.
         21   -1    0    0  502  503 -0.00000000000E+00 -0.00000000000E+00 -0.36882255749E+03  0.36882255749E+03  0.00000000000E+00 0. -1.
          6    1    1    2  501    0  0.10095191835E+03 -0.15072025334E+02 -0.78922518980E+02  0.21581524452E+03  0.17300000000E+03 0.  1.
         -6    1    1    2    0  503 -0.10095191835E+03  0.15072025334E+02 -0.17590526066E+03  0.26700209081E+03  0.17300000000E+03 0. -1.
<mgrwt>
<rscale>  2 0.20086676E+03</rscale>
<asrwt>0</asrwt>
<pdfrwt beam="1">  1       21 0.17537658E-01 0.20086676E+03</pdfrwt>
<pdfrwt beam="2">  1       21 0.56741932E-01 0.20086676E+03</pdfrwt>
<totfact> 0.85704383E+04</totfact>
</mgrwt>
</event>
<event>
 4    1  0.4025504E+000  0.1892512E+03  0.7546771E-02  0.1159138E+00
         21   -1    0    0  503  502  0.00000000000E+00  0.00000000000E+00  0.22311449512E+03  0.22311449512E+03  0.00000000000E+00 0. -1.
         21   -1    0    0  501  503 -0.00000000000E+00 -0.00000000000E+00 -0.20236967819E+03  0.20236967819E+03  0.00000000000E+00 0. -1.
          6    1    1    2  501    0 -0.25376161084E+02 -0.72409132287E+02 -0.86363424176E+02  0.20802565473E+03  0.17300000000E+03 0. -1.
         -6    1    1    2    0  502  0.25376161084E+02  0.72409132287E+02  0.10710824110E+03  0.21745851858E+03  0.17300000000E+03 0. -1.
<mgrwt>
<rscale>  2 0.18925124E+03</rscale>
<asrwt>0</asrwt>
<pdfrwt beam="1">  1       21 0.34325307E-01 0.18925124E+03</pdfrwt>
<pdfrwt beam="2">  1       21 0.31133797E-01 0.18925124E+03</pdfrwt>
<totfact> 0.81177986E+04</totfact>
</mgrwt>
</event>
<event>
 4    1  0.4025504E+000  0.1824221E+03  0.7546771E-02  0.1165479E+00
         21   -1    0    0  501  502  0.00000000000E+00  0.00000000000E+00  0.21822132628E+03  0.21822132628E+03  0.00000000000E+00 0. -1.
         21   -1    0    0  502  503 -0.00000000000E+00 -0.00000000000E+00 -0.25525292296E+03  0.25525292296E+03  0.00000000000E+00 0. -1.
          6    1    1    2  501    0  0.47814614711E+02 -0.32597282693E+02  0.13169014761E+03  0.22498914462E+03  0.17300000000E+03 0. -1.
         -6    1    1    2    0  503 -0.47814614711E+02  0.32597282693E+02 -0.16872174429E+03  0.24848510462E+03  0.17300000000E+03 0. -1.
<mgrwt>
<rscale>  2 0.18242209E+03</rscale>
<asrwt>0</asrwt>
<pdfrwt beam="1">  1       21 0.33572512E-01 0.18242209E+03</pdfrwt>
<pdfrwt beam="2">  1       21 0.39269681E-01 0.18242209E+03</pdfrwt>
<totfact> 0.53675830E+04</totfact>
</mgrwt>
</event>
<event>
 4    1  0.4025504E+000  0.2256482E+03  0.7546771E-02  0.1129741E+00
         21   -1    0    0  501  502  0.00000000000E+00  0.00000000000E+00  0.22905903568E+03  0.22905903568E+03  0.00000000000E+00 0.  1.
         21   -1    0    0  502  503 -0.00000000000E+00 -0.00000000000E+00 -0.26893577945E+03  0.26893577945E+03  0.00000000000E+00 0. -1.
          6    1    1    2  501    0  0.14483224421E+03  0.34227392537E+01  0.83763269552E+02  0.24069353841E+03  0.17300000000E+03 0.  1.
         -6    1    1    2    0  503 -0.14483224421E+03 -0.34227392537E+01 -0.12364001332E+03  0.25730127672E+03  0.17300000000E+03 0. -1.
<mgrwt>
<rscale>  2 0.22564816E+03</rscale>
<asrwt>0</asrwt>
<pdfrwt beam="1">  1       21 0.35239852E-01 0.22564816E+03</pdfrwt>
<pdfrwt beam="2">  1       21 0.41374735E-01 0.22564816E+03</pdfrwt>
<totfact> 0.42976215E+04</totfact>
</mgrwt>
</event>
<event>
 4    1  0.4025504E+000  0.1772112E+03  0.7546771E-02  0.1170530E+00
         21   -1    0    0  503  502  0.00000000000E+00  0.00000000000E+00  0.12679517860E+04  0.12679517860E+04  0.00000000000E+00 0.  1.
         21   -1    0    0  501  503 -0.00000000000E+00 -0.00000000000E+00 -0.25139379169E+02  0.25139379169E+02  0.00000000000E+00 0.  1.
          6    1    1    2  501    0  0.31925835105E+02 -0.21343268146E+02  0.54275312567E+03  0.57095074171E+03  0.17300000000E+03 0. -1.
         -6    1    1    2    0  502 -0.31925835105E+02  0.21343268146E+02  0.70005928112E+03  0.72214042342E+03  0.17300000000E+03 0. -1.
<mgrwt>
<rscale>  2 0.17721116E+03</rscale>
<asrwt>0</asrwt>
<pdfrwt beam="1">  1       21 0.19506946E+00 0.17721116E+03</pdfrwt>
<pdfrwt beam="2">  1       21 0.38675978E-02 0.17721116E+03</pdfrwt>
<totfact> 0.60488326E+04</totfact>
</mgrwt>
</event>
<event>
 4    1  0.4025504E+000  0.2110261E+03  0.7546771E-02  0.1140756E+00
         21   -1    0    0  503  502  0.00000000000E+00  0.00000000000E+00  0.65857637794E+03  0.65857637794E+03  0.00000000000E+00 0.  1.
         21   -1    0    0  501  503 -0.00000000000E+00 -0.00000000000E+00 -0.72258100808E+02  0.72258100808E+02  0.00000000000E+00 0.  1.
          6    1    1    2  501    0 -0.54992089843E+02  0.10760523241E+03  0.38575277757E+03  0.43970128654E+03  0.17300000000E+03 0.  1.
         -6    1    1    2    0  502  0.54992089843E+02 -0.10760523241E+03  0.20056549957E+03  0.29113319221E+03  0.17300000000E+03 0.  1.
<mgrwt>
<rscale>  2 0.21102610E+03</rscale>
<asrwt>0</asrwt>
<pdfrwt beam="1">  1       21 0.10131944E+00 0.21102610E+03</pdfrwt>
<pdfrwt beam="2">  1       21 0.11116631E-01 0.21102610E+03</pdfrwt>
<totfact> 0.53030074E+04</totfact>
</mgrwt>
</event>
<event>
 4    1  0.4025504E+000  0.2213217E+03  0.7546771E-02  0.1132901E+00
         21   -1    0    0  501  502  0.00000000000E+00  0.00000000000E+00  0.15309156940E+04  0.15309156940E+04  0.00000000000E+00 0. -1.
         21   -1    0    0  502  503 -0.00000000000E+00 -0.00000000000E+00 -0.34740543755E+02  0.34740543755E+02  0.00000000000E+00 0. -1.
          6    1    1    2  501    0  0.86169871045E+02  0.10783807869E+03  0.96811510468E+03  0.99309121122E+03  0.17300000000E+03 0. -1.
         -6    1    1    2    0  503 -0.86169871045E+02 -0.10783807869E+03  0.52806004557E+03  0.57256502654E+03  0.17300000000E+03 0. -1.
<mgrwt>
<rscale>  2 0.22132171E+03</rscale>
<asrwt>0</asrwt>
<pdfrwt beam="1">  1       21 0.23552544E+00 0.22132171E+03</pdfrwt>
<pdfrwt beam="2">  1       21 0.53447002E-02 0.22132171E+03</pdfrwt>
<totfact> 0.19013996E+04</totfact>
</mgrwt>
</event>
<event>
 4    1  0.4025504E+000  0.2007072E+03  0.7546771E-02  0.1149144E+00
         21   -1    0    0  501  502  0.00000000000E+00  0.00000000000E+00  0.27897467490E+03  0.27897467490E+03  0.00000000000E+00 0.  1.
         21   -1    0    0  502  503 -0.00000000000E+00 -0.00000000000E+00 -0.14982478087E+03  0.14982478087E+03  0.00000000000E+00 0. -1.
          6    1    1    2  501    0  0.97962233226E+02 -0.27528082071E+02  0.10537889712E+03  0.22668944925E+03  0.17300000000E+03 0.  1.
         -6    1    1    2    0  503 -0.97962233226E+02  0.27528082071E+02  0.23770996905E+02  0.20211000652E+03  0.17300000000E+03 0. -1.
<mgrwt>
<rscale>  2 0.20070724E+03</rscale>
<asrwt>0</asrwt>
<pdfrwt beam="1">  1       21 0.42919181E-01 0.20070724E+03</pdfrwt>
<pdfrwt beam="2">  1       21 0.23049966E-01 0.20070724E+03</pdfrwt>
<totfact> 0.91974780E+04</totfact>
</mgrwt>
</event>
<event>
 4    1  0.4025504E+000  0.4959939E+03  0.7546771E-02  0.1014830E+00
         21   -1    0    0  501  502  0.00000000000E+00  0.00000000000E+00  0.13292850652E+04  0.13292850652E+04  0.00000000000E+00 0. -1.
         21   -1    0    0  502  503 -0.00000000000E+00 -0.00000000000E+00 -0.27776574724E+03  0.27776574724E+03  0.00000000000E+00 0. -1.
          6    1    1    2  501    0 -0.12621773336E+03  0.44738131479E+03  0.98994522928E+03  0.11072495265E+04  0.17300000000E+03 0. -1.
         -6    1    1    2    0  503  0.12621773336E+03 -0.44738131479E+03  0.61574088714E+02  0.49980128595E+03  0.17300000000E+03 0. -1.
<mgrwt>
<rscale>  2 0.49599391E+03</rscale>
<asrwt>0</asrwt>
<pdfrwt beam="1">  1       21 0.20450539E+00 0.49599391E+03</pdfrwt>
<pdfrwt beam="2">  1       21 0.42733193E-01 0.49599391E+03</pdfrwt>
<totfact> 0.53356577E+02</totfact>
</mgrwt>
</event>
<event>
 4    1  0.4025504E+000  0.1844881E+03  0.7546771E-02  0.1163529E+00
         21   -1    0    0  501  502  0.00000000000E+00  0.00000000000E+00  0.58356001235E+03  0.58356001235E+03  0.00000000000E+00 0.  1.
         21   -1    0    0  502  503 -0.00000000000E+00 -0.00000000000E+00 -0.66158465282E+02  0.66158465282E+02  0.00000000000E+00 0.  1.
          6    1    1    2  501    0  0.23720500215E+02 -0.59533098935E+02  0.37048822233E+03  0.41388087040E+03  0.17300000000E+03 0.  1.
         -6    1    1    2    0  503 -0.23720500215E+02  0.59533098935E+02  0.14691332474E+03  0.23583760723E+03  0.17300000000E+03 0.  1.
<mgrwt>
<rscale>  2 0.18448808E+03</rscale>
<asrwt>0</asrwt>
<pdfrwt beam="1">  1       21 0.89778460E-01 0.18448808E+03</pdfrwt>
<pdfrwt beam="2">  1       21 0.10178226E-01 0.18448808E+03</pdfrwt>
<totfact> 0.83388629E+04</totfact>
</mgrwt>
</event>
<event>
 4    1  0.4025504E+000  0.1844553E+03  0.7546771E-02  0.1163560E+00
         21   -1    0    0  503  502  0.00000000000E+00  0.00000000000E+00  0.68127983398E+02  0.68127983398E+02  0.00000000000E+00 0.  1.
         21   -1    0    0  501  503 -0.00000000000E+00 -0.00000000000E+00 -0.56927316352E+03  0.56927316352E+03  0.00000000000E+00 0.  1.
          6    1    1    2  501    0  0.58671389361E+02  0.25542478828E+02 -0.13892516449E+03  0.23091979448E+03  0.17300000000E+03 0.  1.
         -6    1    1    2    0  502 -0.58671389361E+02 -0.25542478828E+02 -0.36222001563E+03  0.40648135244E+03  0.17300000000E+03 0.  1.
<mgrwt>
<rscale>  2 0.18445528E+03</rscale>
<asrwt>0</asrwt>
<pdfrwt beam="1">  1       21 0.10481228E-01 0.18445528E+03</pdfrwt>
<pdfrwt beam="2">  1       21 0.87580487E-01 0.18445528E+03</pdfrwt>
<totfact> 0.83827631E+04</totfact>
</mgrwt>
</event>
<event>
 4    1  0.4025504E+000  0.2408222E+03  0.7546771E-02  0.1119246E+00
         21   -1    0    0  501  502  0.00000000000E+00  0.00000000000E+00  0.39893362258E+02  0.39893362258E+02  0.00000000000E+00 0. -1.
         21   -1    0    0  502  503 -0.00000000000E+00 -0.00000000000E+00 -0.28878217368E+04  0.28878217368E+04  0.00000000000E+00 0. -1.
          6    1    1    2  501    0  0.10752110932E+03  0.12847384265E+03 -0.39239641118E+03  0.46040228138E+03  0.17300000000E+03 0. -1.
         -6    1    1    2    0  503 -0.10752110932E+03 -0.12847384265E+03 -0.24555319633E+04  0.24673128177E+04  0.17300000000E+03 0. -1.
<mgrwt>
<rscale>  2 0.24082217E+03</rscale>
<asrwt>0</asrwt>
<pdfrwt beam="1">  1       21 0.61374402E-02 0.24082217E+03</pdfrwt>
<pdfrwt beam="2">  1       21 0.44428028E+00 0.24082217E+03</pdfrwt>
<totfact> 0.80303979E+02</totfact>
</mgrwt>
</event>
<event>
 4    1  0.4025504E+000  0.2171788E+03  0.7546771E-02  0.1136004E+00
         21   -1    0    0  503  502  0.00000000000E+00  0.00000000000E+00  0.54163585771E+02  0.54163585771E+02  0.00000000000E+00 0. -1.
         21   -1    0    0  501  503 -0.00000000000E+00 -0.00000000000E+00 -0.95315470103E+03  0.95315470103E+03  0.00000000000E+00 0.  1.
          6    1    1    2  501    0  0.12678669687E+03 -0.34099266828E+02 -0.59752622755E+03  0.63577057112E+03  0.17300000000E+03 0.  1.
         -6    1    1    2    0  502 -0.12678669687E+03  0.34099266828E+02 -0.30146488771E+03  0.37154771568E+03  0.17300000000E+03 0. -1.
<mgrwt>
<rscale>  2 0.21717879E+03</rscale>
<asrwt>0</asrwt>
<pdfrwt beam="1">  1       21 0.83328601E-02 0.21717879E+03</pdfrwt>
<pdfrwt beam="2">  1       21 0.14663917E+00 0.21717879E+03</pdfrwt>
<totfact> 0.34946288E+04</totfact>
</mgrwt>
</event>
<event>
 4    1  0.4025504E+000  0.1809104E+03  0.7546771E-02  0.1166925E+00
         21   -1    0    0  503  502  0.00000000000E+00  0.00000000000E+00  0.28437502546E+03  0.28437502546E+03  0.00000000000E+00 0.  1.
         21   -1    0    0  501  503 -0.00000000000E+00 -0.00000000000E+00 -0.11536497516E+03  0.11536497516E+03  0.00000000000E+00 0.  1.
          6    1    1    2  501    0  0.21076433388E+02  0.48531953992E+02  0.94272618639E+02  0.20399973830E+03  0.17300000000E+03 0. -1.
         -6    1    1    2    0  502 -0.21076433388E+02 -0.48531953992E+02  0.74737431664E+02  0.19574026232E+03  0.17300000000E+03 0. -1.
<mgrwt>
<rscale>  2 0.18091038E+03</rscale>
<asrwt>0</asrwt>
<pdfrwt beam="1">  1       21 0.43750004E-01 0.18091038E+03</pdfrwt>
<pdfrwt beam="2">  1       21 0.17748458E-01 0.18091038E+03</pdfrwt>
<totfact> 0.14521864E+05</totfact>
</mgrwt>
</event>
<event>
 4    1  0.4025504E+000  0.1800350E+03  0.7546771E-02  0.1167769E+00
         21   -1    0    0  501  502  0.00000000000E+00  0.00000000000E+00  0.90102003539E+02  0.90102003539E+02  0.00000000000E+00 0.  1.
         21   -1    0    0  502  503 -0.00000000000E+00 -0.00000000000E+00 -0.36810314323E+03  0.36810314323E+03  0.00000000000E+00 0.  1.
          6    1    1    2  501    0  0.45558233322E+02 -0.20200479937E+02 -0.10445227410E+03  0.20814151334E+03  0.17300000000E+03 0.  1.
         -6    1    1    2    0  503 -0.45558233322E+02  0.20200479937E+02 -0.17354886560E+03  0.25006363343E+03  0.17300000000E+03 0.  1.
<mgrwt>
<rscale>  2 0.18003503E+03</rscale>
<asrwt>0</asrwt>
<pdfrwt beam="1">  1       21 0.13861847E-01 0.18003503E+03</pdfrwt>
<pdfrwt beam="2">  1       21 0.56631253E-01 0.18003503E+03</pdfrwt>
<totfact> 0.13329510E+05</totfact>
</mgrwt>
</event>
<event>
 4    1  0.4025504E+000  0.1898867E+03  0.7546771E-02  0.1158564E+00
         21   -1    0    0  501  502  0.00000000000E+00  0.00000000000E+00  0.31998240780E+03  0.31998240780E+03  0.00000000000E+00 0.  1.
         21   -1    0    0  502  503 -0.00000000000E+00 -0.00000000000E+00 -0.35349183348E+03  0.35349183348E+03  0.00000000000E+00 0.  1.
          6    1    1    2  501    0  0.67435970887E+02  0.39753828726E+02  0.26117589863E+03  0.32290838808E+03  0.17300000000E+03 0.  1.
         -6    1    1    2    0  503 -0.67435970887E+02 -0.39753828726E+02 -0.29468532431E+03  0.35056585320E+03  0.17300000000E+03 0.  1.
<mgrwt>
<rscale>  2 0.18988675E+03</rscale>
<asrwt>0</asrwt>
<pdfrwt beam="1">  1       21 0.49228063E-01 0.18988675E+03</pdfrwt>
<pdfrwt beam="2">  1       21 0.54383359E-01 0.18988675E+03</pdfrwt>
<totfact> 0.12596012E+04</totfact>
</mgrwt>
</event>
<event>
 4    1  0.4025504E+000  0.1917307E+03  0.7546771E-02  0.1156910E+00
         21   -1    0    0  501  502  0.00000000000E+00  0.00000000000E+00  0.65762576613E+03  0.65762576613E+03  0.00000000000E+00 0. -1.
         21   -1    0    0  502  503 -0.00000000000E+00 -0.00000000000E+00 -0.72418179491E+02  0.72418179491E+02  0.00000000000E+00 0.  1.
          6    1    1    2  501    0 -0.66215152342E+02 -0.49469390937E+02  0.46694038704E+03  0.50477122748E+03  0.17300000000E+03 0. -1.
         -6    1    1    2    0  503  0.66215152342E+02  0.49469390937E+02  0.11826719960E+03  0.22527271814E+03  0.17300000000E+03 0.  1.
<mgrwt>
<rscale>  2 0.19173071E+03</rscale>
<asrwt>0</asrwt>
<pdfrwt beam="1">  1       21 0.10117319E+00 0.19173071E+03</pdfrwt>
<pdfrwt beam="2">  1       21 0.11141259E-01 0.19173071E+03</pdfrwt>
<totfact> 0.53521024E+04</totfact>
</mgrwt>
</event>
<event>
 4    1  0.4025504E+000  0.2034293E+03  0.7546771E-02  0.1146878E+00
         21   -1    0    0  501  502  0.00000000000E+00  0.00000000000E+00  0.84887334474E+03  0.84887334474E+03  0.00000000000E+00 0. -1.
         21   -1    0    0  502  503 -0.00000000000E+00 -0.00000000000E+00 -0.66860962875E+02  0.66860962875E+02  0.00000000000E+00 0. -1.
          6    1    1    2  501    0  0.69851287613E+02 -0.81088075891E+02  0.62929914073E+03  0.66136290110E+03  0.17300000000E+03 0. -1.
         -6    1    1    2    0  503 -0.69851287613E+02  0.81088075891E+02  0.15271324114E+03  0.25437140651E+03  0.17300000000E+03 0. -1.
<mgrwt>
<rscale>  2 0.20342930E+03</rscale>
<asrwt>0</asrwt>
<pdfrwt beam="1">  1       21 0.13059589E+00 0.20342930E+03</pdfrwt>
<pdfrwt beam="2">  1       21 0.10286303E-01 0.20342930E+03</pdfrwt>
<totfact> 0.32774715E+04</totfact>
</mgrwt>
</event>
<event>
 4    1  0.4025504E+000  0.1817070E+03  0.7546771E-02  0.1166161E+00
         21   -1    0    0  503  502  0.00000000000E+00  0.00000000000E+00  0.76147554774E+02  0.76147554774E+02  0.00000000000E+00 0. -1.
         21   -1    0    0  501  503 -0.00000000000E+00 -0.00000000000E+00 -0.48731948124E+03  0.48731948124E+03  0.00000000000E+00 0. -1.
          6    1    1    2  501    0 -0.67276245294E+01 -0.55164882115E+02 -0.29912776770E+03  0.34999263787E+03  0.17300000000E+03 0. -1.
         -6    1    1    2    0  502  0.67276245294E+01  0.55164882115E+02 -0.11204415876E+03  0.21347439814E+03  0.17300000000E+03 0. -1.
<mgrwt>
<rscale>  2 0.18170698E+03</rscale>
<asrwt>0</asrwt>
<pdfrwt beam="1">  1       21 0.11715009E-01 0.18170698E+03</pdfrwt>
<pdfrwt beam="2">  1       21 0.74972227E-01 0.18170698E+03</pdfrwt>
<totfact> 0.97896168E+04</totfact>
</mgrwt>
</event>
<event>
 4    1  0.4025504E+000  0.1738143E+03  0.7546771E-02  0.1173928E+00
         21   -1    0    0  503  502  0.00000000000E+00  0.00000000000E+00  0.70091930693E+02  0.70091930693E+02  0.00000000000E+00 0. -1.
         21   -1    0    0  501  503 -0.00000000000E+00 -0.00000000000E+00 -0.43792176720E+03  0.43792176720E+03  0.00000000000E+00 0. -1.
          6    1    1    2  501    0  0.12336759426E+02 -0.11411057775E+02 -0.15203957137E+03  0.23092734601E+03  0.17300000000E+03 0. -1.
         -6    1    1    2    0  502 -0.12336759426E+02  0.11411057775E+02 -0.21579026514E+03  0.27708635188E+03  0.17300000000E+03 0. -1.
<mgrwt>
<rscale>  2 0.17381429E+03</rscale>
<asrwt>0</asrwt>
<pdfrwt beam="1">  1       21 0.10783374E-01 0.17381429E+03</pdfrwt>
<pdfrwt beam="2">  1       21 0.67372580E-01 0.17381429E+03</pdfrwt>
<totfact> 0.14402036E+05</totfact>
</mgrwt>
</event>
<event>
 4    1  0.4025504E+000  0.2158322E+03  0.7546771E-02  0.1137029E+00
         21   -1    0    0  501  502  0.00000000000E+00  0.00000000000E+00  0.20031356978E+04  0.20031356978E+04  0.00000000000E+00 0.  1.
         21   -1    0    0  502  503 -0.00000000000E+00 -0.00000000000E+00 -0.24453292177E+02  0.24453292177E+02  0.00000000000E+00 0.  1.
          6    1    1    2  501    0 -0.99469046215E+02 -0.82221986990E+02  0.12137325032E+04  0.12327733512E+04  0.17300000000E+03 0.  1.
         -6    1    1    2    0  503  0.99469046215E+02  0.82221986990E+02  0.76494990242E+03  0.79481563870E+03  0.17300000000E+03 0.  1.
<mgrwt>
<rscale>  2 0.21583222E+03</rscale>
<asrwt>0</asrwt>
<pdfrwt beam="1">  1       21 0.30817459E+00 0.21583222E+03</pdfrwt>
<pdfrwt beam="2">  1       21 0.37620465E-02 0.21583222E+03</pdfrwt>
<totfact> 0.12989149E+04</totfact>
</mgrwt>
</event>
<event>
 4    1  0.4025504E+000  0.2096290E+03  0.7546771E-02  0.1141860E+00
         21   -1    0    0  503  502  0.00000000000E+00  0.00000000000E+00  0.69521430119E+03  0.69521430119E+03  0.00000000000E+00 0.  1.
         21   -1    0    0  501  503 -0.00000000000E+00 -0.00000000000E+00 -0.14002743178E+03  0.14002743178E+03  0.00000000000E+00 0.  1.
          6    1    1    2  501    0  0.11010907976E+03 -0.43488957773E+02 -0.31725368665E+02  0.21201603220E+03  0.17300000000E+03 0.  1.
         -6    1    1    2    0  502 -0.11010907976E+03  0.43488957773E+02  0.58691223807E+03  0.62322570076E+03  0.17300000000E+03 0.  1.
<mgrwt>
<rscale>  2 0.20962896E+03</rscale>
<asrwt>0</asrwt>
<pdfrwt beam="1">  1       21 0.10695604E+00 0.20962896E+03</pdfrwt>
<pdfrwt beam="2">  1       21 0.21542682E-01 0.20962896E+03</pdfrwt>
<totfact> 0.13877916E+04</totfact>
</mgrwt>
</event>
<event>
 4    1  0.4025504E+000  0.2277897E+03  0.7546771E-02  0.1128205E+00
         21   -1    0    0  503  502  0.00000000000E+00  0.00000000000E+00  0.12302057095E+03  0.12302057095E+03  0.00000000000E+00 0. -1.
         21   -1    0    0  501  503 -0.00000000000E+00 -0.00000000000E+00 -0.46653192573E+03  0.46653192573E+03  0.00000000000E+00 0.  1.
          6    1    1    2  501    0 -0.14243880347E+03 -0.40869683566E+02 -0.26304854853E+03  0.34796937028E+03  0.17300000000E+03 0.  1.
         -6    1    1    2    0  502  0.14243880347E+03  0.40869683566E+02 -0.80462806260E+02  0.24158312640E+03  0.17300000000E+03 0.  1.
<mgrwt>
<rscale>  2 0.22778969E+03</rscale>
<asrwt>0</asrwt>
<pdfrwt beam="1">  1       21 0.18926242E-01 0.22778969E+03</pdfrwt>
<pdfrwt beam="2">  1       21 0.71774143E-01 0.22778969E+03</pdfrwt>
<totfact> 0.44089434E+04</totfact>
</mgrwt>
</event>
<event>
 4    1  0.4025504E+000  0.2589957E+03  0.7546771E-02  0.1107748E+00
         21   -1    0    0  503  502  0.00000000000E+00  0.00000000000E+00  0.86482263859E+03  0.86482263859E+03  0.00000000000E+00 0.  1.
         21   -1    0    0  501  503 -0.00000000000E+00 -0.00000000000E+00 -0.33807106833E+03  0.33807106833E+03  0.00000000000E+00 0. -1.
          6    1    1    2  501    0  0.12742885859E+03 -0.14460855321E+03 -0.26458705024E+03  0.37024998962E+03  0.17300000000E+03 0. -1.
         -6    1    1    2    0  502 -0.12742885859E+03  0.14460855321E+03  0.79133862049E+03  0.83264371729E+03  0.17300000000E+03 0.  1.
<mgrwt>
<rscale>  2 0.25899565E+03</rscale>
<asrwt>0</asrwt>
<pdfrwt beam="1">  1       21 0.13304964E+00 0.25899565E+03</pdfrwt>
<pdfrwt beam="2">  1       21 0.52010934E-01 0.25899565E+03</pdfrwt>
<totfact> 0.13505315E+03</totfact>
</mgrwt>
</event>
<event>
 4    1  0.4025504E+000  0.2027577E+03  0.7546771E-02  0.1147433E+00
         21   -1    0    0  503  502  0.00000000000E+00  0.00000000000E+00  0.88528560417E+03  0.88528560417E+03  0.00000000000E+00 0.  1.
         21   -1    0    0  501  503 -0.00000000000E+00 -0.00000000000E+00 -0.48410105036E+02  0.48410105036E+02  0.00000000000E+00 0. -1.
          6    1    1    2  501    0  0.72059863734E+02 -0.77388953428E+02  0.51267000575E+03  0.55130863305E+03  0.17300000000E+03 0. -1.
         -6    1    1    2    0  502 -0.72059863734E+02  0.77388953428E+02  0.32420549338E+03  0.38238707615E+03  0.17300000000E+03 0. -1.
<mgrwt>
<rscale>  2 0.20275767E+03</rscale>
<asrwt>0</asrwt>
<pdfrwt beam="1">  1       21 0.13619777E+00 0.20275767E+03</pdfrwt>
<pdfrwt beam="2">  1       21 0.74477091E-02 0.20275767E+03</pdfrwt>
<totfact> 0.51903990E+04</totfact>
</mgrwt>
</event>
<event>
 4    1  0.4025504E+000  0.1859255E+03  0.7546771E-02  0.1162188E+00
         21   -1    0    0  503  502  0.00000000000E+00  0.00000000000E+00  0.17246284954E+03  0.17246284954E+03  0.00000000000E+00 0.  1.
         21   -1    0    0  501  503 -0.00000000000E+00 -0.00000000000E+00 -0.37479664481E+03  0.37479664481E+03  0.00000000000E+00 0.  1.
          6    1    1    2  501    0 -0.26707090539E+02  0.62657939813E+02 -0.28779881715E+03  0.34263164661E+03  0.17300000000E+03 0.  1.
         -6    1    1    2    0  502  0.26707090539E+02 -0.62657939813E+02  0.85465021870E+02  0.20462784774E+03  0.17300000000E+03 0.  1.
<mgrwt>
<rscale>  2 0.18592549E+03</rscale>
<asrwt>0</asrwt>
<pdfrwt beam="1">  1       21 0.26532746E-01 0.18592549E+03</pdfrwt>
<pdfrwt beam="2">  1       21 0.57661022E-01 0.18592549E+03</pdfrwt>
<totfact> 0.38262059E+04</totfact>
</mgrwt>
</event>
<event>
 4    1  0.4025504E+000  0.2129363E+03  0.7546771E-02  0.1139262E+00
         21   -1    0    0  503  502  0.00000000000E+00  0.00000000000E+00  0.35548488762E+03  0.35548488762E+03  0.00000000000E+00 0.  1.
         21   -1    0    0  501  503 -0.00000000000E+00 -0.00000000000E+00 -0.12756112706E+03  0.12756112706E+03  0.00000000000E+00 0. -1.
          6    1    1    2  501    0 -0.11908945138E+03  0.35079560174E+02  0.11628073774E+03  0.24261715303E+03  0.17300000000E+03 0. -1.
         -6    1    1    2    0  502  0.11908945138E+03 -0.35079560174E+02  0.11164302282E+03  0.24042886165E+03  0.17300000000E+03 0. -1.
<mgrwt>
<rscale>  2 0.21293631E+03</rscale>
<asrwt>0</asrwt>
<pdfrwt beam="1">  1       21 0.54689982E-01 0.21293631E+03</pdfrwt>
<pdfrwt beam="2">  1       21 0.19624789E-01 0.21293631E+03</pdfrwt>
<totfact> 0.74824360E+04</totfact>
</mgrwt>
</event>
<event>
 4    1  0.4025504E+000  0.1944254E+03  0.7546771E-02  0.1154529E+00
         21   -1    0    0  503  502  0.00000000000E+00  0.00000000000E+00  0.49122613208E+03  0.49122613208E+03  0.00000000000E+00 0.  1.
         21   -1    0    0  501  503 -0.00000000000E+00 -0.00000000000E+00 -0.98915291859E+02  0.98915291859E+02  0.00000000000E+00 0.  1.
          6    1    1    2  501    0 -0.75969161871E+02 -0.45835982331E+02  0.57117040058E+02  0.20264157297E+03  0.17300000000E+03 0.  1.
         -6    1    1    2    0  502  0.75969161871E+02  0.45835982331E+02  0.33519380016E+03  0.38749985097E+03  0.17300000000E+03 0.  1.
<mgrwt>
<rscale>  2 0.19442544E+03</rscale>
<asrwt>0</asrwt>
<pdfrwt beam="1">  1       21 0.75573250E-01 0.19442544E+03</pdfrwt>
<pdfrwt beam="2">  1       21 0.15217737E-01 0.19442544E+03</pdfrwt>
<totfact> 0.59681495E+04</totfact>
</mgrwt>
</event>
<event>
 4    1  0.4025504E+000  0.2118384E+03  0.7546771E-02  0.1140118E+00
         21   -1    0    0  503  502  0.00000000000E+00  0.00000000000E+00  0.81951106284E+02  0.81951106284E+02  0.00000000000E+00 0.  1.
         21   -1    0    0  501  503 -0.00000000000E+00 -0.00000000000E+00 -0.61259469792E+03  0.61259469792E+03  0.00000000000E+00 0.  1.
          6    1    1    2  501    0  0.94543832400E+02 -0.77511234895E+02 -0.15219646767E+03  0.26084342535E+03  0.17300000000E+03 0.  1.
         -6    1    1    2    0  502 -0.94543832400E+02  0.77511234895E+02 -0.37844712397E+03  0.43370237885E+03  0.17300000000E+03 0.  1.
<mgrwt>
<rscale>  2 0.21183845E+03</rscale>
<asrwt>0</asrwt>
<pdfrwt beam="1">  1       21 0.12607863E-01 0.21183845E+03</pdfrwt>
<pdfrwt beam="2">  1       21 0.94245337E-01 0.21183845E+03</pdfrwt>
<totfact> 0.50203974E+04</totfact>
</mgrwt>
</event>
<event>
 4    1  0.4025504E+000  0.1920080E+03  0.7546771E-02  0.1156663E+00
         21   -1    0    0  503  502  0.00000000000E+00  0.00000000000E+00  0.19264570166E+04  0.19264570166E+04  0.00000000000E+00 0.  1.
         21   -1    0    0  501  503 -0.00000000000E+00 -0.00000000000E+00 -0.48008712140E+02  0.48008712140E+02  0.00000000000E+00 0.  1.
          6    1    1    2  501    0 -0.57467920070E+02 -0.60295205071E+02  0.17363807326E+03  0.25887690912E+03  0.17300000000E+03 0.  1.
         -6    1    1    2    0  502  0.57467920070E+02  0.60295205071E+02  0.17048102312E+04  0.17155888196E+04  0.17300000000E+03 0.  1.
<mgrwt>
<rscale>  2 0.19200800E+03</rscale>
<asrwt>0</asrwt>
<pdfrwt beam="1">  1       21 0.29637794E+00 0.19200800E+03</pdfrwt>
<pdfrwt beam="2">  1       21 0.73859572E-02 0.19200800E+03</pdfrwt>
<totfact> 0.49406983E+03</totfact>
</mgrwt>
</event>
<event>
 4    1  0.4025504E+000  0.2027020E+03  0.7546771E-02  0.1147479E+00
         21   -1    0    0  503  502  0.00000000000E+00  0.00000000000E+00  0.34952167408E+03  0.34952167408E+03  0.00000000000E+00 0.  1.
         21   -1    0    0  501  503 -0.00000000000E+00 -0.00000000000E+00 -0.12448323471E+03  0.12448323471E+03  0.00000000000E+00 0. -1.
          6    1    1    2  501    0 -0.35333686561E+02 -0.99552206453E+02  0.16843064490E+03  0.26354694716E+03  0.17300000000E+03 0.  1.
         -6    1    1    2    0  502  0.35333686561E+02  0.99552206453E+02  0.56607794464E+02  0.21045796162E+03  0.17300000000E+03 0. -1.
<mgrwt>
<rscale>  2 0.20270203E+03</rscale>
<asrwt>0</asrwt>
<pdfrwt beam="1">  1       21 0.53772565E-01 0.20270203E+03</pdfrwt>
<pdfrwt beam="2">  1       21 0.19151267E-01 0.20270203E+03</pdfrwt>
<totfact> 0.81519240E+04</totfact>
</mgrwt>
</event>
<event>
 4    1  0.4025504E+000  0.1956112E+03  0.7546771E-02  0.1153496E+00
         21   -1    0    0  501  502  0.00000000000E+00  0.00000000000E+00  0.70735327282E+03  0.70735327282E+03  0.00000000000E+00 0. -1.
         21   -1    0    0  502  503 -0.00000000000E+00 -0.00000000000E+00 -0.56585687591E+02  0.56585687591E+02  0.00000000000E+00 0. -1.
          6    1    1    2  501    0  0.60573074269E+02  0.68305504641E+02  0.40553333508E+03  0.45024551653E+03  0.17300000000E+03 0. -1.
         -6    1    1    2    0  503 -0.60573074269E+02 -0.68305504641E+02  0.24523425015E+03  0.31369344389E+03  0.17300000000E+03 0. -1.
<mgrwt>
<rscale>  2 0.19561119E+03</rscale>
<asrwt>0</asrwt>
<pdfrwt beam="1">  1       21 0.10882357E+00 0.19561119E+03</pdfrwt>
<pdfrwt beam="2">  1       21 0.87054909E-02 0.19561119E+03</pdfrwt>
<totfact> 0.69310229E+04</totfact>
</mgrwt>
</event>
<event>
 4    1  0.4025504E+000  0.2103688E+03  0.7546771E-02  0.1141274E+00
         21   -1    0    0  501  502  0.00000000000E+00  0.00000000000E+00  0.17064609235E+03  0.17064609235E+03  0.00000000000E+00 0.  1.
         21   -1    0    0  502  503 -0.00000000000E+00 -0.00000000000E+00 -0.38915246553E+03  0.38915246553E+03  0.00000000000E+00 0.  1.
          6    1    1    2  501    0 -0.11270034985E+03 -0.40307357582E+02 -0.27091337552E+03  0.34300015884E+03  0.17300000000E+03 0.  1.
         -6    1    1    2    0  503  0.11270034985E+03  0.40307357582E+02  0.52407002337E+02  0.21679839904E+03  0.17300000000E+03 0.  1.
<mgrwt>
<rscale>  2 0.21036885E+03</rscale>
<asrwt>0</asrwt>
<pdfrwt beam="1">  1       21 0.26253245E-01 0.21036885E+03</pdfrwt>
<pdfrwt beam="2">  1       21 0.59869609E-01 0.21036885E+03</pdfrwt>
<totfact> 0.35574626E+04</totfact>
</mgrwt>
</event>
<event>
 4    1  0.4025504E+000  0.2351349E+03  0.7546771E-02  0.1123077E+00
         21   -1    0    0  503  502  0.00000000000E+00  0.00000000000E+00  0.59957352225E+03  0.59957352225E+03  0.00000000000E+00 0.  1.
         21   -1    0    0  501  503 -0.00000000000E+00 -0.00000000000E+00 -0.11144291583E+03  0.11144291583E+03  0.00000000000E+00 0.  1.
          6    1    1    2  501    0  0.83003257225E+02 -0.13590386297E+03  0.96388096193E+02  0.25412411489E+03  0.17300000000E+03 0. -1.
         -6    1    1    2    0  502 -0.83003257225E+02  0.13590386297E+03  0.39174251023E+03  0.45689232320E+03  0.17300000000E+03 0. -1.
<mgrwt>
<rscale>  2 0.23513486E+03</rscale>
<asrwt>0</asrwt>
<pdfrwt beam="1">  1       21 0.92242079E-01 0.23513486E+03</pdfrwt>
<pdfrwt beam="2">  1       21 0.17145064E-01 0.23513486E+03</pdfrwt>
<totfact> 0.29791818E+04</totfact>
</mgrwt>
</event>
<event>
 4    1  0.4025504E+000  0.2280180E+03  0.7546771E-02  0.1128043E+00
         21   -1    0    0  501  502  0.00000000000E+00  0.00000000000E+00  0.19576835780E+04  0.19576835780E+04  0.00000000000E+00 0.  1.
         21   -1    0    0  502  503 -0.00000000000E+00 -0.00000000000E+00 -0.28871296515E+02  0.28871296515E+02  0.00000000000E+00 0. -1.
          6    1    1    2  501    0 -0.14625113450E+03 -0.25958022194E+02  0.68324807479E+03  0.72029170824E+03  0.17300000000E+03 0. -1.
         -6    1    1    2    0  503  0.14625113450E+03  0.25958022194E+02  0.12455642067E+04  0.12662631663E+04  0.17300000000E+03 0. -1.
<mgrwt>
<rscale>  2 0.22801801E+03</rscale>
<asrwt>0</asrwt>
<pdfrwt beam="1">  1       21 0.30118199E+00 0.22801801E+03</pdfrwt>
<pdfrwt beam="2">  1       21 0.44417395E-02 0.22801801E+03</pdfrwt>
<totfact> 0.10657533E+04</totfact>
</mgrwt>
</event>
<event>
 4    1  0.4025504E+000  0.1801511E+03  0.7546771E-02  0.1167657E+00
         21   -1    0    0  501  502  0.00000000000E+00  0.00000000000E+00  0.29003915885E+03  0.29003915885E+03  0.00000000000E+00 0.  1.
         21   -1    0    0  502  503 -0.00000000000E+00 -0.00000000000E+00 -0.14738433926E+03  0.14738433926E+03  0.00000000000E+00 0.  1.
          6    1    1    2  501    0 -0.39921674031E+02  0.30523466989E+02  0.17864849490E+03  0.25371185787E+03  0.17300000000E+03 0.  1.
         -6    1    1    2    0  503  0.39921674031E+02 -0.30523466989E+02 -0.35993675310E+02  0.18371164023E+03  0.17300000000E+03 0.  1.
<mgrwt>
<rscale>  2 0.18015111E+03</rscale>
<asrwt>0</asrwt>
<pdfrwt beam="1">  1       21 0.44621409E-01 0.18015111E+03</pdfrwt>
<pdfrwt beam="2">  1       21 0.22674514E-01 0.18015111E+03</pdfrwt>
<totfact> 0.88347334E+04</totfact>
</mgrwt>
</event>
<event>
 4    1  0.4025504E+000  0.1849591E+03  0.7546771E-02  0.1163088E+00
         21   -1    0    0  503  502  0.00000000000E+00  0.00000000000E+00  0.21575749738E+03  0.21575749738E+03  0.00000000000E+00 0.  1.
         21   -1    0    0  501  503 -0.00000000000E+00 -0.00000000000E+00 -0.15865957293E+03  0.15865957293E+03  0.00000000000E+00 0.  1.
          6    1    1    2  501    0 -0.54447176057E+02 -0.36281847184E+02  0.23789575992E+02  0.18648273738E+03  0.17300000000E+03 0.  1.
         -6    1    1    2    0  502  0.54447176057E+02  0.36281847184E+02  0.33308348458E+02  0.18793433293E+03  0.17300000000E+03 0.  1.
<mgrwt>
<rscale>  2 0.18495910E+03</rscale>
<asrwt>0</asrwt>
<pdfrwt beam="1">  1       21 0.33193461E-01 0.18495910E+03</pdfrwt>
<pdfrwt beam="2">  1       21 0.24409165E-01 0.18495910E+03</pdfrwt>
<totfact> 0.13890085E+05</totfact>
</mgrwt>
</event>
<event>
 4    1  0.4025504E+000  0.2026457E+03  0.7546771E-02  0.1147526E+00
         21   -1    0    0  503  502  0.00000000000E+00  0.00000000000E+00  0.15277402144E+04  0.15277402144E+04  0.00000000000E+00 0.  1.
         21   -1    0    0  501  503 -0.00000000000E+00 -0.00000000000E+00 -0.27976763808E+02  0.27976763808E+02  0.00000000000E+00 0.  1.
          6    1    1    2  501    0 -0.87984631884E+02 -0.58266441699E+02  0.59585074490E+03  0.62936744742E+03  0.17300000000E+03 0.  1.
         -6    1    1    2    0  502  0.87984631884E+02  0.58266441699E+02  0.90391270565E+03  0.92634953074E+03  0.17300000000E+03 0.  1.
<mgrwt>
<rscale>  2 0.20264569E+03</rscale>
<asrwt>0</asrwt>
<pdfrwt beam="1">  1       21 0.23503689E+00 0.20264569E+03</pdfrwt>
<pdfrwt beam="2">  1       21 0.43041187E-02 0.20264569E+03</pdfrwt>
<totfact> 0.28037126E+04</totfact>
</mgrwt>
</event>
<event>
 4    1  0.4025504E+000  0.2014775E+03  0.7546771E-02  0.1148498E+00
         21   -1    0    0  501  502  0.00000000000E+00  0.00000000000E+00  0.24598641740E+03  0.24598641740E+03  0.00000000000E+00 0. -1.
         21   -1    0    0  502  503 -0.00000000000E+00 -0.00000000000E+00 -0.17185038241E+03  0.17185038241E+03  0.00000000000E+00 0.  1.
          6    1    1    2  501    0 -0.10231708567E+03  0.13977920541E+02 -0.45767702574E+01  0.20152943980E+03  0.17300000000E+03 0.  1.
         -6    1    1    2    0  503  0.10231708567E+03 -0.13977920541E+02  0.78712805248E+02  0.21630736000E+03  0.17300000000E+03 0. -1.
<mgrwt>
<rscale>  2 0.20147746E+03</rscale>
<asrwt>0</asrwt>
<pdfrwt beam="1">  1       21 0.37844064E-01 0.20147746E+03</pdfrwt>
<pdfrwt beam="2">  1       21 0.26438521E-01 0.20147746E+03</pdfrwt>
<totfact> 0.91301302E+04</totfact>
</mgrwt>
</event>
<event>
 4    1  0.4025504E+000  0.1808488E+03  0.7546771E-02  0.1166984E+00
         21   -1    0    0  501  502  0.00000000000E+00  0.00000000000E+00  0.14368581877E+03  0.14368581877E+03  0.00000000000E+00 0.  1.
         21   -1    0    0  502  503 -0.00000000000E+00 -0.00000000000E+00 -0.34989963267E+03  0.34989963267E+03  0.00000000000E+00 0. -1.
          6    1    1    2  501    0  0.40472239223E+02  0.33753553612E+02  0.42784938894E+02  0.18584094147E+03  0.17300000000E+03 0.  1.
         -6    1    1    2    0  503 -0.40472239223E+02 -0.33753553612E+02 -0.24899875279E+03  0.30774450998E+03  0.17300000000E+03 0. -1.
<mgrwt>
<rscale>  2 0.18084884E+03</rscale>
<asrwt>0</asrwt>
<pdfrwt beam="1">  1       21 0.22105511E-01 0.18084884E+03</pdfrwt>
<pdfrwt beam="2">  1       21 0.53830713E-01 0.18084884E+03</pdfrwt>
<totfact> 0.62765918E+04</totfact>
</mgrwt>
</event>
<event>
 4    1  0.4025504E+000  0.1810766E+03  0.7546771E-02  0.1166765E+00
         21   -1    0    0  503  502  0.00000000000E+00  0.00000000000E+00  0.75249895696E+03  0.75249895696E+03  0.00000000000E+00 0.  1.
         21   -1    0    0  501  503 -0.00000000000E+00 -0.00000000000E+00 -0.44581838320E+02  0.44581838320E+02  0.00000000000E+00 0.  1.
          6    1    1    2  501    0 -0.64462885844E+01  0.53086664162E+02  0.41390622185E+03  0.45178214776E+03  0.17300000000E+03 0. -1.
         -6    1    1    2    0  502  0.64462885844E+01 -0.53086664162E+02  0.29401089679E+03  0.34529864752E+03  0.17300000000E+03 0. -1.
<mgrwt>
<rscale>  2 0.18107664E+03</rscale>
<asrwt>0</asrwt>
<pdfrwt beam="1">  1       21 0.11576906E+00 0.18107664E+03</pdfrwt>
<pdfrwt beam="2">  1       21 0.68587449E-02 0.18107664E+03</pdfrwt>
<totfact> 0.90836629E+04</totfact>
</mgrwt>
</event>
<event>
 4    1  0.4025504E+000  0.1798195E+03  0.7546771E-02  0.1167978E+00
         21   -1    0    0  503  502  0.00000000000E+00  0.00000000000E+00  0.16592194953E+02  0.16592194953E+02  0.00000000000E+00 0.  1.
         21   -1    0    0  501  503 -0.00000000000E+00 -0.00000000000E+00 -0.25145452508E+04  0.25145452508E+04  0.00000000000E+00 0.  1.
          6    1    1    2  501    0  0.46761990976E+02 -0.14811201220E+02 -0.18492679841E+04  0.18579900786E+04  0.17300000000E+03 0.  1.
         -6    1    1    2    0  502 -0.46761990976E+02  0.14811201220E+02 -0.64868507177E+03  0.67314736709E+03  0.17300000000E+03 0.  1.
<mgrwt>
<rscale>  2 0.17981951E+03</rscale>
<asrwt>0</asrwt>
<pdfrwt beam="1">  1       21 0.25526473E-02 0.17981951E+03</pdfrwt>
<pdfrwt beam="2">  1       21 0.38685282E+00 0.17981951E+03</pdfrwt>
<totfact> 0.88227932E+03</totfact>
</mgrwt>
</event>
<event>
 4    1  0.4025504E+000  0.1758730E+03  0.7546771E-02  0.1171858E+00
         21   -1    0    0  503  502  0.00000000000E+00  0.00000000000E+00  0.15029405000E+02  0.15029405000E+02  0.00000000000E+00 0.  1.
         21   -1    0    0  501  503 -0.00000000000E+00 -0.00000000000E+00 -0.20928182742E+04  0.20928182742E+04  0.00000000000E+00 0.  1.
          6    1    1    2  501    0 -0.31623969452E+02  0.14949608548E+01 -0.90305777172E+03  0.92002426566E+03  0.17300000000E+03 0. -1.
         -6    1    1    2    0  502  0.31623969452E+02 -0.14949608548E+01 -0.11747310974E+04  0.11878234135E+04  0.17300000000E+03 0. -1.
<mgrwt>
<rscale>  2 0.17587299E+03</rscale>
<asrwt>0</asrwt>
<pdfrwt beam="1">  1       21 0.23122150E-02 0.17587299E+03</pdfrwt>
<pdfrwt beam="2">  1       21 0.32197220E+00 0.17587299E+03</pdfrwt>
<totfact> 0.25211063E+04</totfact>
</mgrwt>
</event>
<event>
 4    1  0.4025504E+000  0.2141894E+03  0.7546771E-02  0.1138291E+00
         21   -1    0    0  503  502  0.00000000000E+00  0.00000000000E+00  0.14904920297E+03  0.14904920297E+03  0.00000000000E+00 0.  1.
         21   -1    0    0  501  503 -0.00000000000E+00 -0.00000000000E+00 -0.30835943416E+03  0.30835943416E+03  0.00000000000E+00 0. -1.
          6    1    1    2  501    0  0.97327638214E+01 -0.12591016653E+03 -0.89410962764E+02  0.23210216929E+03  0.17300000000E+03 0.  1.
         -6    1    1    2    0  502 -0.97327638214E+01  0.12591016653E+03 -0.69899268423E+02  0.22530646784E+03  0.17300000000E+03 0. -1.
<mgrwt>
<rscale>  2 0.21418939E+03</rscale>
<asrwt>0</asrwt>
<pdfrwt beam="1">  1       21 0.22930647E-01 0.21418939E+03</pdfrwt>
<pdfrwt beam="2">  1       21 0.47439912E-01 0.21418939E+03</pdfrwt>
<totfact> 0.75160617E+04</totfact>
</mgrwt>
</event>
<event>
 4    1  0.4025504E+000  0.1780252E+03  0.7546771E-02  0.1169728E+00
         21   -1    0    0  501  502  0.00000000000E+00  0.00000000000E+00  0.54160850028E+03  0.54160850028E+03  0.00000000000E+00 0.  1.
         21   -1    0    0  502  503 -0.00000000000E+00 -0.00000000000E+00 -0.58809061951E+02  0.58809061951E+02  0.00000000000E+00 0.  1.
          6    1    1    2  501    0  0.33221245736E+02 -0.25697044069E+02  0.26257705139E+03  0.31723760364E+03  0.17300000000E+03 0. -1.
         -6    1    1    2    0  503 -0.33221245736E+02  0.25697044069E+02  0.22022238693E+03  0.28317995859E+03  0.17300000000E+03 0. -1.
<mgrwt>
<rscale>  2 0.17802525E+03</rscale>
<asrwt>0</asrwt>
<pdfrwt beam="1">  1       21 0.83324381E-01 0.17802525E+03</pdfrwt>
<pdfrwt beam="2">  1       21 0.90475483E-02 0.17802525E+03</pdfrwt>
<totfact> 0.12202772E+05</totfact>
</mgrwt>
</event>
<event>
 4    1  0.4025504E+000  0.2126654E+03  0.7546771E-02  0.1139472E+00
         21   -1    0    0  501  502  0.00000000000E+00  0.00000000000E+00  0.10816643135E+04  0.10816643135E+04  0.00000000000E+00 0.  1.
         21   -1    0    0  502  503 -0.00000000000E+00 -0.00000000000E+00 -0.43448917289E+02  0.43448917289E+02  0.00000000000E+00 0.  1.
          6    1    1    2  501    0 -0.11651734376E+03  0.41488394513E+02  0.62829859808E+03  0.66331418395E+03  0.17300000000E+03 0.  1.
         -6    1    1    2    0  503  0.11651734376E+03 -0.41488394513E+02  0.40991679815E+03  0.46179904686E+03  0.17300000000E+03 0.  1.
<mgrwt>
<rscale>  2 0.21266541E+03</rscale>
<asrwt>0</asrwt>
<pdfrwt beam="1">  1       21 0.16640987E+00 0.21266541E+03</pdfrwt>
<pdfrwt beam="2">  1       21 0.66844496E-02 0.21266541E+03</pdfrwt>
<totfact> 0.36600434E+04</totfact>
</mgrwt>
</event>
<event>
 4    1  0.4025504E+000  0.2090368E+03  0.7546771E-02  0.1142331E+00
         21   -1    0    0  503  502  0.00000000000E+00  0.00000000000E+00  0.43805074925E+03  0.43805074925E+03  0.00000000000E+00 0. -1.
         21   -1    0    0  501  503 -0.00000000000E+00 -0.00000000000E+00 -0.12819221889E+03  0.12819221889E+03  0.00000000000E+00 0. -1.
          6    1    1    2  501    0 -0.99208355522E+02 -0.62650429279E+02  0.21574180092E+02  0.21014713736E+03  0.17300000000E+03 0. -1.
         -6    1    1    2    0  502  0.99208355522E+02  0.62650429279E+02  0.28828435027E+03  0.35609583079E+03  0.17300000000E+03 0. -1.
<mgrwt>
<rscale>  2 0.20903678E+03</rscale>
<asrwt>0</asrwt>
<pdfrwt beam="1">  1       21 0.67392422E-01 0.20903678E+03</pdfrwt>
<pdfrwt beam="2">  1       21 0.19721880E-01 0.20903678E+03</pdfrwt>
<totfact> 0.47336735E+04</totfact>
</mgrwt>
</event>
<event>
 4    1  0.4025504E+000  0.2028739E+03  0.7546771E-02  0.1147337E+00
         21   -1    0    0  503  502  0.00000000000E+00  0.00000000000E+00  0.24657922672E+02  0.24657922672E+02  0.00000000000E+00 0.  1.
         21   -1    0    0  501  503 -0.00000000000E+00 -0.00000000000E+00 -0.24599574833E+04  0.24599574833E+04  0.00000000000E+00 0.  1.
          6    1    1    2  501    0  0.30013499777E+02 -0.10162686510E+03 -0.19220185859E+04  0.19326958567E+04  0.17300000000E+03 0.  1.
         -6    1    1    2    0  502 -0.30013499777E+02  0.10162686510E+03 -0.51328097477E+03  0.55191954933E+03  0.17300000000E+03 0.  1.
<mgrwt>
<rscale>  2 0.20287393E+03</rscale>
<asrwt>0</asrwt>
<pdfrwt beam="1">  1       21 0.37935288E-02 0.20287393E+03</pdfrwt>
<pdfrwt beam="2">  1       21 0.37845477E+00 0.20287393E+03</pdfrwt>
<totfact> 0.49938233E+03</totfact>
</mgrwt>
</event>
<event>
 4    1  0.4025504E+000  0.2686577E+03  0.7546771E-02  0.1102050E+00
         21   -1    0    0  503  502  0.00000000000E+00  0.00000000000E+00  0.62852258226E+02  0.62852258226E+02  0.00000000000E+00 0. -1.
         21   -1    0    0  501  503 -0.00000000000E+00 -0.00000000000E+00 -0.11524668776E+04  0.11524668776E+04  0.00000000000E+00 0.  1.
          6    1    1    2  501    0  0.20554066201E+03  0.99270134627E+00 -0.58108677918E+03  0.64018653073E+03  0.17300000000E+03 0.  1.
         -6    1    1    2    0  502 -0.20554066201E+03 -0.99270134627E+00 -0.50852784023E+03  0.57513260513E+03  0.17300000000E+03 0.  1.
<mgrwt>
<rscale>  2 0.26865768E+03</rscale>
<asrwt>0</asrwt>
<pdfrwt beam="1">  1       21 0.96695786E-02 0.26865768E+03</pdfrwt>
<pdfrwt beam="2">  1       21 0.17730259E+00 0.26865768E+03</pdfrwt>
<totfact> 0.15559952E+04</totfact>
</mgrwt>
</event>
<event>
 4    1  0.4025504E+000  0.2043698E+03  0.7546771E-02  0.1146104E+00
         21   -1    0    0  503  502  0.00000000000E+00  0.00000000000E+00  0.15675900075E+03  0.15675900075E+03  0.00000000000E+00 0.  1.
         21   -1    0    0  501  503 -0.00000000000E+00 -0.00000000000E+00 -0.31936699593E+03  0.31936699593E+03  0.00000000000E+00 0.  1.
          6    1    1    2  501    0  0.97908585518E+02 -0.47454608377E+02 -0.17821682040E+03  0.27116095967E+03  0.17300000000E+03 0.  1.
         -6    1    1    2    0  502 -0.97908585518E+02  0.47454608377E+02  0.15608825225E+02  0.20496503702E+03  0.17300000000E+03 0.  1.
<mgrwt>
<rscale>  2 0.20436984E+03</rscale>
<asrwt>0</asrwt>
<pdfrwt beam="1">  1       21 0.24116770E-01 0.20436984E+03</pdfrwt>
<pdfrwt beam="2">  1       21 0.49133383E-01 0.20436984E+03</pdfrwt>
<totfact> 0.63758506E+04</totfact>
</mgrwt>
</event>
<event>
 4    1  0.4025504E+000  0.1736208E+03  0.7546771E-02  0.1174124E+00
         21   -1    0    0  503  502  0.00000000000E+00  0.00000000000E+00  0.46893249272E+03  0.46893249272E+03  0.00000000000E+00 0.  1.
         21   -1    0    0  501  503 -0.00000000000E+00 -0.00000000000E+00 -0.73141909647E+02  0.73141909647E+02  0.00000000000E+00 0.  1.
          6    1    1    2  501    0 -0.91397190274E+01  0.11473249841E+02  0.10356585037E+03  0.20216343707E+03  0.17300000000E+03 0.  1.
         -6    1    1    2    0  502  0.91397190274E+01 -0.11473249841E+02  0.29222473270E+03  0.33991096530E+03  0.17300000000E+03 0.  1.
<mgrwt>
<rscale>  2 0.17362076E+03</rscale>
<asrwt>0</asrwt>
<pdfrwt beam="1">  1       21 0.72143459E-01 0.17362076E+03</pdfrwt>
<pdfrwt beam="2">  1       21 0.11252602E-01 0.17362076E+03</pdfrwt>
<totfact> 0.11491004E+05</totfact>
</mgrwt>
</event>
<event>
 4    1  0.4025504E+000  0.1773111E+03  0.7546771E-02  0.1170431E+00
         21   -1    0    0  501  502  0.00000000000E+00  0.00000000000E+00  0.65490207899E+03  0.65490207899E+03  0.00000000000E+00 0.  1.
         21   -1    0    0  502  503 -0.00000000000E+00 -0.00000000000E+00 -0.48687476781E+02  0.48687476781E+02  0.00000000000E+00 0.  1.
          6    1    1    2  501    0 -0.31487730761E+02  0.22776288019E+02  0.34472736511E+03  0.38765473394E+03  0.17300000000E+03 0.  1.
         -6    1    1    2    0  503  0.31487730761E+02 -0.22776288019E+02  0.26148723709E+03  0.31593482183E+03  0.17300000000E+03 0.  1.
<mgrwt>
<rscale>  2 0.17731113E+03</rscale>
<asrwt>0</asrwt>
<pdfrwt beam="1">  1       21 0.10075416E+00 0.17731113E+03</pdfrwt>
<pdfrwt beam="2">  1       21 0.74903815E-02 0.17731113E+03</pdfrwt>
<totfact> 0.10916907E+05</totfact>
</mgrwt>
</event>
<event>
 4    1  0.4025504E+000  0.1835705E+03  0.7546771E-02  0.1164392E+00
         21   -1    0    0  503  502  0.00000000000E+00  0.00000000000E+00  0.10697802765E+04  0.10697802765E+04  0.00000000000E+00 0. -1.
         21   -1    0    0  501  503 -0.00000000000E+00 -0.00000000000E+00 -0.35381211433E+02  0.35381211433E+02  0.00000000000E+00 0. -1.
          6    1    1    2  501    0 -0.54350756514E+02 -0.28550382572E+02  0.70021610347E+03  0.72387894059E+03  0.17300000000E+03 0. -1.
         -6    1    1    2    0  502  0.54350756514E+02  0.28550382572E+02  0.33418296156E+03  0.38128254730E+03  0.17300000000E+03 0. -1.
<mgrwt>
<rscale>  2 0.18357050E+03</rscale>
<asrwt>0</asrwt>
<pdfrwt beam="1">  1       21 0.16458156E+00 0.18357050E+03</pdfrwt>
<pdfrwt beam="2">  1       21 0.54432641E-02 0.18357050E+03</pdfrwt>
<totfact> 0.54572174E+04</totfact>
</mgrwt>
</event>
<event>
 4    1  0.4025504E+000  0.1976725E+03  0.7546771E-02  0.1151718E+00
         21   -1    0    0  503  502  0.00000000000E+00  0.00000000000E+00  0.41975325859E+04  0.41975325859E+04  0.00000000000E+00 0.  1.
         21   -1    0    0  501  503 -0.00000000000E+00 -0.00000000000E+00 -0.93184257091E+01  0.93184257091E+01  0.00000000000E+00 0. -1.
          6    1    1    2  501    0 -0.95444711479E+02 -0.59768398231E+01  0.21613552104E+04  0.21703757189E+04  0.17300000000E+03 0.  1.
         -6    1    1    2    0  502  0.95444711479E+02  0.59768398231E+01  0.20268589498E+04  0.20364752927E+04  0.17300000000E+03 0. -1.
<mgrwt>
<rscale>  2 0.19767250E+03</rscale>
<asrwt>0</asrwt>
<pdfrwt beam="1">  1       21 0.64577274E+00 0.19767250E+03</pdfrwt>
<pdfrwt beam="2">  1       21 0.14336073E-02 0.19767250E+03</pdfrwt>
<totfact> 0.30592879E+02</totfact>
</mgrwt>
</event>
<event>
 4    1  0.4025504E+000  0.2754506E+03  0.7546771E-02  0.1098200E+00
         21   -1    0    0  503  502  0.00000000000E+00  0.00000000000E+00  0.18598695530E+03  0.18598695530E+03  0.00000000000E+00 0. -1.
         21   -1    0    0  501  503 -0.00000000000E+00 -0.00000000000E+00 -0.50531320312E+03  0.50531320312E+03  0.00000000000E+00 0.  1.
          6    1    1    2  501    0 -0.20165052400E+03 -0.72671212566E+02 -0.31138836452E+03  0.41573519520E+03  0.17300000000E+03 0.  1.
         -6    1    1    2    0  502  0.20165052400E+03  0.72671212566E+02 -0.79378833006E+01  0.27556496322E+03  0.17300000000E+03 0. -1.
<mgrwt>
<rscale>  2 0.27545061E+03</rscale>
<asrwt>0</asrwt>
<pdfrwt beam="1">  1       21 0.28613378E-01 0.27545061E+03</pdfrwt>
<pdfrwt beam="2">  1       21 0.77740492E-01 0.27545061E+03</pdfrwt>
<totfact> 0.16385420E+04</totfact>
</mgrwt>
</event>
<event>
 4    1  0.4025504E+000  0.1765005E+03  0.7546771E-02  0.1171233E+00
         21   -1    0    0  503  502  0.00000000000E+00  0.00000000000E+00  0.72862818245E+03  0.72862818245E+03  0.00000000000E+00 0. -1.
         21   -1    0    0  501  503 -0.00000000000E+00 -0.00000000000E+00 -0.14990893573E+03  0.14990893573E+03  0.00000000000E+00 0. -1.
          6    1    1    2  501    0  0.25903005249E+02 -0.23504803143E+02 -0.82022144920E+02  0.19462803937E+03  0.17300000000E+03 0. -1.
         -6    1    1    2    0  502 -0.25903005249E+02  0.23504803143E+02  0.66074139164E+03  0.68390907881E+03  0.17300000000E+03 0. -1.
<mgrwt>
<rscale>  2 0.17650054E+03</rscale>
<asrwt>0</asrwt>
<pdfrwt beam="1">  1       21 0.11209664E+00 0.17650054E+03</pdfrwt>
<pdfrwt beam="2">  1       21 0.23062914E-01 0.17650054E+03</pdfrwt>
<totfact> 0.11143593E+04</totfact>
</mgrwt>
</event>
<event>
 4    1  0.4025504E+000  0.2266937E+03  0.7546771E-02  0.1128989E+00
         21   -1    0    0  501  502  0.00000000000E+00  0.00000000000E+00  0.29282000878E+03  0.29282000878E+03  0.00000000000E+00 0. -1.
         21   -1    0    0  502  503 -0.00000000000E+00 -0.00000000000E+00 -0.32702679223E+03  0.32702679223E+03  0.00000000000E+00 0. -1.
          6    1    1    2  501    0 -0.15144344867E+02  0.14571088042E+03  0.19385991546E+03  0.29828120738E+03  0.17300000000E+03 0. -1.
         -6    1    1    2    0  503  0.15144344867E+02 -0.14571088042E+03 -0.22806669891E+03  0.32156559363E+03  0.17300000000E+03 0. -1.
<mgrwt>
<rscale>  2 0.22669365E+03</rscale>
<asrwt>0</asrwt>
<pdfrwt beam="1">  1       21 0.45049232E-01 0.22669365E+03</pdfrwt>
<pdfrwt beam="2">  1       21 0.50311814E-01 0.22669365E+03</pdfrwt>
<totfact> 0.17429768E+04</totfact>
</mgrwt>
</event>
<event>
 4    1  0.4025504E+000  0.1816136E+03  0.7546771E-02  0.1166251E+00
         21   -1    0    0  503  502  0.00000000000E+00  0.00000000000E+00  0.41077698983E+03  0.41077698983E+03  0.00000000000E+00 0.  1.
         21   -1    0    0  501  503 -0.00000000000E+00 -0.00000000000E+00 -0.23220185397E+03  0.23220185397E+03  0.00000000000E+00 0.  1.
          6    1    1    2  501    0  0.43804048256E+02 -0.33700016522E+02 -0.17074157121E+03  0.24927127772E+03  0.17300000000E+03 0.  1.
         -6    1    1    2    0  502 -0.43804048256E+02  0.33700016522E+02  0.34931670706E+03  0.39370756608E+03  0.17300000000E+03 0.  1.
<mgrwt>
<rscale>  2 0.18161356E+03</rscale>
<asrwt>0</asrwt>
<pdfrwt beam="1">  1       21 0.63196460E-01 0.18161356E+03</pdfrwt>
<pdfrwt beam="2">  1       21 0.35723362E-01 0.18161356E+03</pdfrwt>
<totfact> 0.17624517E+04</totfact>
</mgrwt>
</event>
<event>
 4    1  0.4025504E+000  0.1836217E+03  0.7546771E-02  0.1164343E+00
         21   -1    0    0  501  502  0.00000000000E+00  0.00000000000E+00  0.49715848526E+03  0.49715848526E+03  0.00000000000E+00 0.  1.
         21   -1    0    0  502  503 -0.00000000000E+00 -0.00000000000E+00 -0.74111863138E+02  0.74111863138E+02  0.00000000000E+00 0.  1.
          6    1    1    2  501    0 -0.58233407485E+02 -0.19919940221E+02  0.29475372928E+03  0.34727034813E+03  0.17300000000E+03 0.  1.
         -6    1    1    2    0  503  0.58233407485E+02  0.19919940221E+02  0.12829289284E+03  0.22400000026E+03  0.17300000000E+03 0.  1.
<mgrwt>
<rscale>  2 0.18362171E+03</rscale>
<asrwt>0</asrwt>
<pdfrwt beam="1">  1       21 0.76485919E-01 0.18362171E+03</pdfrwt>
<pdfrwt beam="2">  1       21 0.11401825E-01 0.18362171E+03</pdfrwt>
<totfact> 0.98179035E+04</totfact>
</mgrwt>
</event>
<event>
 4    1  0.4025504E+000  0.1844115E+03  0.7546771E-02  0.1163601E+00
         21   -1    0    0  501  502  0.00000000000E+00  0.00000000000E+00  0.27552657835E+03  0.27552657835E+03  0.00000000000E+00 0. -1.
         21   -1    0    0  502  503 -0.00000000000E+00 -0.00000000000E+00 -0.12377050407E+03  0.12377050407E+03  0.00000000000E+00 0. -1.
          6    1    1    2  501    0  0.47489365485E+02  0.42700840834E+02  0.65370425198E+02  0.19565503861E+03  0.17300000000E+03 0.  1.
         -6    1    1    2    0  503 -0.47489365485E+02 -0.42700840834E+02  0.86385649083E+02  0.20364204382E+03  0.17300000000E+03 0.  1.
<mgrwt>
<rscale>  2 0.18441150E+03</rscale>
<asrwt>0</asrwt>
<pdfrwt beam="1">  1       21 0.42388704E-01 0.18441150E+03</pdfrwt>
<pdfrwt beam="2">  1       21 0.19041616E-01 0.18441150E+03</pdfrwt>
<totfact> 0.13582696E+05</totfact>
</mgrwt>
</event>
<event>
 4    1  0.4025504E+000  0.2297394E+03  0.7546771E-02  0.1126823E+00
         21   -1    0    0  503  502  0.00000000000E+00  0.00000000000E+00  0.68897565589E+02  0.68897565589E+02  0.00000000000E+00 0. -1.
         21   -1    0    0  501  503 -0.00000000000E+00 -0.00000000000E+00 -0.79847897248E+03  0.79847897248E+03  0.00000000000E+00 0. -1.
          6    1    1    2  501    0  0.13586536191E+03 -0.66270633700E+02 -0.45216718884E+03  0.50718375380E+03  0.17300000000E+03 0. -1.
         -6    1    1    2    0  502 -0.13586536191E+03  0.66270633700E+02 -0.27741421805E+03  0.36019278426E+03  0.17300000000E+03 0. -1.
<mgrwt>
<rscale>  2 0.22973940E+03</rscale>
<asrwt>0</asrwt>
<pdfrwt beam="1">  1       21 0.10599625E-01 0.22973940E+03</pdfrwt>
<pdfrwt beam="2">  1       21 0.12284292E+00 0.22973940E+03</pdfrwt>
<totfact> 0.35738199E+04</totfact>
</mgrwt>
</event>
<event>
 4    1  0.4025504E+000  0.1952757E+03  0.7546771E-02  0.1153787E+00
         21   -1    0    0  501  502  0.00000000000E+00  0.00000000000E+00  0.25981468267E+03  0.25981468267E+03  0.00000000000E+00 0. -1.
         21   -1    0    0  502  503 -0.00000000000E+00 -0.00000000000E+00 -0.27346673168E+03  0.27346673168E+03  0.00000000000E+00 0. -1.
          6    1    1    2  501    0  0.90223407353E+02 -0.79593802780E+01  0.17466679797E+03  0.26199447567E+03  0.17300000000E+03 0. -1.
         -6    1    1    2    0  503 -0.90223407353E+02  0.79593802780E+01 -0.18831884698E+03  0.27128693867E+03  0.17300000000E+03 0. -1.
<mgrwt>
<rscale>  2 0.19527574E+03</rscale>
<asrwt>0</asrwt>
<pdfrwt beam="1">  1       21 0.39971489E-01 0.19527574E+03</pdfrwt>
<pdfrwt beam="2">  1       21 0.42071805E-01 0.19527574E+03</pdfrwt>
<totfact> 0.32753849E+04</totfact>
</mgrwt>
</event>
<event>
 4    1  0.4025504E+000  0.2837147E+03  0.7546771E-02  0.1093677E+00
         21   -1    0    0  503  502  0.00000000000E+00  0.00000000000E+00  0.75751441371E+02  0.75751441371E+02  0.00000000000E+00 0. -1.
         21   -1    0    0  501  503 -0.00000000000E+00 -0.00000000000E+00 -0.17332152912E+04  0.17332152912E+04  0.00000000000E+00 0.  1.
          6    1    1    2  501    0 -0.21849202630E+03  0.53162397960E+02 -0.13913436935E+04  0.14199758024E+04  0.17300000000E+03 0.  1.
         -6    1    1    2    0  502  0.21849202630E+03 -0.53162397960E+02 -0.26612015636E+03  0.38899093014E+03  0.17300000000E+03 0. -1.
<mgrwt>
<rscale>  2 0.28371466E+03</rscale>
<asrwt>0</asrwt>
<pdfrwt beam="1">  1       21 0.11654069E-01 0.28371466E+03</pdfrwt>
<pdfrwt beam="2">  1       21 0.26664848E+00 0.28371466E+03</pdfrwt>
<totfact> 0.30177707E+03</totfact>
</mgrwt>
</event>
<event>
 4    1  0.4025504E+000  0.1873842E+03  0.7546771E-02  0.1160842E+00
         21   -1    0    0  501  502  0.00000000000E+00  0.00000000000E+00  0.38426029530E+03  0.38426029530E+03  0.00000000000E+00 0. -1.
         21   -1    0    0  502  503 -0.00000000000E+00 -0.00000000000E+00 -0.10092158514E+03  0.10092158514E+03  0.00000000000E+00 0. -1.
          6    1    1    2  501    0 -0.11498209112E+02  0.71074945981E+02  0.21627008713E+03  0.28615661332E+03  0.17300000000E+03 0. -1.
         -6    1    1    2    0  503  0.11498209112E+02 -0.71074945981E+02  0.67068623025E+02  0.19902526712E+03  0.17300000000E+03 0. -1.
<mgrwt>
<rscale>  2 0.18738425E+03</rscale>
<asrwt>0</asrwt>
<pdfrwt beam="1">  1       21 0.59116968E-01 0.18738425E+03</pdfrwt>
<pdfrwt beam="2">  1       21 0.15526398E-01 0.18738425E+03</pdfrwt>
<totfact> 0.98735639E+04</totfact>
</mgrwt>
</event>
<event>
 4    1  0.4025504E+000  0.2259045E+03  0.7546771E-02  0.1129556E+00
         21   -1    0    0  501  502  0.00000000000E+00  0.00000000000E+00  0.43112288364E+03  0.43112288364E+03  0.00000000000E+00 0. -1.
         21   -1    0    0  502  503 -0.00000000000E+00 -0.00000000000E+00 -0.12068016730E+03  0.12068016730E+03  0.00000000000E+00 0. -1.
          6    1    1    2  501    0 -0.70649748542E+02 -0.12693489423E+03  0.19337842221E+03  0.29736857352E+03  0.17300000000E+03 0. -1.
         -6    1    1    2    0  503  0.70649748542E+02  0.12693489423E+03  0.11706429413E+03  0.25443447742E+03  0.17300000000E+03 0. -1.
<mgrwt>
<rscale>  2 0.22590452E+03</rscale>
<asrwt>0</asrwt>
<pdfrwt beam="1">  1       21 0.66326597E-01 0.22590452E+03</pdfrwt>
<pdfrwt beam="2">  1       21 0.18566180E-01 0.22590452E+03</pdfrwt>
<totfact> 0.54444985E+04</totfact>
</mgrwt>
</event>
<event>
 4    1  0.4025504E+000  0.2067558E+03  0.7546771E-02  0.1144161E+00
         21   -1    0    0  501  502  0.00000000000E+00  0.00000000000E+00  0.11359301524E+04  0.11359301524E+04  0.00000000000E+00 0. -1.
         21   -1    0    0  502  503 -0.00000000000E+00 -0.00000000000E+00 -0.56786261661E+02  0.56786261661E+02  0.00000000000E+00 0. -1.
          6    1    1    2  501    0  0.29900436967E+02 -0.10920138612E+03  0.88591918274E+03  0.90972566041E+03  0.17300000000E+03 0. -1.
         -6    1    1    2    0  503 -0.29900436967E+02  0.10920138612E+03  0.19322470795E+03  0.28299075360E+03  0.17300000000E+03 0. -1.
<mgrwt>
<rscale>  2 0.20675584E+03</rscale>
<asrwt>0</asrwt>
<pdfrwt beam="1">  1       21 0.17475847E+00 0.20675584E+03</pdfrwt>
<pdfrwt beam="2">  1       21 0.87363487E-02 0.20675584E+03</pdfrwt>
<totfact> 0.20141375E+04</totfact>
</mgrwt>
</event>
<event>
 4    1  0.4025504E+000  0.2658828E+03  0.7546771E-02  0.1103659E+00
         21   -1    0    0  503  502  0.00000000000E+00  0.00000000000E+00  0.11366576837E+03  0.11366576837E+03  0.00000000000E+00 0. -1.
         21   -1    0    0  501  503 -0.00000000000E+00 -0.00000000000E+00 -0.13649441781E+04  0.13649441781E+04  0.00000000000E+00 0.  1.
          6    1    1    2  501    0  0.77880803959E+01  0.20175233662E+03 -0.11710966263E+04  0.12009000657E+04  0.17300000000E+03 0.  1.
         -6    1    1    2    0  502 -0.77880803959E+01 -0.20175233662E+03 -0.80181783456E+02  0.27770988086E+03  0.17300000000E+03 0. -1.
<mgrwt>
<rscale>  2 0.26588279E+03</rscale>
<asrwt>0</asrwt>
<pdfrwt beam="1">  1       21 0.17487041E-01 0.26588279E+03</pdfrwt>
<pdfrwt beam="2">  1       21 0.20999142E+00 0.26588279E+03</pdfrwt>
<totfact> 0.32269143E+03</totfact>
</mgrwt>
</event>
<event>
 4    1  0.4025504E+000  0.1922928E+03  0.7546771E-02  0.1156410E+00
         21   -1    0    0  503  502  0.00000000000E+00  0.00000000000E+00  0.15153017920E+03  0.15153017920E+03  0.00000000000E+00 0. -1.
         21   -1    0    0  501  503 -0.00000000000E+00 -0.00000000000E+00 -0.34982072670E+03  0.34982072670E+03  0.00000000000E+00 0. -1.
          6    1    1    2  501    0  0.64382367260E+02  0.53874059961E+02 -0.23700324578E+03  0.30520000338E+03  0.17300000000E+03 0. -1.
         -6    1    1    2    0  502 -0.64382367260E+02 -0.53874059961E+02  0.38712698283E+02  0.19615090252E+03  0.17300000000E+03 0. -1.
<mgrwt>
<rscale>  2 0.19229275E+03</rscale>
<asrwt>0</asrwt>
<pdfrwt beam="1">  1       21 0.23312336E-01 0.19229275E+03</pdfrwt>
<pdfrwt beam="2">  1       21 0.53818573E-01 0.19229275E+03</pdfrwt>
<totfact> 0.56509002E+04</totfact>
</mgrwt>
</event>
<event>
 4    1  0.4025504E+000  0.2363232E+03  0.7546771E-02  0.1122267E+00
         21   -1    0    0  501  502  0.00000000000E+00  0.00000000000E+00  0.14640953458E+03  0.14640953458E+03  0.00000000000E+00 0. -1.
         21   -1    0    0  502  503 -0.00000000000E+00 -0.00000000000E+00 -0.42413472809E+03  0.42413472809E+03  0.00000000000E+00 0. -1.
          6    1    1    2  501    0 -0.48044565197E+02 -0.15365990825E+03 -0.22935628714E+03  0.32932196116E+03  0.17300000000E+03 0. -1.
         -6    1    1    2    0  503  0.48044565197E+02  0.15365990825E+03 -0.48368906365E+02  0.24122230152E+03  0.17300000000E+03 0. -1.
<mgrwt>
<rscale>  2 0.23632318E+03</rscale>
<asrwt>0</asrwt>
<pdfrwt beam="1">  1       21 0.22524544E-01 0.23632318E+03</pdfrwt>
<pdfrwt beam="2">  1       21 0.65251495E-01 0.23632318E+03</pdfrwt>
<totfact> 0.39059731E+04</totfact>
</mgrwt>
</event>
<event>
 4    1  0.4025504E+000  0.1787479E+03  0.7546771E-02  0.1169020E+00
         21   -1    0    0  503  502  0.00000000000E+00  0.00000000000E+00  0.11949716910E+03  0.11949716910E+03  0.00000000000E+00 0.  1.
         21   -1    0    0  501  503 -0.00000000000E+00 -0.00000000000E+00 -0.28591834082E+03  0.28591834082E+03  0.00000000000E+00 0.  1.
          6    1    1    2  501    0  0.42668778136E+02  0.14184319719E+02 -0.31590648002E+02  0.18151801176E+03  0.17300000000E+03 0.  1.
         -6    1    1    2    0  502 -0.42668778136E+02 -0.14184319719E+02 -0.13483052372E+03  0.22389749815E+03  0.17300000000E+03 0.  1.
<mgrwt>
<rscale>  2 0.17874792E+03</rscale>
<asrwt>0</asrwt>
<pdfrwt beam="1">  1       21 0.18384180E-01 0.17874792E+03</pdfrwt>
<pdfrwt beam="2">  1       21 0.43987437E-01 0.17874792E+03</pdfrwt>
<totfact> 0.13468529E+05</totfact>
</mgrwt>
</event>
<event>
 4    1  0.4025504E+000  0.2223221E+03  0.7546771E-02  0.1132164E+00
         21   -1    0    0  503  502  0.00000000000E+00  0.00000000000E+00  0.86097626750E+03  0.86097626750E+03  0.00000000000E+00 0.  1.
         21   -1    0    0  501  503 -0.00000000000E+00 -0.00000000000E+00 -0.57776991946E+02  0.57776991946E+02  0.00000000000E+00 0. -1.
          6    1    1    2  501    0 -0.13565973182E+03 -0.33084366597E+02  0.43829866258E+03  0.49145992285E+03  0.17300000000E+03 0. -1.
         -6    1    1    2    0  502  0.13565973182E+03  0.33084366597E+02  0.36490061298E+03  0.42729333660E+03  0.17300000000E+03 0.  1.
<mgrwt>
<rscale>  2 0.22232215E+03</rscale>
<asrwt>0</asrwt>
<pdfrwt beam="1">  1       21 0.13245788E+00 0.22232215E+03</pdfrwt>
<pdfrwt beam="2">  1       21 0.88887686E-02 0.22232215E+03</pdfrwt>
<totfact> 0.40491922E+04</totfact>
</mgrwt>
</event>
<event>
 4    1  0.4025504E+000  0.1997920E+03  0.7546771E-02  0.1149915E+00
         21   -1    0    0  503  502  0.00000000000E+00  0.00000000000E+00  0.20976959940E+04  0.20976959940E+04  0.00000000000E+00 0. -1.
         21   -1    0    0  501  503 -0.00000000000E+00 -0.00000000000E+00 -0.24152619256E+02  0.24152619256E+02  0.00000000000E+00 0. -1.
          6    1    1    2  501    0  0.56282091594E+02  0.82584340864E+02  0.54812501354E+03  0.58340198634E+03  0.17300000000E+03 0. -1.
         -6    1    1    2    0  502 -0.56282091594E+02 -0.82584340864E+02  0.15254183612E+04  0.15384466270E+04  0.17300000000E+03 0. -1.
<mgrwt>
<rscale>  2 0.19979201E+03</rscale>
<asrwt>0</asrwt>
<pdfrwt beam="1">  1       21 0.32272232E+00 0.19979201E+03</pdfrwt>
<pdfrwt beam="2">  1       21 0.37157892E-02 0.19979201E+03</pdfrwt>
<totfact> 0.11100978E+04</totfact>
</mgrwt>
</event>
<event>
 4    1  0.4025504E+000  0.2639949E+03  0.7546771E-02  0.1104766E+00
         21   -1    0    0  501  502  0.00000000000E+00  0.00000000000E+00  0.12451873826E+03  0.12451873826E+03  0.00000000000E+00 0. -1.
         21   -1    0    0  502  503 -0.00000000000E+00 -0.00000000000E+00 -0.64406642390E+03  0.64406642390E+03  0.00000000000E+00 0. -1.
          6    1    1    2  501    0  0.19890347326E+03  0.14203089990E+02 -0.12068966215E+03  0.29027454933E+03  0.17300000000E+03 0. -1.
         -6    1    1    2    0  503 -0.19890347326E+03 -0.14203089990E+02 -0.39885802349E+03  0.47831061283E+03  0.17300000000E+03 0. -1.
<mgrwt>
<rscale>  2 0.26399492E+03</rscale>
<asrwt>0</asrwt>
<pdfrwt beam="1">  1       21 0.19156729E-01 0.26399492E+03</pdfrwt>
<pdfrwt beam="2">  1       21 0.99087142E-01 0.26399492E+03</pdfrwt>
<totfact> 0.20183912E+04</totfact>
</mgrwt>
</event>
<event>
 4    1  0.4025504E+000  0.1862603E+03  0.7546771E-02  0.1161878E+00
         21   -1    0    0  501  502  0.00000000000E+00  0.00000000000E+00  0.21259452920E+03  0.21259452920E+03  0.00000000000E+00 0.  1.
         21   -1    0    0  502  503 -0.00000000000E+00 -0.00000000000E+00 -0.28662954861E+03  0.28662954861E+03  0.00000000000E+00 0.  1.
          6    1    1    2  501    0  0.67829384643E+02  0.12769895059E+02  0.12679066322E+03  0.22531925777E+03  0.17300000000E+03 0.  1.
         -6    1    1    2    0  503 -0.67829384643E+02 -0.12769895059E+02 -0.20082568263E+03  0.27390482005E+03  0.17300000000E+03 0.  1.
<mgrwt>
<rscale>  2 0.18626029E+03</rscale>
<asrwt>0</asrwt>
<pdfrwt beam="1">  1       21 0.32706850E-01 0.18626029E+03</pdfrwt>
<pdfrwt beam="2">  1       21 0.44096854E-01 0.18626029E+03</pdfrwt>
<totfact> 0.44582644E+04</totfact>
</mgrwt>
</event>
<event>
 4    1  0.4025504E+000  0.2078160E+03  0.7546771E-02  0.1143307E+00
         21   -1    0    0  501  502  0.00000000000E+00  0.00000000000E+00  0.34354284777E+03  0.34354284777E+03  0.00000000000E+00 0.  1.
         21   -1    0    0  502  503 -0.00000000000E+00 -0.00000000000E+00 -0.13417480739E+03  0.13417480739E+03  0.00000000000E+00 0. -1.
          6    1    1    2  501    0 -0.80628360962E+02 -0.82204468536E+02  0.16467133088E+03  0.26514930596E+03  0.17300000000E+03 0.  1.
         -6    1    1    2    0  503  0.80628360962E+02  0.82204468536E+02  0.44696709500E+02  0.21256834919E+03  0.17300000000E+03 0. -1.
<mgrwt>
<rscale>  2 0.20781604E+03</rscale>
<asrwt>0</asrwt>
<pdfrwt beam="1">  1       21 0.52852745E-01 0.20781604E+03</pdfrwt>
<pdfrwt beam="2">  1       21 0.20642278E-01 0.20781604E+03</pdfrwt>
<totfact> 0.73320902E+04</totfact>
</mgrwt>
</event>
<event>
 4    1  0.4025504E+000  0.2082564E+03  0.7546771E-02  0.1142954E+00
         21   -1    0    0  503  502  0.00000000000E+00  0.00000000000E+00  0.53619048158E+02  0.53619048158E+02  0.00000000000E+00 0.  1.
         21   -1    0    0  501  503 -0.00000000000E+00 -0.00000000000E+00 -0.81277823051E+03  0.81277823051E+03  0.00000000000E+00 0.  1.
          6    1    1    2  501    0 -0.16071987955E+02  0.11481906306E+03 -0.34953206933E+03  0.40687024164E+03  0.17300000000E+03 0.  1.
         -6    1    1    2    0  502  0.16071987955E+02 -0.11481906306E+03 -0.40962711302E+03  0.45952703702E+03  0.17300000000E+03 0.  1.
<mgrwt>
<rscale>  2 0.20825639E+03</rscale>
<asrwt>0</asrwt>
<pdfrwt beam="1">  1       21 0.82490855E-02 0.20825639E+03</pdfrwt>
<pdfrwt beam="2">  1       21 0.12504279E+00 0.20825639E+03</pdfrwt>
<totfact> 0.53777611E+04</totfact>
</mgrwt>
</event>
<event>
 4    1  0.4025504E+000  0.1894959E+03  0.7546771E-02  0.1158917E+00
         21   -1    0    0  503  502  0.00000000000E+00  0.00000000000E+00  0.57858811503E+02  0.57858811503E+02  0.00000000000E+00 0. -1.
         21   -1    0    0  501  503 -0.00000000000E+00 -0.00000000000E+00 -0.82122606498E+03  0.82122606498E+03  0.00000000000E+00 0. -1.
          6    1    1    2  501    0  0.76044314363E+02 -0.14033598578E+02 -0.16444600312E+03  0.25090071259E+03  0.17300000000E+03 0. -1.
         -6    1    1    2    0  502 -0.76044314363E+02  0.14033598578E+02 -0.59892125036E+03  0.62818416390E+03  0.17300000000E+03 0. -1.
<mgrwt>
<rscale>  2 0.18949586E+03</rscale>
<asrwt>0</asrwt>
<pdfrwt beam="1">  1       21 0.89013559E-02 0.18949586E+03</pdfrwt>
<pdfrwt beam="2">  1       21 0.12634247E+00 0.18949586E+03</pdfrwt>
<totfact> 0.46330297E+04</totfact>
</mgrwt>
</event>
<event>
 4    1  0.4025504E+000  0.1780198E+03  0.7546771E-02  0.1169733E+00
         21   -1    0    0  501  502  0.00000000000E+00  0.00000000000E+00  0.34626251068E+04  0.34626251068E+04  0.00000000000E+00 0. -1.
         21   -1    0    0  502  503 -0.00000000000E+00 -0.00000000000E+00 -0.17242272568E+02  0.17242272568E+02  0.00000000000E+00 0. -1.
          6    1    1    2  501    0  0.64409789220E+01  0.41479606377E+02  0.29145054704E+04  0.29199371878E+04  0.17300000000E+03 0. -1.
         -6    1    1    2    0  503 -0.64409789220E+01 -0.41479606377E+02  0.53087736385E+03  0.55993019155E+03  0.17300000000E+03 0. -1.
<mgrwt>
<rscale>  2 0.17801979E+03</rscale>
<asrwt>0</asrwt>
<pdfrwt beam="1">  1       21 0.53271100E+00 0.17801979E+03</pdfrwt>
<pdfrwt beam="2">  1       21 0.26526601E-02 0.17801979E+03</pdfrwt>
<totfact> 0.87570578E+02</totfact>
</mgrwt>
</event>
<event>
 4    1  0.4025504E+000  0.2062672E+03  0.7546771E-02  0.1144557E+00
         21   -1    0    0  501  502  0.00000000000E+00  0.00000000000E+00  0.21275595156E+04  0.21275595156E+04  0.00000000000E+00 0.  1.
         21   -1    0    0  502  503 -0.00000000000E+00 -0.00000000000E+00 -0.19998115438E+02  0.19998115438E+02  0.00000000000E+00 0.  1.
          6    1    1    2  501    0 -0.24379589097E+02  0.10964844442E+03  0.10484845128E+04  0.10685812647E+04  0.17300000000E+03 0.  1.
         -6    1    1    2    0  503  0.24379589097E+02 -0.10964844442E+03  0.10590768873E+04  0.10789763663E+04  0.17300000000E+03 0.  1.
<mgrwt>
<rscale>  2 0.20626717E+03</rscale>
<asrwt>0</asrwt>
<pdfrwt beam="1">  1       21 0.32731667E+00 0.20626717E+03</pdfrwt>
<pdfrwt beam="2">  1       21 0.30766348E-02 0.20626717E+03</pdfrwt>
<totfact> 0.14196954E+04</totfact>
</mgrwt>
</event>
<event>
 4    1  0.4025504E+000  0.2269079E+03  0.7546771E-02  0.1128835E+00
         21   -1    0    0  503  502  0.00000000000E+00  0.00000000000E+00  0.14229632164E+03  0.14229632164E+03  0.00000000000E+00 0. -1.
         21   -1    0    0  501  503 -0.00000000000E+00 -0.00000000000E+00 -0.70225653893E+03  0.70225653893E+03  0.00000000000E+00 0.  1.
          6    1    1    2  501    0 -0.75279164358E+02  0.12606053300E+03 -0.57398872378E+03  0.61721168620E+03  0.17300000000E+03 0.  1.
         -6    1    1    2    0  502  0.75279164358E+02 -0.12606053300E+03  0.14028506491E+02  0.22734117436E+03  0.17300000000E+03 0. -1.
<mgrwt>
<rscale>  2 0.22690793E+03</rscale>
<asrwt>0</asrwt>
<pdfrwt beam="1">  1       21 0.21891741E-01 0.22690793E+03</pdfrwt>
<pdfrwt beam="2">  1       21 0.10803947E+00 0.22690793E+03</pdfrwt>
<totfact> 0.12997830E+04</totfact>
</mgrwt>
</event>
<event>
 4    1  0.4025504E+000  0.1847124E+03  0.7546771E-02  0.1163319E+00
         21   -1    0    0  501  502  0.00000000000E+00  0.00000000000E+00  0.15071294498E+03  0.15071294498E+03  0.00000000000E+00 0.  1.
         21   -1    0    0  502  503 -0.00000000000E+00 -0.00000000000E+00 -0.45943810570E+03  0.45943810570E+03  0.00000000000E+00 0.  1.
          6    1    1    2  501    0  0.62052009142E+01  0.64429444429E+02  0.62919720711E+02  0.19513469472E+03  0.17300000000E+03 0.  1.
         -6    1    1    2    0  503 -0.62052009142E+01 -0.64429444429E+02 -0.37164488143E+03  0.41501635597E+03  0.17300000000E+03 0.  1.
<mgrwt>
<rscale>  2 0.18471237E+03</rscale>
<asrwt>0</asrwt>
<pdfrwt beam="1">  1       21 0.23186608E-01 0.18471237E+03</pdfrwt>
<pdfrwt beam="2">  1       21 0.70682784E-01 0.18471237E+03</pdfrwt>
<totfact> 0.31835482E+04</totfact>
</mgrwt>
</event>
<event>
 4    1  0.4025504E+000  0.1910184E+03  0.7546771E-02  0.1157546E+00
         21   -1    0    0  501  502  0.00000000000E+00  0.00000000000E+00  0.52560744578E+03  0.52560744578E+03  0.00000000000E+00 0. -1.
         21   -1    0    0  502  503 -0.00000000000E+00 -0.00000000000E+00 -0.69722907573E+02  0.69722907573E+02  0.00000000000E+00 0.  1.
          6    1    1    2  501    0  0.56795820252E+02  0.57734435492E+02  0.24753982629E+03  0.31267234582E+03  0.17300000000E+03 0. -1.
         -6    1    1    2    0  503 -0.56795820252E+02 -0.57734435492E+02  0.20834471191E+03  0.28265800753E+03  0.17300000000E+03 0. -1.
<mgrwt>
<rscale>  2 0.19101840E+03</rscale>
<asrwt>0</asrwt>
<pdfrwt beam="1">  1       21 0.80862681E-01 0.19101840E+03</pdfrwt>
<pdfrwt beam="2">  1       21 0.10726602E-01 0.19101840E+03</pdfrwt>
<totfact> 0.96270594E+04</totfact>
</mgrwt>
</event>
<event>
 4    1  0.4025504E+000  0.2399706E+03  0.7546771E-02  0.1119812E+00
         21   -1    0    0  503  502  0.00000000000E+00  0.00000000000E+00  0.54194267932E+03  0.54194267932E+03  0.00000000000E+00 0.  1.
         21   -1    0    0  501  503 -0.00000000000E+00 -0.00000000000E+00 -0.22647935287E+03  0.22647935287E+03  0.00000000000E+00 0.  1.
          6    1    1    2  501    0 -0.13210061654E+03  0.10102625819E+03 -0.12219603228E+03  0.26929119562E+03  0.17300000000E+03 0.  1.
         -6    1    1    2    0  502  0.13210061654E+03 -0.10102625819E+03  0.43765935872E+03  0.49913083657E+03  0.17300000000E+03 0.  1.
<mgrwt>
<rscale>  2 0.23997058E+03</rscale>
<asrwt>0</asrwt>
<pdfrwt beam="1">  1       21 0.83375797E-01 0.23997058E+03</pdfrwt>
<pdfrwt beam="2">  1       21 0.34842977E-01 0.23997058E+03</pdfrwt>
<totfact> 0.96423893E+03</totfact>
</mgrwt>
</event>
<event>
 4    1  0.4025504E+000  0.1887491E+03  0.7546771E-02  0.1159594E+00
         21   -1    0    0  501  502  0.00000000000E+00  0.00000000000E+00  0.71409490172E+03  0.71409490172E+03  0.00000000000E+00 0.  1.
         21   -1    0    0  502  503 -0.00000000000E+00 -0.00000000000E+00 -0.52971954153E+02  0.52971954153E+02  0.00000000000E+00 0.  1.
          6    1    1    2  501    0  0.37941475477E+01 -0.75384496442E+02  0.23805097523E+03  0.30380007352E+03  0.17300000000E+03 0.  1.
         -6    1    1    2    0  503 -0.37941475477E+01  0.75384496442E+02  0.42307197233E+03  0.46326678235E+03  0.17300000000E+03 0.  1.
<mgrwt>
<rscale>  2 0.18874909E+03</rscale>
<asrwt>0</asrwt>
<pdfrwt beam="1">  1       21 0.10986075E+00 0.18874909E+03</pdfrwt>
<pdfrwt beam="2">  1       21 0.81495319E-02 0.18874909E+03</pdfrwt>
<totfact> 0.76254781E+04</totfact>
</mgrwt>
</event>
<event>
 4    1  0.4025504E+000  0.2033698E+03  0.7546771E-02  0.1146927E+00
         21   -1    0    0  503  502  0.00000000000E+00  0.00000000000E+00  0.19424258617E+02  0.19424258617E+02  0.00000000000E+00 0. -1.
         21   -1    0    0  501  503 -0.00000000000E+00 -0.00000000000E+00 -0.24422234756E+04  0.24422234756E+04  0.00000000000E+00 0. -1.
          6    1    1    2  501    0 -0.92487450254E+02 -0.53631608616E+02 -0.77079329555E+03  0.79717098691E+03  0.17300000000E+03 0. -1.
         -6    1    1    2    0  502  0.92487450254E+02  0.53631608616E+02 -0.16520059215E+04  0.16644767473E+04  0.17300000000E+03 0. -1.
<mgrwt>
<rscale>  2 0.20336981E+03</rscale>
<asrwt>0</asrwt>
<pdfrwt beam="1">  1       21 0.29883457E-02 0.20336981E+03</pdfrwt>
<pdfrwt beam="2">  1       21 0.37572691E+00 0.20336981E+03</pdfrwt>
<totfact> 0.77144217E+03</totfact>
</mgrwt>
</event>
<event>
 4    1  0.4025504E+000  0.2297554E+03  0.7546771E-02  0.1126812E+00
         21   -1    0    0  503  502  0.00000000000E+00  0.00000000000E+00  0.55651504519E+03  0.55651504519E+03  0.00000000000E+00 0. -1.
         21   -1    0    0  501  503 -0.00000000000E+00 -0.00000000000E+00 -0.95731264807E+02  0.95731264807E+02  0.00000000000E+00 0. -1.
          6    1    1    2  501    0  0.28288967379E+02  0.14852034479E+03  0.26161479333E+03  0.34818078434E+03  0.17300000000E+03 0. -1.
         -6    1    1    2    0  502 -0.28288967379E+02 -0.14852034479E+03  0.19916898706E+03  0.30406552566E+03  0.17300000000E+03 0. -1.
<mgrwt>
<rscale>  2 0.22975543E+03</rscale>
<asrwt>0</asrwt>
<pdfrwt beam="1">  1       21 0.85617697E-01 0.22975543E+03</pdfrwt>
<pdfrwt beam="2">  1       21 0.14727887E-01 0.22975543E+03</pdfrwt>
<totfact> 0.46944698E+04</totfact>
</mgrwt>
</event>
<event>
 4    1  0.4025504E+000  0.3839296E+03  0.7546771E-02  0.1049491E+00
         21   -1    0    0  501  502  0.00000000000E+00  0.00000000000E+00  0.76219774520E+03  0.76219774520E+03  0.00000000000E+00 0.  1.
         21   -1    0    0  502  503 -0.00000000000E+00 -0.00000000000E+00 -0.35755922871E+03  0.35755922871E+03  0.00000000000E+00 0.  1.
          6    1    1    2  501    0  0.20589566772E+03  0.27400711166E+03  0.58169083829E+03  0.69696926372E+03  0.17300000000E+03 0.  1.
         -6    1    1    2    0  503 -0.20589566772E+03 -0.27400711166E+03 -0.17705232180E+03  0.42278771018E+03  0.17300000000E+03 0.  1.
<mgrwt>
<rscale>  2 0.38392958E+03</rscale>
<asrwt>0</asrwt>
<pdfrwt beam="1">  1       21 0.11726119E+00 0.38392958E+03</pdfrwt>
<pdfrwt beam="2">  1       21 0.55009112E-01 0.38392958E+03</pdfrwt>
<totfact> 0.15350534E+03</totfact>
</mgrwt>
</event>
<event>
 4    1  0.4025504E+000  0.1774668E+03  0.7546771E-02  0.1170277E+00
         21   -1    0    0  503  502  0.00000000000E+00  0.00000000000E+00  0.14056652682E+03  0.14056652682E+03  0.00000000000E+00 0.  1.
         21   -1    0    0  501  503 -0.00000000000E+00 -0.00000000000E+00 -0.33472225272E+03  0.33472225272E+03  0.00000000000E+00 0. -1.
          6    1    1    2  501    0  0.50652975885E+01 -0.39240510685E+02 -0.23372390177E+03  0.29346437122E+03  0.17300000000E+03 0. -1.
         -6    1    1    2    0  502 -0.50652975885E+01  0.39240510685E+02  0.39568175867E+02  0.18182440832E+03  0.17300000000E+03 0.  1.
<mgrwt>
<rscale>  2 0.17746683E+03</rscale>
<asrwt>0</asrwt>
<pdfrwt beam="1">  1       21 0.21625620E-01 0.17746683E+03</pdfrwt>
<pdfrwt beam="2">  1       21 0.51495730E-01 0.17746683E+03</pdfrwt>
<totfact> 0.71894055E+04</totfact>
</mgrwt>
</event>
<event>
 4    1  0.4025504E+000  0.1872938E+03  0.7546771E-02  0.1160925E+00
         21   -1    0    0  503  502  0.00000000000E+00  0.00000000000E+00  0.17974192957E+03  0.17974192957E+03  0.00000000000E+00 0.  1.
         21   -1    0    0  501  503 -0.00000000000E+00 -0.00000000000E+00 -0.21963076668E+03  0.21963076668E+03  0.00000000000E+00 0.  1.
          6    1    1    2  501    0 -0.15093988885E+02  0.70157944868E+02 -0.86594298186E+02  0.20634325336E+03  0.17300000000E+03 0.  1.
         -6    1    1    2    0  502  0.15093988885E+02 -0.70157944868E+02  0.46705461079E+02  0.19302944289E+03  0.17300000000E+03 0.  1.
<mgrwt>
<rscale>  2 0.18729380E+03</rscale>
<asrwt>0</asrwt>
<pdfrwt beam="1">  1       21 0.27652604E-01 0.18729380E+03</pdfrwt>
<pdfrwt beam="2">  1       21 0.33789349E-01 0.18729380E+03</pdfrwt>
<totfact> 0.10551839E+05</totfact>
</mgrwt>
</event>
<event>
 4    1  0.4025504E+000  0.1772747E+03  0.7546771E-02  0.1170467E+00
         21   -1    0    0  501  502  0.00000000000E+00  0.00000000000E+00  0.19305703064E+03  0.19305703064E+03  0.00000000000E+00 0.  1.
         21   -1    0    0  502  503 -0.00000000000E+00 -0.00000000000E+00 -0.16378037532E+03  0.16378037532E+03  0.00000000000E+00 0.  1.
          6    1    1    2  501    0  0.38162871295E+02 -0.63959156573E+01  0.28564776290E+02  0.17956129574E+03  0.17300000000E+03 0.  1.
         -6    1    1    2    0  503 -0.38162871295E+02  0.63959156573E+01  0.71187903643E+00  0.17727611022E+03  0.17300000000E+03 0.  1.
<mgrwt>
<rscale>  2 0.17727468E+03</rscale>
<asrwt>0</asrwt>
<pdfrwt beam="1">  1       21 0.29701082E-01 0.17727468E+03</pdfrwt>
<pdfrwt beam="2">  1       21 0.25196981E-01 0.17727468E+03</pdfrwt>
<totfact> 0.16291439E+05</totfact>
</mgrwt>
</event>
<event>
 4    1  0.4025504E+000  0.2233638E+03  0.7546771E-02  0.1131400E+00
         21   -1    0    0  501  502  0.00000000000E+00  0.00000000000E+00  0.53437335440E+03  0.53437335440E+03  0.00000000000E+00 0. -1.
         21   -1    0    0  502  503 -0.00000000000E+00 -0.00000000000E+00 -0.19253256893E+03  0.19253256893E+03  0.00000000000E+00 0.  1.
          6    1    1    2  501    0  0.14115276486E+03 -0.61879426814E+01  0.43176536944E+03  0.48612007561E+03  0.17300000000E+03 0. -1.
         -6    1    1    2    0  503 -0.14115276486E+03  0.61879426814E+01 -0.89924583973E+02  0.24078584772E+03  0.17300000000E+03 0.  1.
<mgrwt>
<rscale>  2 0.22336381E+03</rscale>
<asrwt>0</asrwt>
<pdfrwt beam="1">  1       21 0.82211285E-01 0.22336381E+03</pdfrwt>
<pdfrwt beam="2">  1       21 0.29620395E-01 0.22336381E+03</pdfrwt>
<totfact> 0.13853339E+04</totfact>
</mgrwt>
</event>
<event>
 4    1  0.4025504E+000  0.1819273E+03  0.7546771E-02  0.1165951E+00
         21   -1    0    0  501  502  0.00000000000E+00  0.00000000000E+00  0.15160573074E+03  0.15160573074E+03  0.00000000000E+00 0. -1.
         21   -1    0    0  502  503 -0.00000000000E+00 -0.00000000000E+00 -0.32313079095E+03  0.32313079095E+03  0.00000000000E+00 0. -1.
          6    1    1    2  501    0 -0.56002624092E+02 -0.56779432556E+01  0.49429332938E+02  0.18852265620E+03  0.17300000000E+03 0. -1.
         -6    1    1    2    0  503  0.56002624092E+02  0.56779432556E+01 -0.22095439316E+03  0.28621386549E+03  0.17300000000E+03 0. -1.
<mgrwt>
<rscale>  2 0.18192727E+03</rscale>
<asrwt>0</asrwt>
<pdfrwt beam="1">  1       21 0.23323959E-01 0.18192727E+03</pdfrwt>
<pdfrwt beam="2">  1       21 0.49712429E-01 0.18192727E+03</pdfrwt>
<totfact> 0.66965950E+04</totfact>
</mgrwt>
</event>
<event>
 4    1  0.4025504E+000  0.1770390E+03  0.7546771E-02  0.1170700E+00
         21   -1    0    0  503  502  0.00000000000E+00  0.00000000000E+00  0.37326709241E+03  0.37326709241E+03  0.00000000000E+00 0.  1.
         21   -1    0    0  501  503 -0.00000000000E+00 -0.00000000000E+00 -0.26104987580E+03  0.26104987580E+03  0.00000000000E+00 0.  1.
          6    1    1    2  501    0 -0.19648996881E+02 -0.32058294220E+02 -0.20510787211E+03  0.27094659346E+03  0.17300000000E+03 0.  1.
         -6    1    1    2    0  502  0.19648996881E+02  0.32058294220E+02  0.31732508872E+03  0.36337037474E+03  0.17300000000E+03 0.  1.
<mgrwt>
<rscale>  2 0.17703903E+03</rscale>
<asrwt>0</asrwt>
<pdfrwt beam="1">  1       21 0.57425707E-01 0.17703903E+03</pdfrwt>
<pdfrwt beam="2">  1       21 0.40161519E-01 0.17703903E+03</pdfrwt>
<totfact> 0.17170371E+04</totfact>
</mgrwt>
</event>
<event>
 4    1  0.4025504E+000  0.1991339E+03  0.7546771E-02  0.1150472E+00
         21   -1    0    0  503  502  0.00000000000E+00  0.00000000000E+00  0.17552826891E+03  0.17552826891E+03  0.00000000000E+00 0. -1.
         21   -1    0    0  501  503 -0.00000000000E+00 -0.00000000000E+00 -0.24830559560E+03  0.24830559560E+03  0.00000000000E+00 0. -1.
          6    1    1    2  501    0  0.30616725752E+02 -0.93744022512E+02  0.27248841199E+02  0.20098961416E+03  0.17300000000E+03 0. -1.
         -6    1    1    2    0  502 -0.30616725752E+02  0.93744022512E+02 -0.10002616788E+03  0.22284425035E+03  0.17300000000E+03 0. -1.
<mgrwt>
<rscale>  2 0.19913394E+03</rscale>
<asrwt>0</asrwt>
<pdfrwt beam="1">  1       21 0.27004349E-01 0.19913394E+03</pdfrwt>
<pdfrwt beam="2">  1       21 0.38200861E-01 0.19913394E+03</pdfrwt>
<totfact> 0.86104713E+04</totfact>
</mgrwt>
</event>
<event>
 4    1  0.4025504E+000  0.1834053E+03  0.7546771E-02  0.1164547E+00
         21   -1    0    0  503  502  0.00000000000E+00  0.00000000000E+00  0.41764328361E+03  0.41764328361E+03  0.00000000000E+00 0. -1.
         21   -1    0    0  501  503 -0.00000000000E+00 -0.00000000000E+00 -0.10148783736E+03  0.10148783736E+03  0.00000000000E+00 0. -1.
          6    1    1    2  501    0 -0.59602607946E+02  0.12491195042E+02  0.40155138624E+02  0.18774966308E+03  0.17300000000E+03 0. -1.
         -6    1    1    2    0  502  0.59602607946E+02 -0.12491195042E+02  0.27600030763E+03  0.33138145790E+03  0.17300000000E+03 0. -1.
<mgrwt>
<rscale>  2 0.18340529E+03</rscale>
<asrwt>0</asrwt>
<pdfrwt beam="1">  1       21 0.64252812E-01 0.18340529E+03</pdfrwt>
<pdfrwt beam="2">  1       21 0.15613514E-01 0.18340529E+03</pdfrwt>
<totfact> 0.81802060E+04</totfact>
</mgrwt>
</event>
<event>
 4    1  0.4025504E+000  0.1823350E+03  0.7546771E-02  0.1165562E+00
         21   -1    0    0  503  502  0.00000000000E+00  0.00000000000E+00  0.25869856003E+03  0.25869856003E+03  0.00000000000E+00 0. -1.
         21   -1    0    0  501  503 -0.00000000000E+00 -0.00000000000E+00 -0.26496018706E+03  0.26496018706E+03  0.00000000000E+00 0. -1.
          6    1    1    2  501    0 -0.56463981776E+02 -0.11351580583E+02 -0.19102394007E+03  0.26407609756E+03  0.17300000000E+03 0. -1.
         -6    1    1    2    0  502  0.56463981776E+02  0.11351580583E+02  0.18476231304E+03  0.25958264954E+03  0.17300000000E+03 0. -1.
<mgrwt>
<rscale>  2 0.18233497E+03</rscale>
<asrwt>0</asrwt>
<pdfrwt beam="1">  1       21 0.39799778E-01 0.18233497E+03</pdfrwt>
<pdfrwt beam="2">  1       21 0.40763106E-01 0.18233497E+03</pdfrwt>
<totfact> 0.35465318E+04</totfact>
</mgrwt>
</event>
<event>
 4    1  0.4025504E+000  0.1768270E+03  0.7546771E-02  0.1170910E+00
         21   -1    0    0  503  502  0.00000000000E+00  0.00000000000E+00  0.91990492238E+02  0.91990492238E+02  0.00000000000E+00 0.  1.
         21   -1    0    0  501  503 -0.00000000000E+00 -0.00000000000E+00 -0.40626024141E+03  0.40626024141E+03  0.00000000000E+00 0.  1.
          6    1    1    2  501    0 -0.28166326887E+02 -0.23354848063E+02 -0.25781919679E+03  0.31263161889E+03  0.17300000000E+03 0.  1.
         -6    1    1    2    0  502  0.28166326887E+02  0.23354848063E+02 -0.56450552384E+02  0.18561911476E+03  0.17300000000E+03 0.  1.
<mgrwt>
<rscale>  2 0.17682701E+03</rscale>
<asrwt>0</asrwt>
<pdfrwt beam="1">  1       21 0.14152383E-01 0.17682701E+03</pdfrwt>
<pdfrwt beam="2">  1       21 0.62501576E-01 0.17682701E+03</pdfrwt>
<totfact> 0.10408548E+05</totfact>
</mgrwt>
</event>
<event>
 4    1  0.4025504E+000  0.3899848E+03  0.7546771E-02  0.1047304E+00
         21   -1    0    0  501  502  0.00000000000E+00  0.00000000000E+00  0.21798854486E+03  0.21798854486E+03  0.00000000000E+00 0. -1.
         21   -1    0    0  502  503 -0.00000000000E+00 -0.00000000000E+00 -0.85031264771E+03  0.85031264771E+03  0.00000000000E+00 0. -1.
          6    1    1    2  501    0  0.16501967994E+03  0.30810326014E+03 -0.89861328963E+02  0.40020391318E+03  0.17300000000E+03 0. -1.
         -6    1    1    2    0  503 -0.16501967994E+03 -0.30810326014E+03 -0.54246277388E+03  0.66809727939E+03  0.17300000000E+03 0. -1.
<mgrwt>
<rscale>  2 0.38998476E+03</rscale>
<asrwt>0</asrwt>
<pdfrwt beam="1">  1       21 0.33536699E-01 0.38998476E+03</pdfrwt>
<pdfrwt beam="2">  1       21 0.13081733E+00 0.38998476E+03</pdfrwt>
<totfact> 0.32338243E+03</totfact>
</mgrwt>
</event>
<event>
 4    1  0.4025504E+000  0.1910119E+03  0.7546771E-02  0.1157552E+00
         21   -1    0    0  503  502  0.00000000000E+00  0.00000000000E+00  0.25007199262E+03  0.25007199262E+03  0.00000000000E+00 0.  1.
         21   -1    0    0  501  503 -0.00000000000E+00 -0.00000000000E+00 -0.15218461913E+03  0.15218461913E+03  0.00000000000E+00 0.  1.
          6    1    1    2  501    0 -0.23903056117E+02  0.77363925151E+02  0.80719351689E+01  0.19118234527E+03  0.17300000000E+03 0. -1.
         -6    1    1    2    0  502  0.23903056117E+02 -0.77363925151E+02  0.89815438326E+02  0.21107426648E+03  0.17300000000E+03 0. -1.
<mgrwt>
<rscale>  2 0.19101187E+03</rscale>
<asrwt>0</asrwt>
<pdfrwt beam="1">  1       21 0.38472614E-01 0.19101187E+03</pdfrwt>
<pdfrwt beam="2">  1       21 0.23413018E-01 0.19101187E+03</pdfrwt>
<totfact> 0.11186648E+05</totfact>
</mgrwt>
</event>
<event>
 4    1  0.4025504E+000  0.2038485E+03  0.7546771E-02  0.1146532E+00
         21   -1    0    0  503  502  0.00000000000E+00  0.00000000000E+00  0.49555522442E+03  0.49555522442E+03  0.00000000000E+00 0.  1.
         21   -1    0    0  501  503 -0.00000000000E+00 -0.00000000000E+00 -0.89964488252E+02  0.89964488252E+02  0.00000000000E+00 0.  1.
          6    1    1    2  501    0 -0.10781973634E+03  0.35544561067E+00  0.27909433384E+03  0.34561231035E+03  0.17300000000E+03 0.  1.
         -6    1    1    2    0  502  0.10781973634E+03 -0.35544561067E+00  0.12649640232E+03  0.23990740232E+03  0.17300000000E+03 0.  1.
<mgrwt>
<rscale>  2 0.20384853E+03</rscale>
<asrwt>0</asrwt>
<pdfrwt beam="1">  1       21 0.76239264E-01 0.20384853E+03</pdfrwt>
<pdfrwt beam="2">  1       21 0.13840691E-01 0.20384853E+03</pdfrwt>
<totfact> 0.69220494E+04</totfact>
</mgrwt>
</event>
<event>
 4    1  0.4025504E+000  0.1765708E+03  0.7546771E-02  0.1171164E+00
         21   -1    0    0  503  502  0.00000000000E+00  0.00000000000E+00  0.15058952650E+03  0.15058952650E+03  0.00000000000E+00 0.  1.
         21   -1    0    0  501  503 -0.00000000000E+00 -0.00000000000E+00 -0.25945619780E+03  0.25945619780E+03  0.00000000000E+00 0.  1.
          6    1    1    2  501    0  0.27928511063E+02 -0.21639260622E+02 -0.14658961407E+03  0.22949024878E+03  0.17300000000E+03 0.  1.
         -6    1    1    2    0  502 -0.27928511063E+02  0.21639260622E+02  0.37722942763E+02  0.18055547552E+03  0.17300000000E+03 0.  1.
<mgrwt>
<rscale>  2 0.17657083E+03</rscale>
<asrwt>0</asrwt>
<pdfrwt beam="1">  1       21 0.23167620E-01 0.17657083E+03</pdfrwt>
<pdfrwt beam="2">  1       21 0.39916338E-01 0.17657083E+03</pdfrwt>
<totfact> 0.10652729E+05</totfact>
</mgrwt>
</event>
<event>
 4    1  0.4025504E+000  0.2173291E+03  0.7546771E-02  0.1135890E+00
         21   -1    0    0  503  502  0.00000000000E+00  0.00000000000E+00  0.85348629063E+03  0.85348629063E+03  0.00000000000E+00 0.  1.
         21   -1    0    0  501  503 -0.00000000000E+00 -0.00000000000E+00 -0.59312095911E+02  0.59312095911E+02  0.00000000000E+00 0.  1.
          6    1    1    2  501    0  0.10112020821E+03  0.84128691611E+02  0.27897810299E+03  0.35363924444E+03  0.17300000000E+03 0.  1.
         -6    1    1    2    0  502 -0.10112020821E+03 -0.84128691611E+02  0.51519609172E+03  0.55915914210E+03  0.17300000000E+03 0.  1.
<mgrwt>
<rscale>  2 0.21732909E+03</rscale>
<asrwt>0</asrwt>
<pdfrwt beam="1">  1       21 0.13130557E+00 0.21732909E+03</pdfrwt>
<pdfrwt beam="2">  1       21 0.91249384E-02 0.21732909E+03</pdfrwt>
<totfact> 0.39638438E+04</totfact>
</mgrwt>
</event>
<event>
 4    1  0.4025504E+000  0.1958418E+03  0.7546771E-02  0.1153295E+00
         21   -1    0    0  501  502  0.00000000000E+00  0.00000000000E+00  0.74326478439E+03  0.74326478439E+03  0.00000000000E+00 0.  1.
         21   -1    0    0  502  503 -0.00000000000E+00 -0.00000000000E+00 -0.64340504090E+02  0.64340504090E+02  0.00000000000E+00 0. -1.
          6    1    1    2  501    0  0.81352956056E+02 -0.42505418553E+02  0.51913590225E+03  0.55484781614E+03  0.17300000000E+03 0.  1.
         -6    1    1    2    0  503 -0.81352956056E+02  0.42505418553E+02  0.15978837804E+03  0.25275747234E+03  0.17300000000E+03 0. -1.
<mgrwt>
<rscale>  2 0.19584181E+03</rscale>
<asrwt>0</asrwt>
<pdfrwt beam="1">  1       21 0.11434842E+00 0.19584181E+03</pdfrwt>
<pdfrwt beam="2">  1       21 0.98985396E-02 0.19584181E+03</pdfrwt>
<totfact> 0.49030424E+04</totfact>
</mgrwt>
</event>
<event>
 4    1  0.4025504E+000  0.2355418E+03  0.7546771E-02  0.1122799E+00
         21   -1    0    0  501  502  0.00000000000E+00  0.00000000000E+00  0.19318605518E+03  0.19318605518E+03  0.00000000000E+00 0.  1.
         21   -1    0    0  502  503 -0.00000000000E+00 -0.00000000000E+00 -0.29245101783E+03  0.29245101783E+03  0.00000000000E+00 0.  1.
          6    1    1    2  501    0 -0.12901275075E+03  0.94375030930E+02 -0.17045861211E+02  0.23615778137E+03  0.17300000000E+03 0.  1.
         -6    1    1    2    0  503  0.12901275075E+03 -0.94375030930E+02 -0.82219101438E+02  0.24947929165E+03  0.17300000000E+03 0.  1.
<mgrwt>
<rscale>  2 0.23554179E+03</rscale>
<asrwt>0</asrwt>
<pdfrwt beam="1">  1       21 0.29720932E-01 0.23554179E+03</pdfrwt>
<pdfrwt beam="2">  1       21 0.44992464E-01 0.23554179E+03</pdfrwt>
<totfact> 0.50442408E+04</totfact>
</mgrwt>
</event>
<event>
 4    1  0.4025504E+000  0.1846820E+03  0.7546771E-02  0.1163347E+00
         21   -1    0    0  503  502  0.00000000000E+00  0.00000000000E+00  0.38943145286E+03  0.38943145286E+03  0.00000000000E+00 0.  1.
         21   -1    0    0  501  503 -0.00000000000E+00 -0.00000000000E+00 -0.88319110703E+02  0.88319110703E+02  0.00000000000E+00 0.  1.
          6    1    1    2  501    0 -0.12535769476E+02  0.63413655181E+02  0.17236939005E+03  0.25262352187E+03  0.17300000000E+03 0.  1.
         -6    1    1    2    0  502  0.12535769476E+02 -0.63413655181E+02  0.12874295211E+03  0.22512704168E+03  0.17300000000E+03 0.  1.
<mgrwt>
<rscale>  2 0.18468199E+03</rscale>
<asrwt>0</asrwt>
<pdfrwt beam="1">  1       21 0.59912530E-01 0.18468199E+03</pdfrwt>
<pdfrwt beam="2">  1       21 0.13587556E-01 0.18468199E+03</pdfrwt>
<totfact> 0.12234636E+05</totfact>
</mgrwt>
</event>
<event>
 4    1  0.4025504E+000  0.1807814E+03  0.7546771E-02  0.1167049E+00
         21   -1    0    0  503  502  0.00000000000E+00  0.00000000000E+00  0.62632360668E+03  0.62632360668E+03  0.00000000000E+00 0.  1.
         21   -1    0    0  501  503 -0.00000000000E+00 -0.00000000000E+00 -0.61219404534E+02  0.61219404534E+02  0.00000000000E+00 0.  1.
          6    1    1    2  501    0 -0.30760437160E+02 -0.42505593380E+02  0.41464554679E+03  0.45234152964E+03  0.17300000000E+03 0.  1.
         -6    1    1    2    0  502  0.30760437160E+02  0.42505593380E+02  0.15045865535E+03  0.23520148157E+03  0.17300000000E+03 0.  1.
<mgrwt>
<rscale>  2 0.18078144E+03</rscale>
<asrwt>0</asrwt>
<pdfrwt beam="1">  1       21 0.96357474E-01 0.18078144E+03</pdfrwt>
<pdfrwt beam="2">  1       21 0.94183703E-02 0.18078144E+03</pdfrwt>
<totfact> 0.81228129E+04</totfact>
</mgrwt>
</event>
<event>
 4    1  0.4025504E+000  0.3026842E+03  0.7546771E-02  0.1083906E+00
         21   -1    0    0  501  502  0.00000000000E+00  0.00000000000E+00  0.35939359920E+03  0.35939359920E+03  0.00000000000E+00 0. -1.
         21   -1    0    0  502  503 -0.00000000000E+00 -0.00000000000E+00 -0.88464066952E+03  0.88464066952E+03  0.00000000000E+00 0.  1.
          6    1    1    2  501    0  0.24642543503E+03 -0.31036171719E+02  0.26217400962E+03  0.40044094484E+03  0.17300000000E+03 0. -1.
         -6    1    1    2    0  503 -0.24642543503E+03  0.31036171719E+02 -0.78742107993E+03  0.84359332388E+03  0.17300000000E+03 0.  1.
<mgrwt>
<rscale>  2 0.30268422E+03</rscale>
<asrwt>0</asrwt>
<pdfrwt beam="1">  1       21 0.55291323E-01 0.30268422E+03</pdfrwt>
<pdfrwt beam="2">  1       21 0.13609856E+00 0.30268422E+03</pdfrwt>
<totfact> 0.10852019E+03</totfact>
</mgrwt>
</event>
<event>
 4    1  0.4025504E+000  0.1877455E+03  0.7546771E-02  0.1160511E+00
         21   -1    0    0  501  502  0.00000000000E+00  0.00000000000E+00  0.99575087631E+02  0.99575087631E+02  0.00000000000E+00 0. -1.
         21   -1    0    0  502  503 -0.00000000000E+00 -0.00000000000E+00 -0.35917671907E+03  0.35917671907E+03  0.00000000000E+00 0. -1.
          6    1    1    2  501    0 -0.55039458161E+02  0.47854430319E+02 -0.10223170232E+03  0.21377490361E+03  0.17300000000E+03 0. -1.
         -6    1    1    2    0  503  0.55039458161E+02 -0.47854430319E+02 -0.15736992912E+03  0.24497690309E+03  0.17300000000E+03 0. -1.
<mgrwt>
<rscale>  2 0.18774554E+03</rscale>
<asrwt>0</asrwt>
<pdfrwt beam="1">  1       21 0.15319244E-01 0.18774554E+03</pdfrwt>
<pdfrwt beam="2">  1       21 0.55257957E-01 0.18774554E+03</pdfrwt>
<totfact> 0.11679932E+05</totfact>
</mgrwt>
</event>
<event>
 4    1  0.4025504E+000  0.2538413E+03  0.7546771E-02  0.1110901E+00
         21   -1    0    0  501  502  0.00000000000E+00  0.00000000000E+00  0.32199474440E+03  0.32199474440E+03  0.00000000000E+00 0.  1.
         21   -1    0    0  502  503 -0.00000000000E+00 -0.00000000000E+00 -0.21969391334E+03  0.21969391334E+03  0.00000000000E+00 0.  1.
          6    1    1    2  501    0 -0.58786199714E+02  0.17621172084E+03  0.13200885628E+03  0.28611488248E+03  0.17300000000E+03 0.  1.
         -6    1    1    2    0  503  0.58786199714E+02 -0.17621172084E+03 -0.29708025216E+02  0.25557377526E+03  0.17300000000E+03 0.  1.
<mgrwt>
<rscale>  2 0.25384127E+03</rscale>
<asrwt>0</asrwt>
<pdfrwt beam="1">  1       21 0.49537653E-01 0.25384127E+03</pdfrwt>
<pdfrwt beam="2">  1       21 0.33799064E-01 0.25384127E+03</pdfrwt>
<totfact> 0.31793181E+04</totfact>
</mgrwt>
</event>
<event>
 4    1  0.4025504E+000  0.2110137E+03  0.7546771E-02  0.1140766E+00
         21   -1    0    0  501  502  0.00000000000E+00  0.00000000000E+00  0.78753099987E+02  0.78753099987E+02  0.00000000000E+00 0. -1.
         21   -1    0    0  502  503 -0.00000000000E+00 -0.00000000000E+00 -0.88144027507E+03  0.88144027507E+03  0.00000000000E+00 0. -1.
          6    1    1    2  501    0  0.67180682346E+02 -0.10042188686E+03 -0.11386516479E+03  0.23977505123E+03  0.17300000000E+03 0. -1.
         -6    1    1    2    0  503 -0.67180682346E+02  0.10042188686E+03 -0.68882201029E+03  0.72041832382E+03  0.17300000000E+03 0. -1.
<mgrwt>
<rscale>  2 0.21101374E+03</rscale>
<asrwt>0</asrwt>
<pdfrwt beam="1">  1       21 0.12115861E-01 0.21101374E+03</pdfrwt>
<pdfrwt beam="2">  1       21 0.13560620E+00 0.21101374E+03</pdfrwt>
<totfact> 0.22142913E+04</totfact>
</mgrwt>
</event>
<event>
 4    1  0.4025504E+000  0.2351793E+03  0.7546771E-02  0.1123047E+00
         21   -1    0    0  503  502  0.00000000000E+00  0.00000000000E+00  0.61833539813E+03  0.61833539813E+03  0.00000000000E+00 0. -1.
         21   -1    0    0  501  503 -0.00000000000E+00 -0.00000000000E+00 -0.11611359916E+03  0.11611359916E+03  0.00000000000E+00 0.  1.
          6    1    1    2  501    0 -0.62159914159E+02 -0.14668483451E+03  0.75132201069E+02  0.24688892896E+03  0.17300000000E+03 0.  1.
         -6    1    1    2    0  502  0.62159914159E+02  0.14668483451E+03  0.42708959790E+03  0.48756006834E+03  0.17300000000E+03 0. -1.
<mgrwt>
<rscale>  2 0.23517928E+03</rscale>
<asrwt>0</asrwt>
<pdfrwt beam="1">  1       21 0.95128521E-01 0.23517928E+03</pdfrwt>
<pdfrwt beam="2">  1       21 0.17863631E-01 0.23517928E+03</pdfrwt>
<totfact> 0.25682153E+04</totfact>
</mgrwt>
</event>
<event>
 4    1  0.4025504E+000  0.1782472E+03  0.7546771E-02  0.1169510E+00
         21   -1    0    0  501  502  0.00000000000E+00  0.00000000000E+00  0.10368302080E+03  0.10368302080E+03  0.00000000000E+00 0.  1.
         21   -1    0    0  502  503 -0.00000000000E+00 -0.00000000000E+00 -0.91731080389E+03  0.91731080389E+03  0.00000000000E+00 0.  1.
          6    1    1    2  501    0  0.31857244555E+02 -0.28778010933E+02  0.97786531308E+01  0.17851520944E+03  0.17300000000E+03 0.  1.
         -6    1    1    2    0  503 -0.31857244555E+02  0.28778010933E+02 -0.82340643622E+03  0.84247861525E+03  0.17300000000E+03 0.  1.
<mgrwt>
<rscale>  2 0.17824718E+03</rscale>
<asrwt>0</asrwt>
<pdfrwt beam="1">  1       21 0.15951234E-01 0.17824718E+03</pdfrwt>
<pdfrwt beam="2">  1       21 0.14112473E+00 0.17824718E+03</pdfrwt>
<totfact> 0.12419507E+04</totfact>
</mgrwt>
</event>
<event>
 4    1  0.4025504E+000  0.2319024E+03  0.7546771E-02  0.1125308E+00
         21   -1    0    0  503  502  0.00000000000E+00  0.00000000000E+00  0.19515248665E+03  0.19515248665E+03  0.00000000000E+00 0. -1.
         21   -1    0    0  501  503 -0.00000000000E+00 -0.00000000000E+00 -0.33476896442E+03  0.33476896442E+03  0.00000000000E+00 0.  1.
          6    1    1    2  501    0  0.13517848467E+03 -0.74675890302E+02 -0.18122635320E+03  0.29431565097E+03  0.17300000000E+03 0.  1.
         -6    1    1    2    0  502 -0.13517848467E+03  0.74675890302E+02  0.41609875421E+02  0.23560580011E+03  0.17300000000E+03 0. -1.
<mgrwt>
<rscale>  2 0.23190237E+03</rscale>
<asrwt>0</asrwt>
<pdfrwt beam="1">  1       21 0.30023460E-01 0.23190237E+03</pdfrwt>
<pdfrwt beam="2">  1       21 0.51502917E-01 0.23190237E+03</pdfrwt>
<totfact> 0.37374801E+04</totfact>
</mgrwt>
</event>
<event>
 4    1  0.4025504E+000  0.1755250E+03  0.7546771E-02  0.1172206E+00
         21   -1    0    0  503  502  0.00000000000E+00  0.00000000000E+00  0.63925393066E+02  0.63925393066E+02  0.00000000000E+00 0.  1.
         21   -1    0    0  501  503 -0.00000000000E+00 -0.00000000000E+00 -0.59922487430E+03  0.59922487430E+03  0.00000000000E+00 0.  1.
          6    1    1    2  501    0  0.29213195772E+02  0.51598088388E+01 -0.41433415976E+03  0.44997981108E+03  0.17300000000E+03 0.  1.
         -6    1    1    2    0  502 -0.29213195772E+02 -0.51598088388E+01 -0.12096532148E+03  0.21317045629E+03  0.17300000000E+03 0.  1.
<mgrwt>
<rscale>  2 0.17552503E+03</rscale>
<asrwt>0</asrwt>
<pdfrwt beam="1">  1       21 0.98346760E-02 0.17552503E+03</pdfrwt>
<pdfrwt beam="2">  1       21 0.92188440E-01 0.17552503E+03</pdfrwt>
<totfact> 0.83650222E+04</totfact>
</mgrwt>
</event>
<event>
 4    1  0.4025504E+000  0.2876265E+03  0.7546771E-02  0.1091595E+00
         21   -1    0    0  503  502  0.00000000000E+00  0.00000000000E+00  0.32051215409E+03  0.32051215409E+03  0.00000000000E+00 0. -1.
         21   -1    0    0  501  503 -0.00000000000E+00 -0.00000000000E+00 -0.38387225689E+03  0.38387225689E+03  0.00000000000E+00 0.  1.
          6    1    1    2  501    0 -0.19307905346E+03  0.12458126596E+03 -0.23326254246E+03  0.37032475805E+03  0.17300000000E+03 0.  1.
         -6    1    1    2    0  502  0.19307905346E+03 -0.12458126596E+03  0.16990243966E+03  0.33405965293E+03  0.17300000000E+03 0. -1.
<mgrwt>
<rscale>  2 0.28762652E+03</rscale>
<asrwt>0</asrwt>
<pdfrwt beam="1">  1       21 0.49309562E-01 0.28762652E+03</pdfrwt>
<pdfrwt beam="2">  1       21 0.59057270E-01 0.28762652E+03</pdfrwt>
<totfact> 0.99545558E+03</totfact>
</mgrwt>
</event>
<event>
 4    1  0.4025504E+000  0.1876444E+03  0.7546771E-02  0.1160603E+00
         21   -1    0    0  503  502  0.00000000000E+00  0.00000000000E+00  0.19670931864E+03  0.19670931864E+03  0.00000000000E+00 0. -1.
         21   -1    0    0  501  503 -0.00000000000E+00 -0.00000000000E+00 -0.17974409853E+03  0.17974409853E+03  0.00000000000E+00 0. -1.
          6    1    1    2  501    0 -0.60857220931E+02 -0.39721983947E+02  0.20615241993E+02  0.18877347682E+03  0.17300000000E+03 0. -1.
         -6    1    1    2    0  502  0.60857220931E+02  0.39721983947E+02 -0.36500218816E+01  0.18767994034E+03  0.17300000000E+03 0. -1.
<mgrwt>
<rscale>  2 0.18764444E+03</rscale>
<asrwt>0</asrwt>
<pdfrwt beam="1">  1       21 0.30262972E-01 0.18764444E+03</pdfrwt>
<pdfrwt beam="2">  1       21 0.27652938E-01 0.18764444E+03</pdfrwt>
<totfact> 0.13097575E+05</totfact>
</mgrwt>
</event>
<event>
 4    1  0.4025504E+000  0.2440406E+03  0.7546771E-02  0.1117130E+00
         21   -1    0    0  503  502  0.00000000000E+00  0.00000000000E+00  0.28023879286E+02  0.28023879286E+02  0.00000000000E+00 0.  1.
         21   -1    0    0  501  503 -0.00000000000E+00 -0.00000000000E+00 -0.24506615274E+04  0.24506615274E+04  0.00000000000E+00 0.  1.
          6    1    1    2  501    0  0.99509110611E+02 -0.14044476364E+03 -0.16629799938E+04  0.16807909610E+04  0.17300000000E+03 0.  1.
         -6    1    1    2    0  502 -0.99509110611E+02  0.14044476364E+03 -0.75965765429E+03  0.79789444568E+03  0.17300000000E+03 0.  1.
<mgrwt>
<rscale>  2 0.24404056E+03</rscale>
<asrwt>0</asrwt>
<pdfrwt beam="1">  1       21 0.43113648E-02 0.24404056E+03</pdfrwt>
<pdfrwt beam="2">  1       21 0.37702496E+00 0.24404056E+03</pdfrwt>
<totfact> 0.39154146E+03</totfact>
</mgrwt>
</event>
<event>
 4    1  0.4025504E+000  0.1956108E+03  0.7546771E-02  0.1153496E+00
         21   -1    0    0  503  502  0.00000000000E+00  0.00000000000E+00  0.22513736348E+03  0.22513736348E+03  0.00000000000E+00 0. -1.
         21   -1    0    0  501  503 -0.00000000000E+00 -0.00000000000E+00 -0.17022774841E+03  0.17022774841E+03  0.00000000000E+00 0.  1.
          6    1    1    2  501    0  0.65098284122E+02  0.64006314501E+02  0.35343529939E+02  0.19877816782E+03  0.17300000000E+03 0. -1.
         -6    1    1    2    0  502 -0.65098284122E+02 -0.64006314501E+02  0.19566085129E+02  0.19658694407E+03  0.17300000000E+03 0.  1.
<mgrwt>
<rscale>  2 0.19561083E+03</rscale>
<asrwt>0</asrwt>
<pdfrwt beam="1">  1       21 0.34636517E-01 0.19561083E+03</pdfrwt>
<pdfrwt beam="2">  1       21 0.26188884E-01 0.19561083E+03</pdfrwt>
<totfact> 0.11121371E+05</totfact>
</mgrwt>
</event>
<event>
 4    1  0.4025504E+000  0.1953646E+03  0.7546771E-02  0.1153710E+00
         21   -1    0    0  503  502  0.00000000000E+00  0.00000000000E+00  0.11859270725E+04  0.11859270725E+04  0.00000000000E+00 0. -1.
         21   -1    0    0  501  503 -0.00000000000E+00 -0.00000000000E+00 -0.39314759850E+02  0.39314759850E+02  0.00000000000E+00 0.  1.
          6    1    1    2  501    0  0.22110954696E+02 -0.88030884248E+02  0.31239302806E+03  0.36845180808E+03  0.17300000000E+03 0.  1.
         -6    1    1    2    0  502 -0.22110954696E+02  0.88030884248E+02  0.83421928455E+03  0.85679002423E+03  0.17300000000E+03 0.  1.
<mgrwt>
<rscale>  2 0.19536461E+03</rscale>
<asrwt>0</asrwt>
<pdfrwt beam="1">  1       21 0.18245029E+00 0.19536461E+03</pdfrwt>
<pdfrwt beam="2">  1       21 0.60484255E-02 0.19536461E+03</pdfrwt>
<totfact> 0.33999656E+04</totfact>
</mgrwt>
</event>
<event>
 4    1  0.4025504E+000  0.2589233E+03  0.7546771E-02  0.1107792E+00
         21   -1    0    0  501  502  0.00000000000E+00  0.00000000000E+00  0.27713338021E+02  0.27713338021E+02  0.00000000000E+00 0. -1.
         21   -1    0    0  502  503 -0.00000000000E+00 -0.00000000000E+00 -0.28221555514E+04  0.28221555514E+04  0.00000000000E+00 0. -1.
          6    1    1    2  501    0 -0.47570547705E+02 -0.18667965631E+03 -0.85871762526E+03  0.89690423738E+03  0.17300000000E+03 0. -1.
         -6    1    1    2    0  503  0.47570547705E+02  0.18667965631E+03 -0.19357245881E+04  0.19529646520E+04  0.17300000000E+03 0. -1.
<mgrwt>
<rscale>  2 0.25892325E+03</rscale>
<asrwt>0</asrwt>
<pdfrwt beam="1">  1       21 0.42635896E-02 0.25892325E+03</pdfrwt>
<pdfrwt beam="2">  1       21 0.43417786E+00 0.25892325E+03</pdfrwt>
<totfact> 0.17066018E+03</totfact>
</mgrwt>
</event>
<event>
 4    1  0.4025504E+000  0.2472804E+03  0.7546771E-02  0.1115036E+00
         21   -1    0    0  503  502  0.00000000000E+00  0.00000000000E+00  0.10894345732E+04  0.10894345732E+04  0.00000000000E+00 0. -1.
         21   -1    0    0  501  503 -0.00000000000E+00 -0.00000000000E+00 -0.84965004683E+02  0.84965004683E+02  0.00000000000E+00 0.  1.
          6    1    1    2  501    0 -0.10362241927E+03 -0.14311173374E+03  0.16014321536E+03  0.29460723605E+03  0.17300000000E+03 0.  1.
         -6    1    1    2    0  502  0.10362241927E+03  0.14311173374E+03  0.84432635316E+03  0.87979234184E+03  0.17300000000E+03 0. -1.
<mgrwt>
<rscale>  2 0.24728036E+03</rscale>
<asrwt>0</asrwt>
<pdfrwt beam="1">  1       21 0.16760531E+00 0.24728036E+03</pdfrwt>
<pdfrwt beam="2">  1       21 0.13071540E-01 0.24728036E+03</pdfrwt>
<totfact> 0.10745284E+04</totfact>
</mgrwt>
</event>
<event>
 4    1  0.4025504E+000  0.1783858E+03  0.7546771E-02  0.1169374E+00
         21   -1    0    0  501  502  0.00000000000E+00  0.00000000000E+00  0.23677583146E+03  0.23677583146E+03  0.00000000000E+00 0.  1.
         21   -1    0    0  502  503 -0.00000000000E+00 -0.00000000000E+00 -0.23422395304E+03  0.23422395304E+03  0.00000000000E+00 0.  1.
          6    1    1    2  501    0 -0.38126037707E+02 -0.20949805533E+02  0.15502175543E+03  0.23633288760E+03  0.17300000000E+03 0.  1.
         -6    1    1    2    0  503  0.38126037707E+02  0.20949805533E+02 -0.15246987701E+03  0.23466689690E+03  0.17300000000E+03 0.  1.
<mgrwt>
<rscale>  2 0.17838579E+03</rscale>
<asrwt>0</asrwt>
<pdfrwt beam="1">  1       21 0.36427051E-01 0.17838579E+03</pdfrwt>
<pdfrwt beam="2">  1       21 0.36034454E-01 0.17838579E+03</pdfrwt>
<totfact> 0.54330280E+04</totfact>
</mgrwt>
</event>
<event>
 4    1  0.4025504E+000  0.1861751E+03  0.7546771E-02  0.1161957E+00
         21   -1    0    0  503  502  0.00000000000E+00  0.00000000000E+00  0.74457794105E+03  0.74457794105E+03  0.00000000000E+00 0. -1.
         21   -1    0    0  501  503 -0.00000000000E+00 -0.00000000000E+00 -0.55525790796E+02  0.55525790796E+02  0.00000000000E+00 0. -1.
          6    1    1    2  501    0 -0.26711597285E+02 -0.63392932926E+02  0.18369479857E+03  0.26154340442E+03  0.17300000000E+03 0.  1.
         -6    1    1    2    0  502  0.26711597285E+02  0.63392932926E+02  0.50535735168E+03  0.53856032742E+03  0.17300000000E+03 0.  1.
<mgrwt>
<rscale>  2 0.18617511E+03</rscale>
<asrwt>0</asrwt>
<pdfrwt beam="1">  1       21 0.11455044E+00 0.18617511E+03</pdfrwt>
<pdfrwt beam="2">  1       21 0.85424299E-02 0.18617511E+03</pdfrwt>
<totfact> 0.63544879E+04</totfact>
</mgrwt>
</event>
<event>
 4    1  0.4025504E+000  0.1845433E+03  0.7546771E-02  0.1163477E+00
         21   -1    0    0  503  502  0.00000000000E+00  0.00000000000E+00  0.44124507663E+03  0.44124507663E+03  0.00000000000E+00 0.  1.
         21   -1    0    0  501  503 -0.00000000000E+00 -0.00000000000E+00 -0.80510288981E+02  0.80510288981E+02  0.00000000000E+00 0.  1.
          6    1    1    2  501    0  0.58463172298E+02  0.26632712510E+02  0.12732636579E+03  0.22420581463E+03  0.17300000000E+03 0.  1.
         -6    1    1    2    0  502 -0.58463172298E+02 -0.26632712510E+02  0.23340842186E+03  0.29754955097E+03  0.17300000000E+03 0.  1.
<mgrwt>
<rscale>  2 0.18454334E+03</rscale>
<asrwt>0</asrwt>
<pdfrwt beam="1">  1       21 0.67883857E-01 0.18454334E+03</pdfrwt>
<pdfrwt beam="2">  1       21 0.12386199E-01 0.18454334E+03</pdfrwt>
<totfact> 0.11024150E+05</totfact>
</mgrwt>
</event>
<event>
 4    1  0.4025504E+000  0.1734219E+03  0.7546771E-02  0.1174326E+00
         21   -1    0    0  503  502  0.00000000000E+00  0.00000000000E+00  0.35777695549E+02  0.35777695549E+02  0.00000000000E+00 0.  1.
         21   -1    0    0  501  503 -0.00000000000E+00 -0.00000000000E+00 -0.86607133648E+03  0.86607133648E+03  0.00000000000E+00 0.  1.
          6    1    1    2  501    0 -0.76803796693E+01 -0.93358073932E+01 -0.33783354820E+03  0.37974550929E+03  0.17300000000E+03 0.  1.
         -6    1    1    2    0  502  0.76803796693E+01  0.93358073932E+01 -0.49246009272E+03  0.52210352274E+03  0.17300000000E+03 0.  1.
<mgrwt>
<rscale>  2 0.17342187E+03</rscale>
<asrwt>0</asrwt>
<pdfrwt beam="1">  1       21 0.55042610E-02 0.17342187E+03</pdfrwt>
<pdfrwt beam="2">  1       21 0.13324174E+00 0.17342187E+03</pdfrwt>
<totfact> 0.93620668E+04</totfact>
</mgrwt>
</event>
<event>
 4    1  0.4025504E+000  0.2533184E+03  0.7546771E-02  0.1111225E+00
         21   -1    0    0  501  502  0.00000000000E+00  0.00000000000E+00  0.12608878744E+03  0.12608878744E+03  0.00000000000E+00 0. -1.
         21   -1    0    0  502  503 -0.00000000000E+00 -0.00000000000E+00 -0.67131537231E+03  0.67131537231E+03  0.00000000000E+00 0.  1.
          6    1    1    2  501    0 -0.32745286150E+02  0.18212347277E+03 -0.76521107472E+02  0.26462368184E+03  0.17300000000E+03 0. -1.
         -6    1    1    2    0  503  0.32745286150E+02 -0.18212347277E+03 -0.46870547740E+03  0.53278047791E+03  0.17300000000E+03 0.  1.
<mgrwt>
<rscale>  2 0.25331840E+03</rscale>
<asrwt>0</asrwt>
<pdfrwt beam="1">  1       21 0.19398275E-01 0.25331840E+03</pdfrwt>
<pdfrwt beam="2">  1       21 0.10327929E+00 0.25331840E+03</pdfrwt>
<totfact> 0.17939968E+04</totfact>
</mgrwt>
</event>
<event>
 4    1  0.4025504E+000  0.1996116E+03  0.7546771E-02  0.1150067E+00
         21   -1    0    0  503  502  0.00000000000E+00  0.00000000000E+00  0.89356180088E+03  0.89356180088E+03  0.00000000000E+00 0. -1.
         21   -1    0    0  501  503 -0.00000000000E+00 -0.00000000000E+00 -0.46639038192E+02  0.46639038192E+02  0.00000000000E+00 0. -1.
          6    1    1    2  501    0 -0.81530882791E+01  0.99243714184E+02  0.52197313016E+03  0.55883873905E+03  0.17300000000E+03 0. -1.
         -6    1    1    2    0  502  0.81530882791E+01 -0.99243714184E+02  0.32494963252E+03  0.38136210002E+03  0.17300000000E+03 0. -1.
<mgrwt>
<rscale>  2 0.19961159E+03</rscale>
<asrwt>0</asrwt>
<pdfrwt beam="1">  1       21 0.13747103E+00 0.19961159E+03</pdfrwt>
<pdfrwt beam="2">  1       21 0.71752373E-02 0.19961159E+03</pdfrwt>
<totfact> 0.54153573E+04</totfact>
</mgrwt>
</event>
<event>
 4    1  0.4025504E+000  0.1882019E+03  0.7546771E-02  0.1160093E+00
         21   -1    0    0  503  502  0.00000000000E+00  0.00000000000E+00  0.12316232807E+04  0.12316232807E+04  0.00000000000E+00 0. -1.
         21   -1    0    0  501  503 -0.00000000000E+00 -0.00000000000E+00 -0.29110062574E+02  0.29110062574E+02  0.00000000000E+00 0. -1.
          6    1    1    2  501    0  0.62160220822E+02  0.40337031150E+02  0.53200865887E+03  0.56431656209E+03  0.17300000000E+03 0. -1.
         -6    1    1    2    0  502 -0.62160220822E+02 -0.40337031150E+02  0.67050455927E+03  0.69641678120E+03  0.17300000000E+03 0. -1.
<mgrwt>
<rscale>  2 0.18820194E+03</rscale>
<asrwt>0</asrwt>
<pdfrwt beam="1">  1       21 0.18948046E+00 0.18820194E+03</pdfrwt>
<pdfrwt beam="2">  1       21 0.44784721E-02 0.18820194E+03</pdfrwt>
<totfact> 0.51085908E+04</totfact>
</mgrwt>
</event>
<event>
 4    1  0.4025504E+000  0.1977514E+03  0.7546771E-02  0.1151650E+00
         21   -1    0    0  501  502  0.00000000000E+00  0.00000000000E+00  0.35971174133E+03  0.35971174133E+03  0.00000000000E+00 0.  1.
         21   -1    0    0  502  503 -0.00000000000E+00 -0.00000000000E+00 -0.10882040874E+03  0.10882040874E+03  0.00000000000E+00 0.  1.
          6    1    1    2  501    0  0.72179073631E+02 -0.62982670058E+02  0.13277765513E+03  0.23819223560E+03  0.17300000000E+03 0.  1.
         -6    1    1    2    0  503 -0.72179073631E+02  0.62982670058E+02  0.11811367745E+03  0.23033991447E+03  0.17300000000E+03 0.  1.
<mgrwt>
<rscale>  2 0.19775145E+03</rscale>
<asrwt>0</asrwt>
<pdfrwt beam="1">  1       21 0.55340267E-01 0.19775145E+03</pdfrwt>
<pdfrwt beam="2">  1       21 0.16741602E-01 0.19775145E+03</pdfrwt>
<totfact> 0.98586173E+04</totfact>
</mgrwt>
</event>
<event>
 4    1  0.4025504E+000  0.2750528E+03  0.7546771E-02  0.1098422E+00
         21   -1    0    0  503  502  0.00000000000E+00  0.00000000000E+00  0.36194866704E+03  0.36194866704E+03  0.00000000000E+00 0.  1.
         21   -1    0    0  501  503 -0.00000000000E+00 -0.00000000000E+00 -0.67604396737E+03  0.67604396737E+03  0.00000000000E+00 0.  1.
          6    1    1    2  501    0  0.16663994771E+02 -0.21318387100E+03 -0.58841471072E+03  0.64952746160E+03  0.17300000000E+03 0.  1.
         -6    1    1    2    0  502 -0.16663994771E+02  0.21318387100E+03  0.27431941039E+03  0.38846517282E+03  0.17300000000E+03 0.  1.
<mgrwt>
<rscale>  2 0.27505282E+03</rscale>
<asrwt>0</asrwt>
<pdfrwt beam="1">  1       21 0.55684411E-01 0.27505282E+03</pdfrwt>
<pdfrwt beam="2">  1       21 0.10400676E+00 0.27505282E+03</pdfrwt>
<totfact> 0.21318090E+03</totfact>
</mgrwt>
</event>
<event>
 4    1  0.4025504E+000  0.2033799E+03  0.7546771E-02  0.1146918E+00
         21   -1    0    0  503  502  0.00000000000E+00  0.00000000000E+00  0.90342948510E+02  0.90342948510E+02  0.00000000000E+00 0.  1.
         21   -1    0    0  501  503 -0.00000000000E+00 -0.00000000000E+00 -0.50631739806E+03  0.50631739806E+03  0.00000000000E+00 0.  1.
          6    1    1    2  501    0 -0.96400432355E+02 -0.46274675889E+02 -0.11568396177E+03  0.23397899051E+03  0.17300000000E+03 0.  1.
         -6    1    1    2    0  502  0.96400432355E+02  0.46274675889E+02 -0.30029048778E+03  0.36268135607E+03  0.17300000000E+03 0.  1.
<mgrwt>
<rscale>  2 0.20337991E+03</rscale>
<asrwt>0</asrwt>
<pdfrwt beam="1">  1       21 0.13898915E-01 0.20337991E+03</pdfrwt>
<pdfrwt beam="2">  1       21 0.77894985E-01 0.20337991E+03</pdfrwt>
<totfact> 0.65471820E+04</totfact>
</mgrwt>
</event>
<event>
 4    1  0.4025504E+000  0.2564591E+03  0.7546771E-02  0.1109290E+00
         21   -1    0    0  503  502  0.00000000000E+00  0.00000000000E+00  0.64336918008E+03  0.64336918008E+03  0.00000000000E+00 0.  1.
         21   -1    0    0  501  503 -0.00000000000E+00 -0.00000000000E+00 -0.12528746639E+03  0.12528746639E+03  0.00000000000E+00 0.  1.
          6    1    1    2  501    0 -0.17185803440E+03  0.79417114753E+02  0.94163971820E+02  0.27319977250E+03  0.17300000000E+03 0.  1.
         -6    1    1    2    0  502  0.17185803440E+03 -0.79417114753E+02  0.42391774186E+03  0.49545687397E+03  0.17300000000E+03 0.  1.
<mgrwt>
<rscale>  2 0.25645908E+03</rscale>
<asrwt>0</asrwt>
<pdfrwt beam="1">  1       21 0.98979872E-01 0.25645908E+03</pdfrwt>
<pdfrwt beam="2">  1       21 0.19274995E-01 0.25645908E+03</pdfrwt>
<totfact> 0.20076034E+04</totfact>
</mgrwt>
</event>
<event>
 4    1  0.4025504E+000  0.1818369E+03  0.7546771E-02  0.1166037E+00
         21   -1    0    0  503  502  0.00000000000E+00  0.00000000000E+00  0.68486140371E+03  0.68486140371E+03  0.00000000000E+00 0. -1.
         21   -1    0    0  501  503 -0.00000000000E+00 -0.00000000000E+00 -0.59678004724E+02  0.59678004724E+02  0.00000000000E+00 0. -1.
          6    1    1    2  501    0  0.53112667581E+02 -0.17740074452E+02  0.14989554701E+03  0.23565513088E+03  0.17300000000E+03 0. -1.
         -6    1    1    2    0  502 -0.53112667581E+02  0.17740074452E+02  0.47528785198E+03  0.50888427755E+03  0.17300000000E+03 0. -1.
<mgrwt>
<rscale>  2 0.18183692E+03</rscale>
<asrwt>0</asrwt>
<pdfrwt beam="1">  1       21 0.10536329E+00 0.18183692E+03</pdfrwt>
<pdfrwt beam="2">  1       21 0.91812320E-02 0.18183692E+03</pdfrwt>
<totfact> 0.68686989E+04</totfact>
</mgrwt>
</event>
<event>
 4    1  0.4025504E+000  0.2205507E+03  0.7546771E-02  0.1133473E+00
         21   -1    0    0  503  502  0.00000000000E+00  0.00000000000E+00  0.19997917252E+03  0.19997917252E+03  0.00000000000E+00 0.  1.
         21   -1    0    0  501  503 -0.00000000000E+00 -0.00000000000E+00 -0.36131445592E+03  0.36131445592E+03  0.00000000000E+00 0.  1.
          6    1    1    2  501    0 -0.13346463131E+03  0.30013480213E+02 -0.24110235431E+03  0.32676132277E+03  0.17300000000E+03 0.  1.
         -6    1    1    2    0  502  0.13346463131E+03 -0.30013480213E+02  0.79767070911E+02  0.23453230568E+03  0.17300000000E+03 0.  1.
<mgrwt>
<rscale>  2 0.22055071E+03</rscale>
<asrwt>0</asrwt>
<pdfrwt beam="1">  1       21 0.30766027E-01 0.22055071E+03</pdfrwt>
<pdfrwt beam="2">  1       21 0.55586838E-01 0.22055071E+03</pdfrwt>
<totfact> 0.30482919E+04</totfact>
</mgrwt>
</event>
<event>
 4    1  0.4025504E+000  0.3294287E+03  0.7546771E-02  0.1071390E+00
         21   -1    0    0  501  502  0.00000000000E+00  0.00000000000E+00  0.91995089767E+03  0.91995089767E+03  0.00000000000E+00 0. -1.
         21   -1    0    0  502  503 -0.00000000000E+00 -0.00000000000E+00 -0.13835764884E+03  0.13835764884E+03  0.00000000000E+00 0. -1.
          6    1    1    2  501    0  0.22578523374E+03 -0.16617848038E+03  0.18765306614E+03  0.37912653870E+03  0.17300000000E+03 0. -1.
         -6    1    1    2    0  503 -0.22578523374E+03  0.16617848038E+03  0.59394018270E+03  0.67918200781E+03  0.17300000000E+03 0. -1.
<mgrwt>
<rscale>  2 0.32942869E+03</rscale>
<asrwt>0</asrwt>
<pdfrwt beam="1">  1       21 0.14153090E+00 0.32942869E+03</pdfrwt>
<pdfrwt beam="2">  1       21 0.21285793E-01 0.32942869E+03</pdfrwt>
<totfact> 0.65701786E+03</totfact>
</mgrwt>
</event>
<event>
 4    1  0.4025504E+000  0.2495758E+03  0.7546771E-02  0.1113573E+00
         21   -1    0    0  503  502  0.00000000000E+00  0.00000000000E+00  0.14119590343E+03  0.14119590343E+03  0.00000000000E+00 0. -1.
         21   -1    0    0  501  503 -0.00000000000E+00 -0.00000000000E+00 -0.44296960266E+03  0.44296960266E+03  0.00000000000E+00 0.  1.
          6    1    1    2  501    0  0.10167612895E+03 -0.14839496775E+03 -0.16962406616E+03  0.30176220021E+03  0.17300000000E+03 0. -1.
         -6    1    1    2    0  502 -0.10167612895E+03  0.14839496775E+03 -0.13214963306E+03  0.28240330588E+03  0.17300000000E+03 0. -1.
<mgrwt>
<rscale>  2 0.24957584E+03</rscale>
<asrwt>0</asrwt>
<pdfrwt beam="1">  1       21 0.21722447E-01 0.24957584E+03</pdfrwt>
<pdfrwt beam="2">  1       21 0.68149170E-01 0.24957584E+03</pdfrwt>
<totfact> 0.37808797E+04</totfact>
</mgrwt>
</event>
<event>
 4    1  0.4025504E+000  0.2898320E+03  0.7546771E-02  0.1090437E+00
         21   -1    0    0  501  502  0.00000000000E+00  0.00000000000E+00  0.12215726046E+04  0.12215726046E+04  0.00000000000E+00 0.  1.
         21   -1    0    0  502  503 -0.00000000000E+00 -0.00000000000E+00 -0.24902260353E+03  0.24902260353E+03  0.00000000000E+00 0. -1.
          6    1    1    2  501    0 -0.16310031792E+03  0.16574638604E+03  0.11118644855E+04  0.11490192393E+04  0.17300000000E+03 0.  1.
         -6    1    1    2    0  503  0.16310031792E+03 -0.16574638604E+03 -0.13931448439E+03  0.32157596886E+03  0.17300000000E+03 0. -1.
<mgrwt>
<rscale>  2 0.28983198E+03</rscale>
<asrwt>0</asrwt>
<pdfrwt beam="1">  1       21 0.18793424E+00 0.28983198E+03</pdfrwt>
<pdfrwt beam="2">  1       21 0.38311170E-01 0.28983198E+03</pdfrwt>
<totfact> 0.96837943E+02</totfact>
</mgrwt>
</event>
<event>
 4    1  0.4025504E+000  0.2627325E+03  0.7546771E-02  0.1105513E+00
         21   -1    0    0  503  502  0.00000000000E+00  0.00000000000E+00  0.21726563900E+04  0.21726563900E+04  0.00000000000E+00 0.  1.
         21   -1    0    0  501  503 -0.00000000000E+00 -0.00000000000E+00 -0.32019731171E+02  0.32019731171E+02  0.00000000000E+00 0.  1.
          6    1    1    2  501    0  0.15989954813E+03  0.11632502131E+03  0.97324383423E+03  0.10080832986E+04  0.17300000000E+03 0.  1.
         -6    1    1    2    0  502 -0.15989954813E+03 -0.11632502131E+03  0.11673928246E+04  0.11965928226E+04  0.17300000000E+03 0.  1.
<mgrwt>
<rscale>  2 0.26273252E+03</rscale>
<asrwt>0</asrwt>
<pdfrwt beam="1">  1       21 0.33425471E+00 0.26273252E+03</pdfrwt>
<pdfrwt beam="2">  1       21 0.49261142E-02 0.26273252E+03</pdfrwt>
<totfact> 0.55444549E+03</totfact>
</mgrwt>
</event>
<event>
 4    1  0.4025504E+000  0.1988474E+03  0.7546771E-02  0.1150715E+00
         21   -1    0    0  503  502  0.00000000000E+00  0.00000000000E+00  0.10777037330E+03  0.10777037330E+03  0.00000000000E+00 0.  1.
         21   -1    0    0  501  503 -0.00000000000E+00 -0.00000000000E+00 -0.36873663984E+03  0.36873663984E+03  0.00000000000E+00 0.  1.
          6    1    1    2  501    0 -0.83000083526E+02 -0.52175590464E+02 -0.11364095112E+03  0.22902963100E+03  0.17300000000E+03 0.  1.
         -6    1    1    2    0  502  0.83000083526E+02  0.52175590464E+02 -0.14732531542E+03  0.24747738214E+03  0.17300000000E+03 0.  1.
<mgrwt>
<rscale>  2 0.19884744E+03</rscale>
<asrwt>0</asrwt>
<pdfrwt beam="1">  1       21 0.16580057E-01 0.19884744E+03</pdfrwt>
<pdfrwt beam="2">  1       21 0.56728714E-01 0.19884744E+03</pdfrwt>
<totfact> 0.95171106E+04</totfact>
</mgrwt>
</event>
<event>
 4    1  0.4025504E+000  0.1827783E+03  0.7546771E-02  0.1165141E+00
         21   -1    0    0  501  502  0.00000000000E+00  0.00000000000E+00  0.13040863288E+04  0.13040863288E+04  0.00000000000E+00 0.  1.
         21   -1    0    0  502  503 -0.00000000000E+00 -0.00000000000E+00 -0.29135463938E+02  0.29135463938E+02  0.00000000000E+00 0.  1.
          6    1    1    2  501    0  0.44774858008E+02  0.38394330604E+02  0.86909986205E+03  0.88811175127E+03  0.17300000000E+03 0.  1.
         -6    1    1    2    0  503 -0.44774858008E+02 -0.38394330604E+02  0.40585100284E+03  0.44511004150E+03  0.17300000000E+03 0.  1.
<mgrwt>
<rscale>  2 0.18277832E+03</rscale>
<asrwt>0</asrwt>
<pdfrwt beam="1">  1       21 0.20062862E+00 0.18277832E+03</pdfrwt>
<pdfrwt beam="2">  1       21 0.44823801E-02 0.18277832E+03</pdfrwt>
<totfact> 0.43333396E+04</totfact>
</mgrwt>
</event>
<event>
 4    1  0.4025504E+000  0.2386202E+03  0.7546771E-02  0.1120715E+00
         21   -1    0    0  503  502  0.00000000000E+00  0.00000000000E+00  0.32401077605E+03  0.32401077605E+03  0.00000000000E+00 0. -1.
         21   -1    0    0  501  503 -0.00000000000E+00 -0.00000000000E+00 -0.20682470368E+03  0.20682470368E+03  0.00000000000E+00 0.  1.
          6    1    1    2  501    0 -0.16816277532E+02  0.16348646319E+03 -0.44314255500E+02  0.24270015261E+03  0.17300000000E+03 0.  1.
         -6    1    1    2    0  502  0.16816277532E+02 -0.16348646319E+03  0.16150032787E+03  0.28813532712E+03  0.17300000000E+03 0. -1.
<mgrwt>
<rscale>  2 0.23862022E+03</rscale>
<asrwt>0</asrwt>
<pdfrwt beam="1">  1       21 0.49847811E-01 0.23862022E+03</pdfrwt>
<pdfrwt beam="2">  1       21 0.31819185E-01 0.23862022E+03</pdfrwt>
<totfact> 0.35602070E+04</totfact>
</mgrwt>
</event>
<event>
 4    1  0.4025504E+000  0.2008379E+03  0.7546771E-02  0.1149034E+00
         21   -1    0    0  501  502  0.00000000000E+00  0.00000000000E+00  0.36805455379E+03  0.36805455379E+03  0.00000000000E+00 0. -1.
         21   -1    0    0  502  503 -0.00000000000E+00 -0.00000000000E+00 -0.15058091797E+03  0.15058091797E+03  0.00000000000E+00 0. -1.
          6    1    1    2  501    0 -0.20459536582E+02  0.99941290855E+02  0.24403133468E+03  0.31604927869E+03  0.17300000000E+03 0. -1.
         -6    1    1    2    0  503  0.20459536582E+02 -0.99941290855E+02 -0.26557698855E+02  0.20258619307E+03  0.17300000000E+03 0. -1.
<mgrwt>
<rscale>  2 0.20083788E+03</rscale>
<asrwt>0</asrwt>
<pdfrwt beam="1">  1       21 0.56623777E-01 0.20083788E+03</pdfrwt>
<pdfrwt beam="2">  1       21 0.23166295E-01 0.20083788E+03</pdfrwt>
<totfact> 0.51138328E+04</totfact>
</mgrwt>
</event>
<event>
 4    1  0.4025504E+000  0.1844149E+03  0.7546771E-02  0.1163597E+00
         21   -1    0    0  503  502  0.00000000000E+00  0.00000000000E+00  0.28404215682E+03  0.28404215682E+03  0.00000000000E+00 0. -1.
         21   -1    0    0  501  503 -0.00000000000E+00 -0.00000000000E+00 -0.11980914805E+03  0.11980914805E+03  0.00000000000E+00 0. -1.
          6    1    1    2  501    0 -0.57847402051E+02  0.27083532613E+02  0.76981311056E+02  0.19983733864E+03  0.17300000000E+03 0. -1.
         -6    1    1    2    0  502  0.57847402051E+02 -0.27083532613E+02  0.87251697715E+02  0.20401396623E+03  0.17300000000E+03 0. -1.
<mgrwt>
<rscale>  2 0.18441486E+03</rscale>
<asrwt>0</asrwt>
<pdfrwt beam="1">  1       21 0.43698793E-01 0.18441486E+03</pdfrwt>
<pdfrwt beam="2">  1       21 0.18432177E-01 0.18441486E+03</pdfrwt>
<totfact> 0.13559061E+05</totfact>
</mgrwt>
</event>
<event>
 4    1  0.4025504E+000  0.1950767E+03  0.7546771E-02  0.1153961E+00
         21   -1    0    0  503  502  0.00000000000E+00  0.00000000000E+00  0.55640758939E+03  0.55640758939E+03  0.00000000000E+00 0. -1.
         21   -1    0    0  501  503 -0.00000000000E+00 -0.00000000000E+00 -0.10075441188E+03  0.10075441188E+03  0.00000000000E+00 0.  1.
          6    1    1    2  501    0  0.43390290085E+02 -0.79013896316E+02  0.41610258143E+02  0.19946510138E+03  0.17300000000E+03 0.  1.
         -6    1    1    2    0  502 -0.43390290085E+02  0.79013896316E+02  0.41404291938E+03  0.45769689989E+03  0.17300000000E+03 0. -1.
<mgrwt>
<rscale>  2 0.19507669E+03</rscale>
<asrwt>0</asrwt>
<pdfrwt beam="1">  1       21 0.85601166E-01 0.19507669E+03</pdfrwt>
<pdfrwt beam="2">  1       21 0.15500679E-01 0.19507669E+03</pdfrwt>
<totfact> 0.43512340E+04</totfact>
</mgrwt>
</event>
<event>
 4    1  0.4025504E+000  0.2068181E+03  0.7546771E-02  0.1144111E+00
         21   -1    0    0  501  502  0.00000000000E+00  0.00000000000E+00  0.35342439906E+03  0.35342439906E+03  0.00000000000E+00 0.  1.
         21   -1    0    0  502  503 -0.00000000000E+00 -0.00000000000E+00 -0.12222660030E+03  0.12222660030E+03  0.00000000000E+00 0.  1.
          6    1    1    2  501    0 -0.60029051998E+02  0.96131456335E+02  0.92033704328E+02  0.22637125858E+03  0.17300000000E+03 0.  1.
         -6    1    1    2    0  503  0.60029051998E+02 -0.96131456335E+02  0.13916409443E+03  0.24927974077E+03  0.17300000000E+03 0.  1.
<mgrwt>
<rscale>  2 0.20681814E+03</rscale>
<asrwt>0</asrwt>
<pdfrwt beam="1">  1       21 0.54372984E-01 0.20681814E+03</pdfrwt>
<pdfrwt beam="2">  1       21 0.18804093E-01 0.20681814E+03</pdfrwt>
<totfact> 0.82243161E+04</totfact>
</mgrwt>
</event>
<event>
 4    1  0.4025504E+000  0.2254948E+03  0.7546771E-02  0.1129852E+00
         21   -1    0    0  501  502  0.00000000000E+00  0.00000000000E+00  0.17446338619E+03  0.17446338619E+03  0.00000000000E+00 0. -1.
         21   -1    0    0  502  503 -0.00000000000E+00 -0.00000000000E+00 -0.47799819433E+03  0.47799819433E+03  0.00000000000E+00 0.  1.
          6    1    1    2  501    0 -0.45475948515E+02 -0.13729832628E+03  0.52032395618E+02  0.23142009957E+03  0.17300000000E+03 0. -1.
         -6    1    1    2    0  503  0.45475948515E+02  0.13729832628E+03 -0.35556720376E+03  0.42104148095E+03  0.17300000000E+03 0.  1.
<mgrwt>
<rscale>  2 0.22549477E+03</rscale>
<asrwt>0</asrwt>
<pdfrwt beam="1">  1       21 0.26840521E-01 0.22549477E+03</pdfrwt>
<pdfrwt beam="2">  1       21 0.73538183E-01 0.22549477E+03</pdfrwt>
<totfact> 0.21550856E+04</totfact>
</mgrwt>
</event>
<event>
 4    1  0.4025504E+000  0.1996641E+03  0.7546771E-02  0.1150023E+00
         21   -1    0    0  501  502  0.00000000000E+00  0.00000000000E+00  0.22141534771E+03  0.22141534771E+03  0.00000000000E+00 0. -1.
         21   -1    0    0  502  503 -0.00000000000E+00 -0.00000000000E+00 -0.20661200840E+03  0.20661200840E+03  0.00000000000E+00 0.  1.
          6    1    1    2  501    0  0.93364122966E+02  0.34927094313E+02  0.84137264437E+02  0.21666758097E+03  0.17300000000E+03 0. -1.
         -6    1    1    2    0  503 -0.93364122966E+02 -0.34927094313E+02 -0.69333925137E+02  0.21135977514E+03  0.17300000000E+03 0. -1.
<mgrwt>
<rscale>  2 0.19966412E+03</rscale>
<asrwt>0</asrwt>
<pdfrwt beam="1">  1       21 0.34063899E-01 0.19966412E+03</pdfrwt>
<pdfrwt beam="2">  1       21 0.31786463E-01 0.19966412E+03</pdfrwt>
<totfact> 0.78783851E+04</totfact>
</mgrwt>
</event>
<event>
 4    1  0.4025504E+000  0.2181452E+03  0.7546771E-02  0.1135274E+00
         21   -1    0    0  503  502  0.00000000000E+00  0.00000000000E+00  0.10775108889E+03  0.10775108889E+03  0.00000000000E+00 0. -1.
         21   -1    0    0  501  503 -0.00000000000E+00 -0.00000000000E+00 -0.44253192783E+03  0.44253192783E+03  0.00000000000E+00 0. -1.
          6    1    1    2  501    0  0.86455206107E+02  0.10091485465E+03 -0.15504578752E+03  0.26763128887E+03  0.17300000000E+03 0. -1.
         -6    1    1    2    0  502 -0.86455206107E+02 -0.10091485465E+03 -0.17973505142E+03  0.28265172786E+03  0.17300000000E+03 0. -1.
<mgrwt>
<rscale>  2 0.21814516E+03</rscale>
<asrwt>0</asrwt>
<pdfrwt beam="1">  1       21 0.16577090E-01 0.21814516E+03</pdfrwt>
<pdfrwt beam="2">  1       21 0.68081836E-01 0.21814516E+03</pdfrwt>
<totfact> 0.63619010E+04</totfact>
</mgrwt>
</event>
<event>
 4    1  0.4025504E+000  0.2610840E+03  0.7546771E-02  0.1106494E+00
         21   -1    0    0  503  502  0.00000000000E+00  0.00000000000E+00  0.67908513821E+02  0.67908513821E+02  0.00000000000E+00 0. -1.
         21   -1    0    0  501  503 -0.00000000000E+00 -0.00000000000E+00 -0.18483214310E+04  0.18483214310E+04  0.00000000000E+00 0. -1.
          6    1    1    2  501    0  0.74026618924E+02  0.18098598792E+03 -0.15378568675E+04  0.15598617289E+04  0.17300000000E+03 0. -1.
         -6    1    1    2    0  502 -0.74026618924E+02 -0.18098598792E+03 -0.24255604966E+03  0.35636821598E+03  0.17300000000E+03 0. -1.
<mgrwt>
<rscale>  2 0.26108403E+03</rscale>
<asrwt>0</asrwt>
<pdfrwt beam="1">  1       21 0.10447463E-01 0.26108403E+03</pdfrwt>
<pdfrwt beam="2">  1       21 0.28435715E+00 0.26108403E+03</pdfrwt>
<totfact> 0.29417404E+03</totfact>
</mgrwt>
</event>
<event>
 4    1  0.4025504E+000  0.1780942E+03  0.7546771E-02  0.1169660E+00
         21   -1    0    0  503  502  0.00000000000E+00  0.00000000000E+00  0.13071345146E+03  0.13071345146E+03  0.00000000000E+00 0. -1.
         21   -1    0    0  501  503 -0.00000000000E+00 -0.00000000000E+00 -0.35769041840E+03  0.35769041840E+03  0.00000000000E+00 0. -1.
          6    1    1    2  501    0  0.35270328361E+02 -0.23335475564E+02 -0.25197956520E+03  0.30856318925E+03  0.17300000000E+03 0. -1.
         -6    1    1    2    0  502 -0.35270328361E+02  0.23335475564E+02  0.25002598255E+02  0.17984068061E+03  0.17300000000E+03 0. -1.
<mgrwt>
<rscale>  2 0.17809419E+03</rscale>
<asrwt>0</asrwt>
<pdfrwt beam="1">  1       21 0.20109762E-01 0.17809419E+03</pdfrwt>
<pdfrwt beam="2">  1       21 0.55029295E-01 0.17809419E+03</pdfrwt>
<totfact> 0.71630661E+04</totfact>
</mgrwt>
</event>
<event>
 4    1  0.4025504E+000  0.1835847E+03  0.7546771E-02  0.1164378E+00
         21   -1    0    0  501  502  0.00000000000E+00  0.00000000000E+00  0.14141088420E+04  0.14141088420E+04  0.00000000000E+00 0.  1.
         21   -1    0    0  502  503 -0.00000000000E+00 -0.00000000000E+00 -0.25541714785E+02  0.25541714785E+02  0.00000000000E+00 0.  1.
          6    1    1    2  501    0 -0.42795433147E+02  0.44078429447E+02  0.88043049041E+03  0.89936711385E+03  0.17300000000E+03 0. -1.
         -6    1    1    2    0  503  0.42795433147E+02 -0.44078429447E+02  0.50813663681E+03  0.54028344293E+03  0.17300000000E+03 0. -1.
<mgrwt>
<rscale>  2 0.18358474E+03</rscale>
<asrwt>0</asrwt>
<pdfrwt beam="1">  1       21 0.21755515E+00 0.18358474E+03</pdfrwt>
<pdfrwt beam="2">  1       21 0.39294957E-02 0.18358474E+03</pdfrwt>
<totfact> 0.42317091E+04</totfact>
</mgrwt>
</event>
<event>
 4    1  0.4025504E+000  0.1947617E+03  0.7546771E-02  0.1154235E+00
         21   -1    0    0  503  502  0.00000000000E+00  0.00000000000E+00  0.23259217369E+03  0.23259217369E+03  0.00000000000E+00 0.  1.
         21   -1    0    0  501  503 -0.00000000000E+00 -0.00000000000E+00 -0.37441138416E+03  0.37441138416E+03  0.00000000000E+00 0.  1.
          6    1    1    2  501    0 -0.89311240534E+02  0.51591385192E+01 -0.29892510806E+03  0.35677490750E+03  0.17300000000E+03 0.  1.
         -6    1    1    2    0  502  0.89311240534E+02 -0.51591385192E+01  0.15710589760E+03  0.25022865035E+03  0.17300000000E+03 0.  1.
<mgrwt>
<rscale>  2 0.19476169E+03</rscale>
<asrwt>0</asrwt>
<pdfrwt beam="1">  1       21 0.35783412E-01 0.19476169E+03</pdfrwt>
<pdfrwt beam="2">  1       21 0.57601751E-01 0.19476169E+03</pdfrwt>
<totfact> 0.21267718E+04</totfact>
</mgrwt>
</event>
<event>
 4    1  0.4025504E+000  0.5023394E+03  0.7546771E-02  0.1013170E+00
         21   -1    0    0  503  502  0.00000000000E+00  0.00000000000E+00  0.14572606516E+03  0.14572606516E+03  0.00000000000E+00 0.  1.
         21   -1    0    0  501  503 -0.00000000000E+00 -0.00000000000E+00 -0.19055413893E+04  0.19055413893E+04  0.00000000000E+00 0. -1.
          6    1    1    2  501    0  0.40710197232E+03 -0.23808372660E+03 -0.57006843682E+03  0.75981767510E+03  0.17300000000E+03 0.  1.
         -6    1    1    2    0  502 -0.40710197232E+03  0.23808372660E+03 -0.11897468874E+04  0.12914497794E+04  0.17300000000E+03 0. -1.
<mgrwt>
<rscale>  2 0.50233940E+03</rscale>
<asrwt>0</asrwt>
<pdfrwt beam="1">  1       21 0.22419396E-01 0.50233940E+03</pdfrwt>
<pdfrwt beam="2">  1       21 0.29316019E+00 0.50233940E+03</pdfrwt>
<totfact> 0.54209828E+02</totfact>
</mgrwt>
</event>
<event>
 4    1  0.4025504E+000  0.2327901E+03  0.7546771E-02  0.1124691E+00
         21   -1    0    0  501  502  0.00000000000E+00  0.00000000000E+00  0.13165173540E+04  0.13165173540E+04  0.00000000000E+00 0.  1.
         21   -1    0    0  502  503 -0.00000000000E+00 -0.00000000000E+00 -0.66353486453E+02  0.66353486453E+02  0.00000000000E+00 0. -1.
          6    1    1    2  501    0  0.83115744482E+02  0.13173453070E+03  0.10511136110E+04  0.10765830376E+04  0.17300000000E+03 0.  1.
         -6    1    1    2    0  503 -0.83115744482E+02 -0.13173453070E+03  0.19905025654E+03  0.30628780287E+03  0.17300000000E+03 0. -1.
<mgrwt>
<rscale>  2 0.23279006E+03</rscale>
<asrwt>0</asrwt>
<pdfrwt beam="1">  1       21 0.20254111E+00 0.23279006E+03</pdfrwt>
<pdfrwt beam="2">  1       21 0.10208230E-01 0.23279006E+03</pdfrwt>
<totfact> 0.98010464E+03</totfact>
</mgrwt>
</event>
<event>
 4    1  0.4025504E+000  0.1788300E+03  0.7546771E-02  0.1168940E+00
         21   -1    0    0  503  502  0.00000000000E+00  0.00000000000E+00  0.65002750515E+03  0.65002750515E+03  0.00000000000E+00 0. -1.
         21   -1    0    0  501  503 -0.00000000000E+00 -0.00000000000E+00 -0.13401032198E+03  0.13401032198E+03  0.00000000000E+00 0. -1.
          6    1    1    2  501    0  0.45289627947E+02 -0.75643223554E-01 -0.53856644857E+02  0.18676373930E+03  0.17300000000E+03 0. -1.
         -6    1    1    2    0  502 -0.45289627947E+02  0.75643223554E-01  0.56987382803E+03  0.59727408783E+03  0.17300000000E+03 0. -1.
<mgrwt>
<rscale>  2 0.17882996E+03</rscale>
<asrwt>0</asrwt>
<pdfrwt beam="1">  1       21 0.10000423E+00 0.17882996E+03</pdfrwt>
<pdfrwt beam="2">  1       21 0.20616973E-01 0.17882996E+03</pdfrwt>
<totfact> 0.18059465E+04</totfact>
</mgrwt>
</event>
<event>
 4    1  0.4025504E+000  0.1812570E+03  0.7546771E-02  0.1166592E+00
         21   -1    0    0  503  502  0.00000000000E+00  0.00000000000E+00  0.61147475295E+02  0.61147475295E+02  0.00000000000E+00 0. -1.
         21   -1    0    0  501  503 -0.00000000000E+00 -0.00000000000E+00 -0.54035269203E+03  0.54035269203E+03  0.00000000000E+00 0. -1.
          6    1    1    2  501    0 -0.27741391599E+02 -0.46427492970E+02 -0.21697067475E+03  0.28271959715E+03  0.17300000000E+03 0. -1.
         -6    1    1    2    0  502  0.27741391599E+02  0.46427492970E+02 -0.26223454199E+03  0.31878057018E+03  0.17300000000E+03 0. -1.
<mgrwt>
<rscale>  2 0.18125699E+03</rscale>
<asrwt>0</asrwt>
<pdfrwt beam="1">  1       21 0.94073037E-02 0.18125699E+03</pdfrwt>
<pdfrwt beam="2">  1       21 0.83131185E-01 0.18125699E+03</pdfrwt>
<totfact> 0.11442074E+05</totfact>
</mgrwt>
</event>
<event>
 4    1  0.4025504E+000  0.2148460E+03  0.7546771E-02  0.1137785E+00
         21   -1    0    0  503  502  0.00000000000E+00  0.00000000000E+00  0.10245566005E+04  0.10245566005E+04  0.00000000000E+00 0.  1.
         21   -1    0    0  501  503 -0.00000000000E+00 -0.00000000000E+00 -0.46009017894E+02  0.46009017894E+02  0.00000000000E+00 0.  1.
          6    1    1    2  501    0  0.60294429396E+02  0.11222463284E+03  0.56645639081E+03  0.60583135370E+03  0.17300000000E+03 0.  1.
         -6    1    1    2    0  502 -0.60294429396E+02 -0.11222463284E+03  0.41209119183E+03  0.46473426473E+03  0.17300000000E+03 0.  1.
<mgrwt>
<rscale>  2 0.21484596E+03</rscale>
<asrwt>0</asrwt>
<pdfrwt beam="1">  1       21 0.15762408E+00 0.21484596E+03</pdfrwt>
<pdfrwt beam="2">  1       21 0.70783112E-02 0.21484596E+03</pdfrwt>
<totfact> 0.38369969E+04</totfact>
</mgrwt>
</event>
<event>
 4    1  0.4025504E+000  0.3282857E+03  0.7546771E-02  0.1071898E+00
         21   -1    0    0  501  502  0.00000000000E+00  0.00000000000E+00  0.22991544334E+03  0.22991544334E+03  0.00000000000E+00 0.  1.
         21   -1    0    0  502  503 -0.00000000000E+00 -0.00000000000E+00 -0.60826627349E+03  0.60826627349E+03  0.00000000000E+00 0. -1.
          6    1    1    2  501    0 -0.58745178870E+02 -0.27274803516E+03  0.11541085654E+02  0.32848848288E+03  0.17300000000E+03 0.  1.
         -6    1    1    2    0  503  0.58745178870E+02  0.27274803516E+03 -0.38989191581E+03  0.50969323395E+03  0.17300000000E+03 0. -1.
<mgrwt>
<rscale>  2 0.32828568E+03</rscale>
<asrwt>0</asrwt>
<pdfrwt beam="1">  1       21 0.35371607E-01 0.32828568E+03</pdfrwt>
<pdfrwt beam="2">  1       21 0.93579426E-01 0.32828568E+03</pdfrwt>
<totfact> 0.68362479E+03</totfact>
</mgrwt>
</event>
<event>
 4    1  0.4025504E+000  0.1834687E+03  0.7546771E-02  0.1164488E+00
         21   -1    0    0  501  502  0.00000000000E+00  0.00000000000E+00  0.87287611200E+03  0.87287611200E+03  0.00000000000E+00 0.  1.
         21   -1    0    0  502  503 -0.00000000000E+00 -0.00000000000E+00 -0.90243999413E+02  0.90243999413E+02  0.00000000000E+00 0.  1.
          6    1    1    2  501    0  0.26505857841E+01  0.61030680663E+02  0.75573966911E+03  0.77769095215E+03  0.17300000000E+03 0.  1.
         -6    1    1    2    0  503 -0.26505857841E+01 -0.61030680663E+02  0.26892443470E+02  0.18542915926E+03  0.17300000000E+03 0.  1.
<mgrwt>
<rscale>  2 0.18346872E+03</rscale>
<asrwt>0</asrwt>
<pdfrwt beam="1">  1       21 0.13428863E+00 0.18346872E+03</pdfrwt>
<pdfrwt beam="2">  1       21 0.13883693E-01 0.18346872E+03</pdfrwt>
<totfact> 0.18082740E+04</totfact>
</mgrwt>
</event>
<event>
 4    1  0.4025504E+000  0.1744651E+03  0.7546771E-02  0.1173270E+00
         21   -1    0    0  503  502  0.00000000000E+00  0.00000000000E+00  0.66294666082E+02  0.66294666082E+02  0.00000000000E+00 0.  1.
         21   -1    0    0  501  503 -0.00000000000E+00 -0.00000000000E+00 -0.45976539813E+03  0.45976539813E+03  0.00000000000E+00 0.  1.
          6    1    1    2  501    0 -0.20433714136E+02  0.95675522616E+01 -0.20648980739E+03  0.27032594268E+03  0.17300000000E+03 0.  1.
         -6    1    1    2    0  502  0.20433714136E+02 -0.95675522616E+01 -0.18698092465E+03  0.25573412153E+03  0.17300000000E+03 0.  1.
<mgrwt>
<rscale>  2 0.17446511E+03</rscale>
<asrwt>0</asrwt>
<pdfrwt beam="1">  1       21 0.10199179E-01 0.17446511E+03</pdfrwt>
<pdfrwt beam="2">  1       21 0.70733138E-01 0.17446511E+03</pdfrwt>
<totfact> 0.14279826E+05</totfact>
</mgrwt>
</event>
<event>
 4    1  0.4025504E+000  0.2049801E+03  0.7546771E-02  0.1145604E+00
         21   -1    0    0  503  502  0.00000000000E+00  0.00000000000E+00  0.54341290242E+03  0.54341290242E+03  0.00000000000E+00 0. -1.
         21   -1    0    0  501  503 -0.00000000000E+00 -0.00000000000E+00 -0.18019283426E+03  0.18019283426E+03  0.00000000000E+00 0. -1.
          6    1    1    2  501    0  0.99223106762E+02  0.47356108586E+02 -0.91761352121E+02  0.22458177058E+03  0.17300000000E+03 0. -1.
         -6    1    1    2    0  502 -0.99223106762E+02 -0.47356108586E+02  0.45498142028E+03  0.49902396610E+03  0.17300000000E+03 0. -1.
<mgrwt>
<rscale>  2 0.20498006E+03</rscale>
<asrwt>0</asrwt>
<pdfrwt beam="1">  1       21 0.83601984E-01 0.20498006E+03</pdfrwt>
<pdfrwt beam="2">  1       21 0.27721975E-01 0.20498006E+03</pdfrwt>
<totfact> 0.15336057E+04</totfact>
</mgrwt>
</event>
<event>
 4    1  0.4025504E+000  0.2151772E+03  0.7546771E-02  0.1137531E+00
         21   -1    0    0  501  502  0.00000000000E+00  0.00000000000E+00  0.51248375510E+02  0.51248375510E+02  0.00000000000E+00 0.  1.
         21   -1    0    0  502  503 -0.00000000000E+00 -0.00000000000E+00 -0.13931512818E+04  0.13931512818E+04  0.00000000000E+00 0.  1.
          6    1    1    2  501    0  0.54387580165E+02  0.11581974178E+03 -0.24278141165E+03  0.32441337104E+03  0.17300000000E+03 0.  1.
         -6    1    1    2    0  503 -0.54387580165E+02 -0.11581974178E+03 -0.10991214946E+04  0.11199862862E+04  0.17300000000E+03 0.  1.
<mgrwt>
<rscale>  2 0.21517719E+03</rscale>
<asrwt>0</asrwt>
<pdfrwt beam="1">  1       21 0.78843655E-02 0.21517719E+03</pdfrwt>
<pdfrwt beam="2">  1       21 0.21433096E+00 0.21517719E+03</pdfrwt>
<totfact> 0.13177009E+04</totfact>
</mgrwt>
</event>
<event>
 4    1  0.4025504E+000  0.2612328E+03  0.7546771E-02  0.1106405E+00
         21   -1    0    0  503  502  0.00000000000E+00  0.00000000000E+00  0.75492858800E+03  0.75492858800E+03  0.00000000000E+00 0. -1.
         21   -1    0    0  501  503 -0.00000000000E+00 -0.00000000000E+00 -0.90650017040E+02  0.90650017040E+02  0.00000000000E+00 0. -1.
          6    1    1    2  501    0  0.12834459617E+03  0.14778786425E+03  0.30976240704E+03  0.40521023802E+03  0.17300000000E+03 0. -1.
         -6    1    1    2    0  502 -0.12834459617E+03 -0.14778786425E+03  0.35451616392E+03  0.44036836701E+03  0.17300000000E+03 0. -1.
<mgrwt>
<rscale>  2 0.26123282E+03</rscale>
<asrwt>0</asrwt>
<pdfrwt beam="1">  1       21 0.11614286E+00 0.26123282E+03</pdfrwt>
<pdfrwt beam="2">  1       21 0.13946157E-01 0.26123282E+03</pdfrwt>
<totfact> 0.24691182E+04</totfact>
</mgrwt>
</event>
<event>
 4    1  0.4025504E+000  0.2351075E+03  0.7546771E-02  0.1123096E+00
         21   -1    0    0  503  502  0.00000000000E+00  0.00000000000E+00  0.53585700270E+03  0.53585700270E+03  0.00000000000E+00 0.  1.
         21   -1    0    0  501  503 -0.00000000000E+00 -0.00000000000E+00 -0.11282534381E+03  0.11282534381E+03  0.00000000000E+00 0.  1.
          6    1    1    2  501    0  0.12151942604E+02 -0.15874147746E+03  0.11655306605E+03  0.26241216356E+03  0.17300000000E+03 0.  1.
         -6    1    1    2    0  502 -0.12151942604E+02  0.15874147746E+03  0.30647859283E+03  0.38627018296E+03  0.17300000000E+03 0.  1.
<mgrwt>
<rscale>  2 0.23510748E+03</rscale>
<asrwt>0</asrwt>
<pdfrwt beam="1">  1       21 0.82439537E-01 0.23510748E+03</pdfrwt>
<pdfrwt beam="2">  1       21 0.17357746E-01 0.23510748E+03</pdfrwt>
<totfact> 0.37760640E+04</totfact>
</mgrwt>
</event>
<event>
 4    1  0.4025504E+000  0.2443646E+03  0.7546771E-02  0.1116919E+00
         21   -1    0    0  501  502  0.00000000000E+00  0.00000000000E+00  0.79038056805E+03  0.79038056805E+03  0.00000000000E+00 0. -1.
         21   -1    0    0  502  503 -0.00000000000E+00 -0.00000000000E+00 -0.10305009161E+03  0.10305009161E+03  0.00000000000E+00 0.  1.
          6    1    1    2  501    0 -0.12142681746E+03 -0.12264013574E+03  0.57442788602E+03  0.62424472055E+03  0.17300000000E+03 0. -1.
         -6    1    1    2    0  503  0.12142681746E+03  0.12264013574E+03  0.11290259042E+03  0.26918593911E+03  0.17300000000E+03 0.  1.
<mgrwt>
<rscale>  2 0.24436464E+03</rscale>
<asrwt>0</asrwt>
<pdfrwt beam="1">  1       21 0.12159701E+00 0.24436464E+03</pdfrwt>
<pdfrwt beam="2">  1       21 0.15853861E-01 0.24436464E+03</pdfrwt>
<totfact> 0.17565445E+04</totfact>
</mgrwt>
</event>
<event>
 4    1  0.4025504E+000  0.1930159E+03  0.7546771E-02  0.1155769E+00
         21   -1    0    0  501  502  0.00000000000E+00  0.00000000000E+00  0.46916472583E+02  0.46916472583E+02  0.00000000000E+00 0. -1.
         21   -1    0    0  502  503 -0.00000000000E+00 -0.00000000000E+00 -0.79417787290E+03  0.79417787290E+03  0.00000000000E+00 0. -1.
          6    1    1    2  501    0  0.21912099638E+02 -0.82740440545E+02 -0.36880612590E+03  0.41626083063E+03  0.17300000000E+03 0. -1.
         -6    1    1    2    0  503 -0.21912099638E+02  0.82740440545E+02 -0.37845527442E+03  0.42483351486E+03  0.17300000000E+03 0. -1.
<mgrwt>
<rscale>  2 0.19301586E+03</rscale>
<asrwt>0</asrwt>
<pdfrwt beam="1">  1       21 0.72179186E-02 0.19301586E+03</pdfrwt>
<pdfrwt beam="2">  1       21 0.12218122E+00 0.19301586E+03</pdfrwt>
<totfact> 0.72434652E+04</totfact>
</mgrwt>
</event>
<event>
 4    1  0.4025504E+000  0.1787653E+03  0.7546771E-02  0.1169003E+00
         21   -1    0    0  503  502  0.00000000000E+00  0.00000000000E+00  0.69743850209E+02  0.69743850209E+02  0.00000000000E+00 0.  1.
         21   -1    0    0  501  503 -0.00000000000E+00 -0.00000000000E+00 -0.10654838535E+04  0.10654838535E+04  0.00000000000E+00 0.  1.
          6    1    1    2  501    0 -0.20556748696E+02 -0.40068154383E+02 -0.92639221648E+03  0.94348268434E+03  0.17300000000E+03 0.  1.
         -6    1    1    2    0  502  0.20556748696E+02  0.40068154383E+02 -0.69347786807E+02  0.19174501936E+03  0.17300000000E+03 0.  1.
<mgrwt>
<rscale>  2 0.17876531E+03</rscale>
<asrwt>0</asrwt>
<pdfrwt beam="1">  1       21 0.10729824E-01 0.17876531E+03</pdfrwt>
<pdfrwt beam="2">  1       21 0.16392058E+00 0.17876531E+03</pdfrwt>
<totfact> 0.17055216E+04</totfact>
</mgrwt>
</event>
<event>
 4    1  0.4025504E+000  0.1802818E+03  0.7546771E-02  0.1167531E+00
         21   -1    0    0  503  502  0.00000000000E+00  0.00000000000E+00  0.25331306419E+02  0.25331306419E+02  0.00000000000E+00 0. -1.
         21   -1    0    0  501  503 -0.00000000000E+00 -0.00000000000E+00 -0.13272162502E+04  0.13272162502E+04  0.00000000000E+00 0. -1.
          6    1    1    2  501    0 -0.19571222804E+01  0.50682298624E+02 -0.77429825102E+03  0.79500899822E+03  0.17300000000E+03 0. -1.
         -6    1    1    2    0  502  0.19571222804E+01 -0.50682298624E+02 -0.52758669276E+03  0.55753855839E+03  0.17300000000E+03 0. -1.
<mgrwt>
<rscale>  2 0.18028180E+03</rscale>
<asrwt>0</asrwt>
<pdfrwt beam="1">  1       21 0.38971246E-02 0.18028180E+03</pdfrwt>
<pdfrwt beam="2">  1       21 0.20418709E+00 0.18028180E+03</pdfrwt>
<totfact> 0.52107121E+04</totfact>
</mgrwt>
</event>
<event>
 4    1  0.4025504E+000  0.2206259E+03  0.7546771E-02  0.1133417E+00
         21   -1    0    0  501  502  0.00000000000E+00  0.00000000000E+00  0.29227383096E+02  0.29227383096E+02  0.00000000000E+00 0.  1.
         21   -1    0    0  502  503 -0.00000000000E+00 -0.00000000000E+00 -0.19020311570E+04  0.19020311570E+04  0.00000000000E+00 0.  1.
          6    1    1    2  501    0  0.13674313389E+03 -0.69360378075E+01 -0.12769837956E+04  0.12959025455E+04  0.17300000000E+03 0.  1.
         -6    1    1    2    0  503 -0.13674313389E+03  0.69360378075E+01 -0.59581997830E+03  0.63535599456E+03  0.17300000000E+03 0.  1.
<mgrwt>
<rscale>  2 0.22062591E+03</rscale>
<asrwt>0</asrwt>
<pdfrwt beam="1">  1       21 0.44965209E-02 0.22062591E+03</pdfrwt>
<pdfrwt beam="2">  1       21 0.29262015E+00 0.22062591E+03</pdfrwt>
<totfact> 0.11786088E+04</totfact>
</mgrwt>
</event>
<event>
 4    1  0.4025504E+000  0.1918105E+03  0.7546771E-02  0.1156838E+00
         21   -1    0    0  501  502  0.00000000000E+00  0.00000000000E+00  0.77781065079E+02  0.77781065079E+02  0.00000000000E+00 0. -1.
         21   -1    0    0  502  503 -0.00000000000E+00 -0.00000000000E+00 -0.55634932017E+03  0.55634932017E+03  0.00000000000E+00 0. -1.
          6    1    1    2  501    0 -0.38047742003E+02 -0.73584307860E+02 -0.11656909342E+03  0.22445408122E+03  0.17300000000E+03 0. -1.
         -6    1    1    2    0  503  0.38047742003E+02  0.73584307860E+02 -0.36199916167E+03  0.40967630403E+03  0.17300000000E+03 0. -1.
<mgrwt>
<rscale>  2 0.19181053E+03</rscale>
<asrwt>0</asrwt>
<pdfrwt beam="1">  1       21 0.11966318E-01 0.19181053E+03</pdfrwt>
<pdfrwt beam="2">  1       21 0.85592200E-01 0.19181053E+03</pdfrwt>
<totfact> 0.69585128E+04</totfact>
</mgrwt>
</event>
<event>
 4    1  0.4025504E+000  0.2082557E+03  0.7546771E-02  0.1142955E+00
         21   -1    0    0  501  502  0.00000000000E+00  0.00000000000E+00  0.26021997890E+03  0.26021997890E+03  0.00000000000E+00 0. -1.
         21   -1    0    0  502  503 -0.00000000000E+00 -0.00000000000E+00 -0.16679654115E+03  0.16679654115E+03  0.00000000000E+00 0.  1.
          6    1    1    2  501    0 -0.10069673815E+03 -0.57459432166E+02  0.52632083676E+02  0.21480352802E+03  0.17300000000E+03 0.  1.
         -6    1    1    2    0  503  0.10069673815E+03  0.57459432166E+02  0.40791354075E+02  0.21221299203E+03  0.17300000000E+03 0. -1.
<mgrwt>
<rscale>  2 0.20825566E+03</rscale>
<asrwt>0</asrwt>
<pdfrwt beam="1">  1       21 0.40033843E-01 0.20825566E+03</pdfrwt>
<pdfrwt beam="2">  1       21 0.25661006E-01 0.20825566E+03</pdfrwt>
<totfact> 0.86084302E+04</totfact>
</mgrwt>
</event>
<event>
 4    1  0.4025504E+000  0.1756202E+03  0.7546771E-02  0.1172110E+00
         21   -1    0    0  503  502  0.00000000000E+00  0.00000000000E+00  0.36337534063E+03  0.36337534063E+03  0.00000000000E+00 0.  1.
         21   -1    0    0  501  503 -0.00000000000E+00 -0.00000000000E+00 -0.91251116841E+02  0.91251116841E+02  0.00000000000E+00 0.  1.
          6    1    1    2  501    0  0.20359367404E+02 -0.22337093749E+02  0.75987212974E+02  0.19135439931E+03  0.17300000000E+03 0.  1.
         -6    1    1    2    0  502 -0.20359367404E+02  0.22337093749E+02  0.19613701081E+03  0.26327205816E+03  0.17300000000E+03 0.  1.
<mgrwt>
<rscale>  2 0.17562019E+03</rscale>
<asrwt>0</asrwt>
<pdfrwt beam="1">  1       21 0.55903898E-01 0.17562019E+03</pdfrwt>
<pdfrwt beam="2">  1       21 0.14038634E-01 0.17562019E+03</pdfrwt>
<totfact> 0.13410393E+05</totfact>
</mgrwt>
</event>
<event>
 4    1  0.4025504E+000  0.1926259E+03  0.7546771E-02  0.1156114E+00
         21   -1    0    0  501  502  0.00000000000E+00  0.00000000000E+00  0.91850396951E+02  0.91850396951E+02  0.00000000000E+00 0.  1.
         21   -1    0    0  502  503 -0.00000000000E+00 -0.00000000000E+00 -0.44564407056E+03  0.44564407056E+03  0.00000000000E+00 0.  1.
          6    1    1    2  501    0  0.27372051064E+02  0.80165465504E+02 -0.94712872708E+02  0.21465148333E+03  0.17300000000E+03 0.  1.
         -6    1    1    2    0  503 -0.27372051064E+02 -0.80165465504E+02 -0.25908080090E+03  0.32284298418E+03  0.17300000000E+03 0.  1.
<mgrwt>
<rscale>  2 0.19262588E+03</rscale>
<asrwt>0</asrwt>
<pdfrwt beam="1">  1       21 0.14130831E-01 0.19262588E+03</pdfrwt>
<pdfrwt beam="2">  1       21 0.68560625E-01 0.19262588E+03</pdfrwt>
<totfact> 0.84807661E+04</totfact>
</mgrwt>
</event>
<event>
 4    1  0.4025504E+000  0.1762825E+03  0.7546771E-02  0.1171450E+00
         21   -1    0    0  501  502  0.00000000000E+00  0.00000000000E+00  0.34448156186E+03  0.34448156186E+03  0.00000000000E+00 0. -1.
         21   -1    0    0  502  503 -0.00000000000E+00 -0.00000000000E+00 -0.14214458146E+03  0.14214458146E+03  0.00000000000E+00 0. -1.
          6    1    1    2  501    0  0.23570007723E+02 -0.24310178447E+02  0.24824064167E+03  0.30446501641E+03  0.17300000000E+03 0. -1.
         -6    1    1    2    0  503 -0.23570007723E+02  0.24310178447E+02 -0.45903661271E+02  0.18216112691E+03  0.17300000000E+03 0. -1.
<mgrwt>
<rscale>  2 0.17628253E+03</rscale>
<asrwt>0</asrwt>
<pdfrwt beam="1">  1       21 0.52997163E-01 0.17628253E+03</pdfrwt>
<pdfrwt beam="2">  1       21 0.21868397E-01 0.17628253E+03</pdfrwt>
<totfact> 0.66324507E+04</totfact>
</mgrwt>
</event>
<event>
 4    1  0.4025504E+000  0.2856964E+03  0.7546771E-02  0.1092618E+00
         21   -1    0    0  503  502  0.00000000000E+00  0.00000000000E+00  0.80132840824E+03  0.80132840824E+03  0.00000000000E+00 0. -1.
         21   -1    0    0  501  503 -0.00000000000E+00 -0.00000000000E+00 -0.11981872078E+03  0.11981872078E+03  0.00000000000E+00 0. -1.
          6    1    1    2  501    0 -0.25958849880E+02 -0.22587514307E+03  0.16244000425E+03  0.32864752719E+03  0.17300000000E+03 0. -1.
         -6    1    1    2    0  502  0.25958849880E+02  0.22587514307E+03  0.51906968321E+03  0.59249960183E+03  0.17300000000E+03 0. -1.
<mgrwt>
<rscale>  2 0.28569642E+03</rscale>
<asrwt>0</asrwt>
<pdfrwt beam="1">  1       21 0.12328129E+00 0.28569642E+03</pdfrwt>
<pdfrwt beam="2">  1       21 0.18433650E-01 0.28569642E+03</pdfrwt>
<totfact> 0.12561904E+04</totfact>
</mgrwt>
</event>
<event>
 4    1  0.4025504E+000  0.1923065E+03  0.7546771E-02  0.1156397E+00
         21   -1    0    0  501  502  0.00000000000E+00  0.00000000000E+00  0.65202204773E+02  0.65202204773E+02  0.00000000000E+00 0. -1.
         21   -1    0    0  502  503 -0.00000000000E+00 -0.00000000000E+00 -0.94264687040E+03  0.94264687040E+03  0.00000000000E+00 0. -1.
          6    1    1    2  501    0 -0.68179791013E+02 -0.49033662421E+02 -0.75675613175E+03  0.78080831636E+03  0.17300000000E+03 0. -1.
         -6    1    1    2    0  503  0.68179791013E+02  0.49033662421E+02 -0.12068853387E+03  0.22704075881E+03  0.17300000000E+03 0. -1.
<mgrwt>
<rscale>  2 0.19230648E+03</rscale>
<asrwt>0</asrwt>
<pdfrwt beam="1">  1       21 0.10031109E-01 0.19230648E+03</pdfrwt>
<pdfrwt beam="2">  1       21 0.14502258E+00 0.19230648E+03</pdfrwt>
<totfact> 0.26358469E+04</totfact>
</mgrwt>
</event>
<event>
 4    1  0.4025504E+000  0.1901932E+03  0.7546771E-02  0.1158287E+00
         21   -1    0    0  501  502  0.00000000000E+00  0.00000000000E+00  0.38462283882E+03  0.38462283882E+03  0.00000000000E+00 0. -1.
         21   -1    0    0  502  503 -0.00000000000E+00 -0.00000000000E+00 -0.94215595344E+02  0.94215595344E+02  0.00000000000E+00 0. -1.
          6    1    1    2  501    0  0.27162911185E+02  0.74206622985E+02  0.15526710750E+03  0.24552254746E+03  0.17300000000E+03 0.  1.
         -6    1    1    2    0  503 -0.27162911185E+02 -0.74206622985E+02  0.13514013598E+03  0.23331588671E+03  0.17300000000E+03 0.  1.
<mgrwt>
<rscale>  2 0.19019318E+03</rscale>
<asrwt>0</asrwt>
<pdfrwt beam="1">  1       21 0.59172743E-01 0.19019318E+03</pdfrwt>
<pdfrwt beam="2">  1       21 0.14494707E-01 0.19019318E+03</pdfrwt>
<totfact> 0.11155737E+05</totfact>
</mgrwt>
</event>
<event>
 4    1  0.4025504E+000  0.1970519E+03  0.7546771E-02  0.1152250E+00
         21   -1    0    0  501  502  0.00000000000E+00  0.00000000000E+00  0.50306028538E+03  0.50306028538E+03  0.00000000000E+00 0. -1.
         21   -1    0    0  502  503 -0.00000000000E+00 -0.00000000000E+00 -0.10907013758E+03  0.10907013758E+03  0.00000000000E+00 0. -1.
          6    1    1    2  501    0 -0.93830080359E+02  0.98156923433E+01  0.36247502692E+03  0.41257432899E+03  0.17300000000E+03 0. -1.
         -6    1    1    2    0  503  0.93830080359E+02 -0.98156923433E+01  0.31515120877E+02  0.19955609397E+03  0.17300000000E+03 0. -1.
<mgrwt>
<rscale>  2 0.19705185E+03</rscale>
<asrwt>0</asrwt>
<pdfrwt beam="1">  1       21 0.77393888E-01 0.19705185E+03</pdfrwt>
<pdfrwt beam="2">  1       21 0.16780022E-01 0.19705185E+03</pdfrwt>
<totfact> 0.47247145E+04</totfact>
</mgrwt>
</event>
<event>
 4    1  0.4025504E+000  0.1886678E+03  0.7546771E-02  0.1159668E+00
         21   -1    0    0  503  502  0.00000000000E+00  0.00000000000E+00  0.64125358039E+02  0.64125358039E+02  0.00000000000E+00 0. -1.
         21   -1    0    0  501  503 -0.00000000000E+00 -0.00000000000E+00 -0.55518175186E+03  0.55518175186E+03  0.00000000000E+00 0.  1.
          6    1    1    2  501    0 -0.26673951749E+02  0.70392064247E+02 -0.24161479196E+03  0.30655056696E+03  0.17300000000E+03 0.  1.
         -6    1    1    2    0  502  0.26673951749E+02 -0.70392064247E+02 -0.24944160187E+03  0.31275654294E+03  0.17300000000E+03 0.  1.
<mgrwt>
<rscale>  2 0.18866781E+03</rscale>
<asrwt>0</asrwt>
<pdfrwt beam="1">  1       21 0.98654395E-02 0.18866781E+03</pdfrwt>
<pdfrwt beam="2">  1       21 0.85412579E-01 0.18866781E+03</pdfrwt>
<totfact> 0.98646488E+04</totfact>
</mgrwt>
</event>
<event>
 4    1  0.4025504E+000  0.3170300E+03  0.7546771E-02  0.1077024E+00
         21   -1    0    0  501  502  0.00000000000E+00  0.00000000000E+00  0.14974663484E+03  0.14974663484E+03  0.00000000000E+00 0.  1.
         21   -1    0    0  502  503 -0.00000000000E+00 -0.00000000000E+00 -0.12283127504E+04  0.12283127504E+04  0.00000000000E+00 0.  1.
          6    1    1    2  501    0 -0.26141340277E+03 -0.47350139319E+02 -0.75238106403E+02  0.32583550374E+03  0.17300000000E+03 0.  1.
         -6    1    1    2    0  503  0.26141340277E+03  0.47350139319E+02 -0.10033280092E+04  0.10522238815E+04  0.17300000000E+03 0.  1.
<mgrwt>
<rscale>  2 0.31702997E+03</rscale>
<asrwt>0</asrwt>
<pdfrwt beam="1">  1       21 0.23037943E-01 0.31702997E+03</pdfrwt>
<pdfrwt beam="2">  1       21 0.18897120E+00 0.31702997E+03</pdfrwt>
<totfact> 0.25472660E+03</totfact>
</mgrwt>
</event>
<event>
 4    1  0.4025504E+000  0.2146017E+03  0.7546771E-02  0.1137973E+00
         21   -1    0    0  503  502  0.00000000000E+00  0.00000000000E+00  0.48409217863E+02  0.48409217863E+02  0.00000000000E+00 0.  1.
         21   -1    0    0  501  503 -0.00000000000E+00 -0.00000000000E+00 -0.95831355711E+03  0.95831355711E+03  0.00000000000E+00 0. -1.
          6    1    1    2  501    0  0.10726397707E+03  0.67965742869E+02 -0.41203069954E+03  0.46456775647E+03  0.17300000000E+03 0.  1.
         -6    1    1    2    0  502 -0.10726397707E+03 -0.67965742869E+02 -0.49787363971E+03  0.54215501851E+03  0.17300000000E+03 0.  1.
<mgrwt>
<rscale>  2 0.21460173E+03</rscale>
<asrwt>0</asrwt>
<pdfrwt beam="1">  1       21 0.74475718E-02 0.21460173E+03</pdfrwt>
<pdfrwt beam="2">  1       21 0.14743286E+00 0.21460173E+03</pdfrwt>
<totfact> 0.41967771E+04</totfact>
</mgrwt>
</event>
<event>
 4    1  0.4025504E+000  0.2221886E+03  0.7546771E-02  0.1132262E+00
         21   -1    0    0  503  502  0.00000000000E+00  0.00000000000E+00  0.15922989788E+03  0.15922989788E+03  0.00000000000E+00 0.  1.
         21   -1    0    0  501  503 -0.00000000000E+00 -0.00000000000E+00 -0.74273639833E+03  0.74273639833E+03  0.00000000000E+00 0.  1.
          6    1    1    2  501    0 -0.55493309952E+02 -0.12790337472E+03  0.52465203280E+02  0.22829887926E+03  0.17300000000E+03 0.  1.
         -6    1    1    2    0  502  0.55493309952E+02  0.12790337472E+03 -0.63597170373E+03  0.67366741695E+03  0.17300000000E+03 0.  1.
<mgrwt>
<rscale>  2 0.22218862E+03</rscale>
<asrwt>0</asrwt>
<pdfrwt beam="1">  1       21 0.24496907E-01 0.22218862E+03</pdfrwt>
<pdfrwt beam="2">  1       21 0.11426714E+00 0.22218862E+03</pdfrwt>
<totfact> 0.91841147E+03</totfact>
</mgrwt>
</event>
<event>
 4    1  0.4025504E+000  0.1733250E+03  0.7546771E-02  0.1174424E+00
         21   -1    0    0  501  502  0.00000000000E+00  0.00000000000E+00  0.23467803431E+03  0.23467803431E+03  0.00000000000E+00 0.  1.
         21   -1    0    0  502  503 -0.00000000000E+00 -0.00000000000E+00 -0.17101954916E+03  0.17101954916E+03  0.00000000000E+00 0.  1.
          6    1    1    2  501    0 -0.68822958972E+01 -0.80729517567E+01  0.13355321545E+03  0.21881042001E+03  0.17300000000E+03 0.  1.
         -6    1    1    2    0  503  0.68822958972E+01  0.80729517567E+01 -0.69894730295E+02  0.18688716347E+03  0.17300000000E+03 0.  1.
<mgrwt>
<rscale>  2 0.17332495E+03</rscale>
<asrwt>0</asrwt>
<pdfrwt beam="1">  1       21 0.36104313E-01 0.17332495E+03</pdfrwt>
<pdfrwt beam="2">  1       21 0.26310700E-01 0.17332495E+03</pdfrwt>
<totfact> 0.10235754E+05</totfact>
</mgrwt>
</event>
<event>
 4    1  0.4025504E+000  0.2798217E+03  0.7546771E-02  0.1095786E+00
         21   -1    0    0  501  502  0.00000000000E+00  0.00000000000E+00  0.80655050000E+03  0.80655050000E+03  0.00000000000E+00 0. -1.
         21   -1    0    0  502  503 -0.00000000000E+00 -0.00000000000E+00 -0.10302203909E+03  0.10302203909E+03  0.00000000000E+00 0.  1.
          6    1    1    2  501    0  0.14110360036E+03  0.16870378367E+03  0.46098312753E+03  0.53926397666E+03  0.17300000000E+03 0.  1.
         -6    1    1    2    0  503 -0.14110360036E+03 -0.16870378367E+03  0.24254533339E+03  0.37030856243E+03  0.17300000000E+03 0.  1.
<mgrwt>
<rscale>  2 0.27982172E+03</rscale>
<asrwt>0</asrwt>
<pdfrwt beam="1">  1       21 0.12408469E+00 0.27982172E+03</pdfrwt>
<pdfrwt beam="2">  1       21 0.15849545E-01 0.27982172E+03</pdfrwt>
<totfact> 0.16403891E+04</totfact>
</mgrwt>
</event>
<event>
 4    1  0.4025504E+000  0.1980755E+03  0.7546771E-02  0.1151373E+00
         21   -1    0    0  503  502  0.00000000000E+00  0.00000000000E+00  0.42821208203E+03  0.42821208203E+03  0.00000000000E+00 0. -1.
         21   -1    0    0  501  503 -0.00000000000E+00 -0.00000000000E+00 -0.11616876768E+03  0.11616876768E+03  0.00000000000E+00 0. -1.
          6    1    1    2  501    0  0.52971125786E+02 -0.80616244792E+02  0.30903685531E+02  0.20047183561E+03  0.17300000000E+03 0. -1.
         -6    1    1    2    0  502 -0.52971125786E+02  0.80616244792E+02  0.28113962882E+03  0.34390901411E+03  0.17300000000E+03 0. -1.
<mgrwt>
<rscale>  2 0.19807554E+03</rscale>
<asrwt>0</asrwt>
<pdfrwt beam="1">  1       21 0.65878781E-01 0.19807554E+03</pdfrwt>
<pdfrwt beam="2">  1       21 0.17872118E-01 0.19807554E+03</pdfrwt>
<totfact> 0.60061341E+04</totfact>
</mgrwt>
</event>
<event>
 4    1  0.4025504E+000  0.1751615E+03  0.7546771E-02  0.1172570E+00
         21   -1    0    0  501  502  0.00000000000E+00  0.00000000000E+00  0.36576253764E+04  0.36576253764E+04  0.00000000000E+00 0. -1.
         21   -1    0    0  502  503 -0.00000000000E+00 -0.00000000000E+00 -0.90589608290E+01  0.90589608290E+01  0.00000000000E+00 0. -1.
          6    1    1    2  501    0 -0.32786182656E+01  0.27236205074E+02  0.23230863007E+04  0.23296805619E+04  0.17300000000E+03 0. -1.
         -6    1    1    2    0  503  0.32786182656E+01 -0.27236205074E+02  0.13254801148E+04  0.13370037753E+04  0.17300000000E+03 0. -1.
<mgrwt>
<rscale>  2 0.17516153E+03</rscale>
<asrwt>0</asrwt>
<pdfrwt beam="1">  1       21 0.56271042E+00 0.17516153E+03</pdfrwt>
<pdfrwt beam="2">  1       21 0.13936892E-02 0.17516153E+03</pdfrwt>
<totfact> 0.14972867E+03</totfact>
</mgrwt>
</event>
<event>
 4    1  0.4025504E+000  0.2121562E+03  0.7546771E-02  0.1139870E+00
         21   -1    0    0  501  502  0.00000000000E+00  0.00000000000E+00  0.61359018940E+03  0.61359018940E+03  0.00000000000E+00 0.  1.
         21   -1    0    0  502  503 -0.00000000000E+00 -0.00000000000E+00 -0.54647357910E+03  0.54647357910E+03  0.00000000000E+00 0.  1.
          6    1    1    2  501    0 -0.10495734930E+03 -0.63758872528E+02  0.57325783117E+03  0.61125672184E+03  0.17300000000E+03 0.  1.
         -6    1    1    2    0  503  0.10495734930E+03  0.63758872528E+02 -0.50614122087E+03  0.54880704666E+03  0.17300000000E+03 0.  1.
<mgrwt>
<rscale>  2 0.21215617E+03</rscale>
<asrwt>0</asrwt>
<pdfrwt beam="1">  1       21 0.94398491E-01 0.21215617E+03</pdfrwt>
<pdfrwt beam="2">  1       21 0.84072858E-01 0.21215617E+03</pdfrwt>
<totfact> 0.11337440E+03</totfact>
</mgrwt>
</event>
<event>
 4    1  0.4025504E+000  0.1757018E+03  0.7546771E-02  0.1172029E+00
         21   -1    0    0  501  502  0.00000000000E+00  0.00000000000E+00  0.15085413715E+03  0.15085413715E+03  0.00000000000E+00 0. -1.
         21   -1    0    0  502  503 -0.00000000000E+00 -0.00000000000E+00 -0.24611098736E+03  0.24611098736E+03  0.00000000000E+00 0. -1.
          6    1    1    2  501    0 -0.27924715200E+02  0.12740979682E+02  0.33845292231E+02  0.17893190350E+03  0.17300000000E+03 0. -1.
         -6    1    1    2    0  503  0.27924715200E+02 -0.12740979682E+02 -0.12910214244E+03  0.21803322101E+03  0.17300000000E+03 0. -1.
<mgrwt>
<rscale>  2 0.17570180E+03</rscale>
<asrwt>0</asrwt>
<pdfrwt beam="1">  1       21 0.23208329E-01 0.17570180E+03</pdfrwt>
<pdfrwt beam="2">  1       21 0.37863228E-01 0.17570180E+03</pdfrwt>
<totfact> 0.11808462E+05</totfact>
</mgrwt>
</event>
<event>
 4    1  0.4025504E+000  0.2768005E+03  0.7546771E-02  0.1097449E+00
         21   -1    0    0  503  502  0.00000000000E+00  0.00000000000E+00  0.93669568235E+03  0.93669568235E+03  0.00000000000E+00 0. -1.
         21   -1    0    0  501  503 -0.00000000000E+00 -0.00000000000E+00 -0.18282543355E+03  0.18282543355E+03  0.00000000000E+00 0.  1.
          6    1    1    2  501    0 -0.16939828100E+02 -0.21541249151E+03 -0.39173492577E+02  0.27955869115E+03  0.17300000000E+03 0.  1.
         -6    1    1    2    0  502  0.16939828100E+02  0.21541249151E+03  0.79304374137E+03  0.83996242475E+03  0.17300000000E+03 0. -1.
<mgrwt>
<rscale>  2 0.27680047E+03</rscale>
<asrwt>0</asrwt>
<pdfrwt beam="1">  1       21 0.14410703E+00 0.27680047E+03</pdfrwt>
<pdfrwt beam="2">  1       21 0.28126990E-01 0.27680047E+03</pdfrwt>
<totfact> 0.37679001E+03</totfact>
</mgrwt>
</event>
<event>
 4    1  0.4025504E+000  0.1787722E+03  0.7546771E-02  0.1168997E+00
         21   -1    0    0  501  502  0.00000000000E+00  0.00000000000E+00  0.68680853140E+02  0.68680853140E+02  0.00000000000E+00 0. -1.
         21   -1    0    0  502  503 -0.00000000000E+00 -0.00000000000E+00 -0.52317896206E+03  0.52317896206E+03  0.00000000000E+00 0. -1.
          6    1    1    2  501    0  0.80458286827E+01  0.44337080075E+02 -0.12884844023E+03  0.22036658680E+03  0.17300000000E+03 0. -1.
         -6    1    1    2    0  503 -0.80458286827E+01 -0.44337080075E+02 -0.32564966869E+03  0.37149322840E+03  0.17300000000E+03 0. -1.
<mgrwt>
<rscale>  2 0.17877224E+03</rscale>
<asrwt>0</asrwt>
<pdfrwt beam="1">  1       21 0.10566285E-01 0.17877224E+03</pdfrwt>
<pdfrwt beam="2">  1       21 0.80489070E-01 0.17877224E+03</pdfrwt>
<totfact> 0.10039950E+05</totfact>
</mgrwt>
</event>
<event>
 4    1  0.4025504E+000  0.2341856E+03  0.7546771E-02  0.1123728E+00
         21   -1    0    0  503  502  0.00000000000E+00  0.00000000000E+00  0.66513374455E+02  0.66513374455E+02  0.00000000000E+00 0.  1.
         21   -1    0    0  501  503 -0.00000000000E+00 -0.00000000000E+00 -0.90008081042E+03  0.90008081042E+03  0.00000000000E+00 0. -1.
          6    1    1    2  501    0  0.11261892998E+03  0.11059323373E+03 -0.55679610398E+03  0.60404038618E+03  0.17300000000E+03 0. -1.
         -6    1    1    2    0  502 -0.11261892998E+03 -0.11059323373E+03 -0.27677133199E+03  0.36255379869E+03  0.17300000000E+03 0.  1.
<mgrwt>
<rscale>  2 0.23418558E+03</rscale>
<asrwt>0</asrwt>
<pdfrwt beam="1">  1       21 0.10232827E-01 0.23418558E+03</pdfrwt>
<pdfrwt beam="2">  1       21 0.13847396E+00 0.23418558E+03</pdfrwt>
<totfact> 0.27991011E+04</totfact>
</mgrwt>
</event>
<event>
 4    1  0.4025504E+000  0.2137696E+03  0.7546771E-02  0.1138615E+00
         21   -1    0    0  501  502  0.00000000000E+00  0.00000000000E+00  0.33480265792E+03  0.33480265792E+03  0.00000000000E+00 0. -1.
         21   -1    0    0  502  503 -0.00000000000E+00 -0.00000000000E+00 -0.17010260704E+03  0.17010260704E+03  0.00000000000E+00 0. -1.
          6    1    1    2  501    0 -0.12461585175E+03 -0.15470715843E+02  0.19457019239E+03  0.28905884059E+03  0.17300000000E+03 0. -1.
         -6    1    1    2    0  503  0.12461585175E+03  0.15470715843E+02 -0.29870141508E+02  0.21584642436E+03  0.17300000000E+03 0. -1.
<mgrwt>
<rscale>  2 0.21376963E+03</rscale>
<asrwt>0</asrwt>
<pdfrwt beam="1">  1       21 0.51508101E-01 0.21376963E+03</pdfrwt>
<pdfrwt beam="2">  1       21 0.26169632E-01 0.21376963E+03</pdfrwt>
<totfact> 0.49192103E+04</totfact>
</mgrwt>
</event>
<event>
 4    1  0.4025504E+000  0.2386059E+03  0.7546771E-02  0.1120725E+00
         21   -1    0    0  503  502  0.00000000000E+00  0.00000000000E+00  0.63522314178E+02  0.63522314178E+02  0.00000000000E+00 0. -1.
         21   -1    0    0  501  503 -0.00000000000E+00 -0.00000000000E+00 -0.91281202767E+03  0.91281202767E+03  0.00000000000E+00 0.  1.
          6    1    1    2  501    0  0.14080005025E+03 -0.84729788246E+02 -0.49037207839E+03  0.54534169695E+03  0.17300000000E+03 0. -1.
         -6    1    1    2    0  502 -0.14080005025E+03  0.84729788246E+02 -0.35891763510E+03  0.43099264489E+03  0.17300000000E+03 0. -1.
<mgrwt>
<rscale>  2 0.23860593E+03</rscale>
<asrwt>0</asrwt>
<pdfrwt beam="1">  1       21 0.97726648E-02 0.23860593E+03</pdfrwt>
<pdfrwt beam="2">  1       21 0.14043260E+00 0.23860593E+03</pdfrwt>
<totfact> 0.29215955E+04</totfact>
</mgrwt>
</event>
<event>
 4    1  0.4025504E+000  0.1803341E+03  0.7546771E-02  0.1167480E+00
         21   -1    0    0  501  502  0.00000000000E+00  0.00000000000E+00  0.34399024532E+03  0.34399024532E+03  0.00000000000E+00 0.  1.
         21   -1    0    0  502  503 -0.00000000000E+00 -0.00000000000E+00 -0.10463490386E+03  0.10463490386E+03  0.00000000000E+00 0.  1.
          6    1    1    2  501    0 -0.36571708985E+02 -0.35410332692E+02  0.18935555443E+03  0.26148787267E+03  0.17300000000E+03 0.  1.
         -6    1    1    2    0  503  0.36571708985E+02  0.35410332692E+02  0.49999787033E+02  0.18713727652E+03  0.17300000000E+03 0.  1.
<mgrwt>
<rscale>  2 0.18033408E+03</rscale>
<asrwt>0</asrwt>
<pdfrwt beam="1">  1       21 0.52921575E-01 0.18033408E+03</pdfrwt>
<pdfrwt beam="2">  1       21 0.16097678E-01 0.18033408E+03</pdfrwt>
<totfact> 0.11717590E+05</totfact>
</mgrwt>
</event>
<event>
 4    1  0.4025504E+000  0.1755267E+03  0.7546771E-02  0.1172204E+00
         21   -1    0    0  503  502  0.00000000000E+00  0.00000000000E+00  0.37140313815E+02  0.37140313815E+02  0.00000000000E+00 0.  1.
         21   -1    0    0  501  503 -0.00000000000E+00 -0.00000000000E+00 -0.23115132629E+04  0.23115132629E+04  0.00000000000E+00 0.  1.
          6    1    1    2  501    0  0.29527939193E+02 -0.29524171292E+01 -0.20774725620E+04  0.20848745435E+04  0.17300000000E+03 0.  1.
         -6    1    1    2    0  502 -0.29527939193E+02  0.29524171292E+01 -0.19690038701E+03  0.26377903322E+03  0.17300000000E+03 0.  1.
<mgrwt>
<rscale>  2 0.17552668E+03</rscale>
<asrwt>0</asrwt>
<pdfrwt beam="1">  1       21 0.57138934E-02 0.17552668E+03</pdfrwt>
<pdfrwt beam="2">  1       21 0.35561749E+00 0.17552668E+03</pdfrwt>
<totfact> 0.35559562E+03</totfact>
</mgrwt>
</event>
<event>
 4    1  0.4025504E+000  0.2180343E+03  0.7546771E-02  0.1135357E+00
         21   -1    0    0  503  502  0.00000000000E+00  0.00000000000E+00  0.30490180395E+03  0.30490180395E+03  0.00000000000E+00 0. -1.
         21   -1    0    0  501  503 -0.00000000000E+00 -0.00000000000E+00 -0.61081071327E+03  0.61081071327E+03  0.00000000000E+00 0. -1.
          6    1    1    2  501    0 -0.88137658373E+02 -0.99205347958E+02 -0.54807668777E+03  0.58985337463E+03  0.17300000000E+03 0. -1.
         -6    1    1    2    0  502  0.88137658373E+02  0.99205347958E+02  0.24216777845E+03  0.32585914259E+03  0.17300000000E+03 0. -1.
<mgrwt>
<rscale>  2 0.21803428E+03</rscale>
<asrwt>0</asrwt>
<pdfrwt beam="1">  1       21 0.46907970E-01 0.21803428E+03</pdfrwt>
<pdfrwt beam="2">  1       21 0.93970878E-01 0.21803428E+03</pdfrwt>
<totfact> 0.40518049E+03</totfact>
</mgrwt>
</event>
<event>
 4    1  0.4025504E+000  0.7554944E+03  0.7546771E-02  0.9626770E-01
         21   -1    0    0  501  502  0.00000000000E+00  0.00000000000E+00  0.76411152660E+03  0.76411152660E+03  0.00000000000E+00 0. -1.
         21   -1    0    0  502  503 -0.00000000000E+00 -0.00000000000E+00 -0.13099884292E+04  0.13099884292E+04  0.00000000000E+00 0.  1.
          6    1    1    2  501    0  0.36302659466E+03 -0.63957361216E+03  0.40693108698E+03  0.85811690541E+03  0.17300000000E+03 0. -1.
         -6    1    1    2    0  503 -0.36302659466E+03  0.63957361216E+03 -0.95280798956E+03  0.12159830504E+04  0.17300000000E+03 0.  1.
<mgrwt>
<rscale>  2 0.75549435E+03</rscale>
<asrwt>0</asrwt>
<pdfrwt beam="1">  1       21 0.11755562E+00 0.75549435E+03</pdfrwt>
<pdfrwt beam="2">  1       21 0.20153668E+00 0.75549435E+03</pdfrwt>
<totfact> 0.49820631E+01</totfact>
</mgrwt>
</event>
<event>
 4    1  0.4025504E+000  0.1911121E+03  0.7546771E-02  0.1157462E+00
         21   -1    0    0  503  502  0.00000000000E+00  0.00000000000E+00  0.60496085512E+02  0.60496085512E+02  0.00000000000E+00 0.  1.
         21   -1    0    0  501  503 -0.00000000000E+00 -0.00000000000E+00 -0.63954433810E+03  0.63954433810E+03  0.00000000000E+00 0.  1.
          6    1    1    2  501    0  0.49766349761E+02 -0.64172888394E+02 -0.37234339333E+03  0.41852532985E+03  0.17300000000E+03 0.  1.
         -6    1    1    2    0  502 -0.49766349761E+02  0.64172888394E+02 -0.20670485927E+03  0.28151509377E+03  0.17300000000E+03 0.  1.
<mgrwt>
<rscale>  2 0.19111214E+03</rscale>
<asrwt>0</asrwt>
<pdfrwt beam="1">  1       21 0.93070900E-02 0.19111214E+03</pdfrwt>
<pdfrwt beam="2">  1       21 0.98391438E-01 0.19111214E+03</pdfrwt>
<totfact> 0.78615040E+04</totfact>
</mgrwt>
</event>
<event>
 4    1  0.4025504E+000  0.1941587E+03  0.7546771E-02  0.1154763E+00
         21   -1    0    0  503  502  0.00000000000E+00  0.00000000000E+00  0.15911833083E+03  0.15911833083E+03  0.00000000000E+00 0.  1.
         21   -1    0    0  501  503 -0.00000000000E+00 -0.00000000000E+00 -0.30989650100E+03  0.30989650100E+03  0.00000000000E+00 0.  1.
          6    1    1    2  501    0  0.59806364450E+02 -0.64744021939E+02 -0.18919198441E+03  0.27109259778E+03  0.17300000000E+03 0. -1.
         -6    1    1    2    0  502 -0.59806364450E+02  0.64744021939E+02  0.38413814241E+02  0.19792223405E+03  0.17300000000E+03 0. -1.
<mgrwt>
<rscale>  2 0.19415867E+03</rscale>
<asrwt>0</asrwt>
<pdfrwt beam="1">  1       21 0.24479743E-01 0.19415867E+03</pdfrwt>
<pdfrwt beam="2">  1       21 0.47676384E-01 0.19415867E+03</pdfrwt>
<totfact> 0.66279940E+04</totfact>
</mgrwt>
</event>
<event>
 4    1  0.4025504E+000  0.2095953E+03  0.7546771E-02  0.1141887E+00
         21   -1    0    0  503  502  0.00000000000E+00  0.00000000000E+00  0.30361483813E+03  0.30361483813E+03  0.00000000000E+00 0.  1.
         21   -1    0    0  501  503 -0.00000000000E+00 -0.00000000000E+00 -0.15878162080E+03  0.15878162080E+03  0.00000000000E+00 0. -1.
          6    1    1    2  501    0 -0.88561164335E+02 -0.78473662066E+02  0.35424175461E+01  0.20962524702E+03  0.17300000000E+03 0.  1.
         -6    1    1    2    0  502  0.88561164335E+02  0.78473662066E+02  0.14129079978E+03  0.25277121191E+03  0.17300000000E+03 0. -1.
<mgrwt>
<rscale>  2 0.20959531E+03</rscale>
<asrwt>0</asrwt>
<pdfrwt beam="1">  1       21 0.46709975E-01 0.20959531E+03</pdfrwt>
<pdfrwt beam="2">  1       21 0.24427942E-01 0.20959531E+03</pdfrwt>
<totfact> 0.68947043E+04</totfact>
</mgrwt>
</event>
<event>
 4    1  0.4025504E+000  0.2006391E+03  0.7546771E-02  0.1149201E+00
         21   -1    0    0  501  502  0.00000000000E+00  0.00000000000E+00  0.17579062024E+03  0.17579062024E+03  0.00000000000E+00 0.  1.
         21   -1    0    0  502  503 -0.00000000000E+00 -0.00000000000E+00 -0.31906977207E+03  0.31906977207E+03  0.00000000000E+00 0.  1.
          6    1    1    2  501    0 -0.34957471798E+02 -0.95420254134E+02  0.59822180905E+02  0.20936748330E+03  0.17300000000E+03 0.  1.
         -6    1    1    2    0  503  0.34957471798E+02  0.95420254134E+02 -0.20310133274E+03  0.28549290901E+03  0.17300000000E+03 0.  1.
<mgrwt>
<rscale>  2 0.20063910E+03</rscale>
<asrwt>0</asrwt>
<pdfrwt beam="1">  1       21 0.27044711E-01 0.20063910E+03</pdfrwt>
<pdfrwt beam="2">  1       21 0.49087657E-01 0.20063910E+03</pdfrwt>
<totfact> 0.51381939E+04</totfact>
</mgrwt>
</event>
<event>
 4    1  0.4025504E+000  0.2068967E+03  0.7546771E-02  0.1144047E+00
         21   -1    0    0  503  502  0.00000000000E+00  0.00000000000E+00  0.16804785313E+03  0.16804785313E+03  0.00000000000E+00 0.  1.
         21   -1    0    0  501  503 -0.00000000000E+00 -0.00000000000E+00 -0.54430875039E+03  0.54430875039E+03  0.00000000000E+00 0. -1.
          6    1    1    2  501    0  0.86671950815E+02  0.73247592157E+02 -0.44792545013E+03  0.49339988416E+03  0.17300000000E+03 0. -1.
         -6    1    1    2    0  502 -0.86671950815E+02 -0.73247592157E+02  0.71664552872E+02  0.21895671936E+03  0.17300000000E+03 0.  1.
<mgrwt>
<rscale>  2 0.20689668E+03</rscale>
<asrwt>0</asrwt>
<pdfrwt beam="1">  1       21 0.25853516E-01 0.20689668E+03</pdfrwt>
<pdfrwt beam="2">  1       21 0.83739808E-01 0.20689668E+03</pdfrwt>
<totfact> 0.17455967E+04</totfact>
</mgrwt>
</event>
<event>
 4    1  0.4025504E+000  0.1936172E+03  0.7546771E-02  0.1155239E+00
         21   -1    0    0  503  502  0.00000000000E+00  0.00000000000E+00  0.19578174059E+04  0.19578174059E+04  0.00000000000E+00 0.  1.
         21   -1    0    0  501  503 -0.00000000000E+00 -0.00000000000E+00 -0.37409132977E+02  0.37409132977E+02  0.00000000000E+00 0.  1.
          6    1    1    2  501    0  0.75410371357E+02  0.43265544332E+02  0.26319055401E+03  0.32673674289E+03  0.17300000000E+03 0.  1.
         -6    1    1    2    0  502 -0.75410371357E+02 -0.43265544332E+02  0.16572177189E+04  0.16684897960E+04  0.17300000000E+03 0.  1.
<mgrwt>
<rscale>  2 0.19361723E+03</rscale>
<asrwt>0</asrwt>
<pdfrwt beam="1">  1       21 0.30120260E+00 0.19361723E+03</pdfrwt>
<pdfrwt beam="2">  1       21 0.57552528E-02 0.19361723E+03</pdfrwt>
<totfact> 0.71054453E+03</totfact>
</mgrwt>
</event>
<event>
 4    1  0.4025504E+000  0.1751943E+03  0.7546771E-02  0.1172537E+00
         21   -1    0    0  503  502  0.00000000000E+00  0.00000000000E+00  0.35263601626E+02  0.35263601626E+02  0.00000000000E+00 0.  1.
         21   -1    0    0  501  503 -0.00000000000E+00 -0.00000000000E+00 -0.22661702796E+04  0.22661702796E+04  0.00000000000E+00 0.  1.
          6    1    1    2  501    0 -0.16357825647E+02 -0.22281557046E+02 -0.20185431499E+04  0.20261316576E+04  0.17300000000E+03 0.  1.
         -6    1    1    2    0  502  0.16357825647E+02  0.22281557046E+02 -0.21236352816E+03  0.27530222363E+03  0.17300000000E+03 0.  1.
<mgrwt>
<rscale>  2 0.17519431E+03</rscale>
<asrwt>0</asrwt>
<pdfrwt beam="1">  1       21 0.54251685E-02 0.17519431E+03</pdfrwt>
<pdfrwt beam="2">  1       21 0.34864164E+00 0.17519431E+03</pdfrwt>
<totfact> 0.42707342E+03</totfact>
</mgrwt>
</event>
<event>
 4    1  0.4025504E+000  0.3084340E+03  0.7546771E-02  0.1081099E+00
         21   -1    0    0  501  502  0.00000000000E+00  0.00000000000E+00  0.10535470044E+04  0.10535470044E+04  0.00000000000E+00 0. -1.
         21   -1    0    0  502  503 -0.00000000000E+00 -0.00000000000E+00 -0.93680331947E+02  0.93680331947E+02  0.00000000000E+00 0.  1.
          6    1    1    2  501    0  0.11143348442E+03 -0.22975009058E+03  0.58895294985E+03  0.66482862657E+03  0.17300000000E+03 0. -1.
         -6    1    1    2    0  503 -0.11143348442E+03  0.22975009058E+03  0.37091372256E+03  0.48239870974E+03  0.17300000000E+03 0.  1.
<mgrwt>
<rscale>  2 0.30843399E+03</rscale>
<asrwt>0</asrwt>
<pdfrwt beam="1">  1       21 0.16208415E+00 0.30843399E+03</pdfrwt>
<pdfrwt beam="2">  1       21 0.14412359E-01 0.30843399E+03</pdfrwt>
<totfact> 0.95364969E+03</totfact>
</mgrwt>
</event>
<event>
 4    1  0.4025504E+000  0.2707976E+03  0.7546771E-02  0.1100824E+00
         21   -1    0    0  503  502  0.00000000000E+00  0.00000000000E+00  0.15672382005E+04  0.15672382005E+04  0.00000000000E+00 0.  1.
         21   -1    0    0  501  503 -0.00000000000E+00 -0.00000000000E+00 -0.67433255329E+02  0.67433255329E+02  0.00000000000E+00 0. -1.
          6    1    1    2  501    0  0.19908200874E+03 -0.61389590177E+02  0.29768137735E+03  0.40242456486E+03  0.17300000000E+03 0. -1.
         -6    1    1    2    0  502 -0.19908200874E+03  0.61389590177E+02  0.12021235679E+04  0.12322468910E+04  0.17300000000E+03 0.  1.
<mgrwt>
<rscale>  2 0.27079758E+03</rscale>
<asrwt>0</asrwt>
<pdfrwt beam="1">  1       21 0.24111354E+00 0.27079758E+03</pdfrwt>
<pdfrwt beam="2">  1       21 0.10374348E-01 0.27079758E+03</pdfrwt>
<totfact> 0.53353826E+03</totfact>
</mgrwt>
</event>
<event>
 4    1  0.4025504E+000  0.1858708E+03  0.7546771E-02  0.1162239E+00
         21   -1    0    0  501  502  0.00000000000E+00  0.00000000000E+00  0.20204661574E+03  0.20204661574E+03  0.00000000000E+00 0. -1.
         21   -1    0    0  502  503 -0.00000000000E+00 -0.00000000000E+00 -0.17612316963E+03  0.17612316963E+03  0.00000000000E+00 0. -1.
          6    1    1    2  501    0  0.51954019609E+02 -0.43814626157E+02  0.45242451081E+02  0.19129772868E+03  0.17300000000E+03 0. -1.
         -6    1    1    2    0  503 -0.51954019609E+02  0.43814626157E+02 -0.19319004978E+02  0.18687205669E+03  0.17300000000E+03 0. -1.
<mgrwt>
<rscale>  2 0.18587077E+03</rscale>
<asrwt>0</asrwt>
<pdfrwt beam="1">  1       21 0.31084095E-01 0.18587077E+03</pdfrwt>
<pdfrwt beam="2">  1       21 0.27095872E-01 0.18587077E+03</pdfrwt>
<totfact> 0.12935448E+05</totfact>
</mgrwt>
</event>
<event>
 4    1  0.4025504E+000  0.1792106E+03  0.7546771E-02  0.1168569E+00
         21   -1    0    0  503  502  0.00000000000E+00  0.00000000000E+00  0.26063911056E+03  0.26063911056E+03  0.00000000000E+00 0. -1.
         21   -1    0    0  501  503 -0.00000000000E+00 -0.00000000000E+00 -0.24029049523E+03  0.24029049523E+03  0.00000000000E+00 0. -1.
          6    1    1    2  501    0  0.42026894831E+02  0.20522415157E+02 -0.16464875838E+03  0.24336319165E+03  0.17300000000E+03 0. -1.
         -6    1    1    2    0  502 -0.42026894831E+02 -0.20522415157E+02  0.18499737372E+03  0.25756641414E+03  0.17300000000E+03 0. -1.
<mgrwt>
<rscale>  2 0.17921057E+03</rscale>
<asrwt>0</asrwt>
<pdfrwt beam="1">  1       21 0.40098325E-01 0.17921057E+03</pdfrwt>
<pdfrwt beam="2">  1       21 0.36967768E-01 0.17921057E+03</pdfrwt>
<totfact> 0.42579397E+04</totfact>
</mgrwt>
</event>
<event>
 4    1  0.4025504E+000  0.2577549E+03  0.7546771E-02  0.1108500E+00
         21   -1    0    0  501  502  0.00000000000E+00  0.00000000000E+00  0.22465773523E+03  0.22465773523E+03  0.00000000000E+00 0.  1.
         21   -1    0    0  502  503 -0.00000000000E+00 -0.00000000000E+00 -0.36097617531E+03  0.36097617531E+03  0.00000000000E+00 0.  1.
          6    1    1    2  501    0  0.10725571061E+03  0.15812902813E+03 -0.19265115618E+03  0.32179503566E+03  0.17300000000E+03 0.  1.
         -6    1    1    2    0  503 -0.10725571061E+03 -0.15812902813E+03  0.56332716103E+02  0.26383887489E+03  0.17300000000E+03 0.  1.
<mgrwt>
<rscale>  2 0.25775488E+03</rscale>
<asrwt>0</asrwt>
<pdfrwt beam="1">  1       21 0.34562729E-01 0.25775488E+03</pdfrwt>
<pdfrwt beam="2">  1       21 0.55534796E-01 0.25775488E+03</pdfrwt>
<totfact> 0.23838467E+04</totfact>
</mgrwt>
</event>
<event>
 4    1  0.4025504E+000  0.2418632E+03  0.7546771E-02  0.1118558E+00
         21   -1    0    0  503  502  0.00000000000E+00  0.00000000000E+00  0.63987613348E+02  0.63987613348E+02  0.00000000000E+00 0. -1.
         21   -1    0    0  501  503 -0.00000000000E+00 -0.00000000000E+00 -0.94284359675E+03  0.94284359675E+03  0.00000000000E+00 0. -1.
          6    1    1    2  501    0 -0.39838061662E+02 -0.16426119960E+03 -0.35169140730E+03  0.42683094876E+03  0.17300000000E+03 0. -1.
         -6    1    1    2    0  502  0.39838061662E+02  0.16426119960E+03 -0.52716457610E+03  0.58000026134E+03  0.17300000000E+03 0. -1.
<mgrwt>
<rscale>  2 0.24186321E+03</rscale>
<asrwt>0</asrwt>
<pdfrwt beam="1">  1       21 0.98442492E-02 0.24186321E+03</pdfrwt>
<pdfrwt beam="2">  1       21 0.14505285E+00 0.24186321E+03</pdfrwt>
<totfact> 0.26451201E+04</totfact>
</mgrwt>
</event>
<event>
 4    1  0.4025504E+000  0.1904548E+03  0.7546771E-02  0.1158052E+00
         21   -1    0    0  503  502  0.00000000000E+00  0.00000000000E+00  0.10716181485E+03  0.10716181485E+03  0.00000000000E+00 0. -1.
         21   -1    0    0  501  503 -0.00000000000E+00 -0.00000000000E+00 -0.36441458069E+03  0.36441458069E+03  0.00000000000E+00 0. -1.
          6    1    1    2  501    0 -0.75523496848E+02  0.25303015937E+02 -0.65734776940E+02  0.20147978085E+03  0.17300000000E+03 0. -1.
         -6    1    1    2    0  502  0.75523496848E+02 -0.25303015937E+02 -0.19151798891E+03  0.27009661469E+03  0.17300000000E+03 0. -1.
<mgrwt>
<rscale>  2 0.19045483E+03</rscale>
<asrwt>0</asrwt>
<pdfrwt beam="1">  1       21 0.16486433E-01 0.19045483E+03</pdfrwt>
<pdfrwt beam="2">  1       21 0.56063781E-01 0.19045483E+03</pdfrwt>
<totfact> 0.98942170E+04</totfact>
</mgrwt>
</event>
<event>
 4    1  0.4025504E+000  0.2553449E+03  0.7546771E-02  0.1109973E+00
         21   -1    0    0  501  502  0.00000000000E+00  0.00000000000E+00  0.49755280865E+03  0.49755280865E+03  0.00000000000E+00 0.  1.
         21   -1    0    0  502  503 -0.00000000000E+00 -0.00000000000E+00 -0.17396482993E+03  0.17396482993E+03  0.00000000000E+00 0. -1.
          6    1    1    2  501    0  0.78936336865E+02  0.17041434251E+03  0.32857015237E+03  0.41612418631E+03  0.17300000000E+03 0.  1.
         -6    1    1    2    0  503 -0.78936336865E+02 -0.17041434251E+03 -0.49821736481E+01  0.25539345227E+03  0.17300000000E+03 0. -1.
<mgrwt>
<rscale>  2 0.25534485E+03</rscale>
<asrwt>0</asrwt>
<pdfrwt beam="1">  1       21 0.76546585E-01 0.25534485E+03</pdfrwt>
<pdfrwt beam="2">  1       21 0.26763820E-01 0.25534485E+03</pdfrwt>
<totfact> 0.19508886E+04</totfact>
</mgrwt>
</event>
<event>
 4    1  0.4025504E+000  0.2344519E+03  0.7546771E-02  0.1123545E+00
         21   -1    0    0  501  502  0.00000000000E+00  0.00000000000E+00  0.15624258589E+04  0.15624258589E+04  0.00000000000E+00 0.  1.
         21   -1    0    0  502  503 -0.00000000000E+00 -0.00000000000E+00 -0.73933841061E+02  0.73933841061E+02  0.00000000000E+00 0.  1.
          6    1    1    2  501    0 -0.68685791263E+02  0.14255153650E+03  0.13365968513E+04  0.13570036188E+04  0.17300000000E+03 0.  1.
         -6    1    1    2    0  503  0.68685791263E+02 -0.14255153650E+03  0.15189516656E+03  0.27935608120E+03  0.17300000000E+03 0.  1.
<mgrwt>
<rscale>  2 0.23445187E+03</rscale>
<asrwt>0</asrwt>
<pdfrwt beam="1">  1       21 0.24037318E+00 0.23445187E+03</pdfrwt>
<pdfrwt beam="2">  1       21 0.11374438E-01 0.23445187E+03</pdfrwt>
<totfact> 0.47045554E+03</totfact>
</mgrwt>
</event>
<event>
 4    1  0.4025504E+000  0.1823334E+03  0.7546771E-02  0.1165564E+00
         21   -1    0    0  503  502  0.00000000000E+00  0.00000000000E+00  0.31217810331E+03  0.31217810331E+03  0.00000000000E+00 0.  1.
         21   -1    0    0  501  503 -0.00000000000E+00 -0.00000000000E+00 -0.13792639086E+03  0.13792639086E+03  0.00000000000E+00 0.  1.
          6    1    1    2  501    0 -0.52825326090E+02  0.22934009651E+02 -0.20307654629E+02  0.18346085335E+03  0.17300000000E+03 0.  1.
         -6    1    1    2    0  502  0.52825326090E+02 -0.22934009651E+02  0.19455936707E+03  0.26664364082E+03  0.17300000000E+03 0.  1.
<mgrwt>
<rscale>  2 0.18233344E+03</rscale>
<asrwt>0</asrwt>
<pdfrwt beam="1">  1       21 0.48027400E-01 0.18233344E+03</pdfrwt>
<pdfrwt beam="2">  1       21 0.21219445E-01 0.18233344E+03</pdfrwt>
<totfact> 0.85949272E+04</totfact>
</mgrwt>
</event>
<event>
 4    1  0.4025504E+000  0.2346012E+03  0.7546771E-02  0.1123443E+00
         21   -1    0    0  503  502  0.00000000000E+00  0.00000000000E+00  0.59459559003E+03  0.59459559003E+03  0.00000000000E+00 0.  1.
         21   -1    0    0  501  503 -0.00000000000E+00 -0.00000000000E+00 -0.11575044412E+03  0.11575044412E+03  0.00000000000E+00 0.  1.
          6    1    1    2  501    0  0.13270831744E+03 -0.86586397161E+02  0.39838800975E+03  0.46233181591E+03  0.17300000000E+03 0.  1.
         -6    1    1    2    0  502 -0.13270831744E+03  0.86586397161E+02  0.80457136163E+02  0.24801421824E+03  0.17300000000E+03 0.  1.
<mgrwt>
<rscale>  2 0.23460115E+03</rscale>
<asrwt>0</asrwt>
<pdfrwt beam="1">  1       21 0.91476243E-01 0.23460115E+03</pdfrwt>
<pdfrwt beam="2">  1       21 0.17807761E-01 0.23460115E+03</pdfrwt>
<totfact> 0.28324317E+04</totfact>
</mgrwt>
</event>
<event>
 4    1  0.4025504E+000  0.1918380E+03  0.7546771E-02  0.1156814E+00
         21   -1    0    0  501  502  0.00000000000E+00  0.00000000000E+00  0.10402648666E+04  0.10402648666E+04  0.00000000000E+00 0.  1.
         21   -1    0    0  502  503 -0.00000000000E+00 -0.00000000000E+00 -0.39146082775E+02  0.39146082775E+02  0.00000000000E+00 0. -1.
          6    1    1    2  501    0 -0.31292948233E+02 -0.76769696353E+02  0.66801866401E+03  0.69501853958E+03  0.17300000000E+03 0.  1.
         -6    1    1    2    0  503  0.31292948233E+02  0.76769696353E+02  0.33310011978E+03  0.38439240976E+03  0.17300000000E+03 0. -1.
<mgrwt>
<rscale>  2 0.19183804E+03</rscale>
<asrwt>0</asrwt>
<pdfrwt beam="1">  1       21 0.16004073E+00 0.19183804E+03</pdfrwt>
<pdfrwt beam="2">  1       21 0.60224751E-02 0.19183804E+03</pdfrwt>
<totfact> 0.49303017E+04</totfact>
</mgrwt>
</event>
<event>
 4    1  0.4025504E+000  0.2366762E+03  0.7546771E-02  0.1122027E+00
         21   -1    0    0  503  502  0.00000000000E+00  0.00000000000E+00  0.13940247963E+03  0.13940247963E+03  0.00000000000E+00 0. -1.
         21   -1    0    0  501  503 -0.00000000000E+00 -0.00000000000E+00 -0.51487969486E+03  0.51487969486E+03  0.00000000000E+00 0.  1.
          6    1    1    2  501    0 -0.15510148884E+03  0.45057202673E+02 -0.34103200619E+03  0.41511257822E+03  0.17300000000E+03 0.  1.
         -6    1    1    2    0  502  0.15510148884E+03 -0.45057202673E+02 -0.34445209047E+02  0.23916959627E+03  0.17300000000E+03 0. -1.
<mgrwt>
<rscale>  2 0.23667620E+03</rscale>
<asrwt>0</asrwt>
<pdfrwt beam="1">  1       21 0.21446536E-01 0.23667620E+03</pdfrwt>
<pdfrwt beam="2">  1       21 0.79212258E-01 0.23667620E+03</pdfrwt>
<totfact> 0.27822443E+04</totfact>
</mgrwt>
</event>
<event>
 4    1  0.4025504E+000  0.3661819E+03  0.7546771E-02  0.1056163E+00
         21   -1    0    0  501  502  0.00000000000E+00  0.00000000000E+00  0.10877291803E+04  0.10877291803E+04  0.00000000000E+00 0.  1.
         21   -1    0    0  502  503 -0.00000000000E+00 -0.00000000000E+00 -0.13078340920E+03  0.13078340920E+03  0.00000000000E+00 0.  1.
          6    1    1    2  501    0  0.27250439184E+03  0.17292055956E+03  0.33248561858E+03  0.49460676305E+03  0.17300000000E+03 0.  1.
         -6    1    1    2    0  503 -0.27250439184E+03 -0.17292055956E+03  0.62446015252E+03  0.72390582645E+03  0.17300000000E+03 0.  1.
<mgrwt>
<rscale>  2 0.36618187E+03</rscale>
<asrwt>0</asrwt>
<pdfrwt beam="1">  1       21 0.16734295E+00 0.36618187E+03</pdfrwt>
<pdfrwt beam="2">  1       21 0.20120525E-01 0.36618187E+03</pdfrwt>
<totfact> 0.45570414E+03</totfact>
</mgrwt>
</event>
<event>
 4    1  0.4025504E+000  0.1772978E+03  0.7546771E-02  0.1170444E+00
         21   -1    0    0  501  502  0.00000000000E+00  0.00000000000E+00  0.10350124178E+04  0.10350124178E+04  0.00000000000E+00 0. -1.
         21   -1    0    0  502  503 -0.00000000000E+00 -0.00000000000E+00 -0.88152154651E+02  0.88152154651E+02  0.00000000000E+00 0. -1.
          6    1    1    2  501    0  0.30281398916E+02  0.24259778141E+02  0.92809305728E+03  0.94487630033E+03  0.17300000000E+03 0. -1.
         -6    1    1    2    0  503 -0.30281398916E+02 -0.24259778141E+02  0.18767205857E+02  0.17828827211E+03  0.17300000000E+03 0. -1.
<mgrwt>
<rscale>  2 0.17729777E+03</rscale>
<asrwt>0</asrwt>
<pdfrwt beam="1">  1       21 0.15923267E+00 0.17729777E+03</pdfrwt>
<pdfrwt beam="2">  1       21 0.13561871E-01 0.17729777E+03</pdfrwt>
<totfact> 0.12149732E+04</totfact>
</mgrwt>
</event>
<event>
 4    1  0.4025504E+000  0.2001705E+03  0.7546771E-02  0.1149595E+00
         21   -1    0    0  501  502  0.00000000000E+00  0.00000000000E+00  0.80383190635E+03  0.80383190635E+03  0.00000000000E+00 0. -1.
         21   -1    0    0  502  503 -0.00000000000E+00 -0.00000000000E+00 -0.74506377230E+02  0.74506377230E+02  0.00000000000E+00 0.  1.
          6    1    1    2  501    0 -0.10067185620E+03 -0.21023595658E+01  0.61731908111E+03  0.64896154774E+03  0.17300000000E+03 0. -1.
         -6    1    1    2    0  503  0.10067185620E+03  0.21023595658E+01  0.11200644801E+03  0.22937673584E+03  0.17300000000E+03 0.  1.
<mgrwt>
<rscale>  2 0.20017053E+03</rscale>
<asrwt>0</asrwt>
<pdfrwt beam="1">  1       21 0.12366644E+00 0.20017053E+03</pdfrwt>
<pdfrwt beam="2">  1       21 0.11462520E-01 0.20017053E+03</pdfrwt>
<totfact> 0.31067330E+04</totfact>
</mgrwt>
</event>
<event>
 4    1  0.4025504E+000  0.2198321E+03  0.7546771E-02  0.1134008E+00
         21   -1    0    0  501  502  0.00000000000E+00  0.00000000000E+00  0.16135787029E+03  0.16135787029E+03  0.00000000000E+00 0.  1.
         21   -1    0    0  502  503 -0.00000000000E+00 -0.00000000000E+00 -0.30126722135E+03  0.30126722135E+03  0.00000000000E+00 0. -1.
          6    1    1    2  501    0 -0.13021187620E+03 -0.37973879837E+02 -0.87687377278E+02  0.23667535653E+03  0.17300000000E+03 0. -1.
         -6    1    1    2    0  503  0.13021187620E+03  0.37973879837E+02 -0.52221973784E+02  0.22594973512E+03  0.17300000000E+03 0.  1.
<mgrwt>
<rscale>  2 0.21983209E+03</rscale>
<asrwt>0</asrwt>
<pdfrwt beam="1">  1       21 0.24824288E-01 0.21983209E+03</pdfrwt>
<pdfrwt beam="2">  1       21 0.46348803E-01 0.21983209E+03</pdfrwt>
<totfact> 0.67646545E+04</totfact>
</mgrwt>
</event>
<event>
 4    1  0.4025504E+000  0.1826740E+03  0.7546771E-02  0.1165240E+00
         21   -1    0    0  501  502  0.00000000000E+00  0.00000000000E+00  0.41810799547E+03  0.41810799547E+03  0.00000000000E+00 0.  1.
         21   -1    0    0  502  503 -0.00000000000E+00 -0.00000000000E+00 -0.14359195364E+03  0.14359195364E+03  0.00000000000E+00 0.  1.
          6    1    1    2  501    0 -0.39419830966E+02 -0.43437926338E+02  0.32443547843E+03  0.37232802229E+03  0.17300000000E+03 0.  1.
         -6    1    1    2    0  503  0.39419830966E+02  0.43437926338E+02 -0.49919436597E+02  0.18937192682E+03  0.17300000000E+03 0.  1.
<mgrwt>
<rscale>  2 0.18267396E+03</rscale>
<asrwt>0</asrwt>
<pdfrwt beam="1">  1       21 0.64324306E-01 0.18267396E+03</pdfrwt>
<pdfrwt beam="2">  1       21 0.22091070E-01 0.18267396E+03</pdfrwt>
<totfact> 0.42915160E+04</totfact>
</mgrwt>
</event>
<event>
 4    1  0.4025504E+000  0.2610269E+03  0.7546771E-02  0.1106528E+00
         21   -1    0    0  501  502  0.00000000000E+00  0.00000000000E+00  0.34664097031E+03  0.34664097031E+03  0.00000000000E+00 0.  1.
         21   -1    0    0  502  503 -0.00000000000E+00 -0.00000000000E+00 -0.19726249441E+03  0.19726249441E+03  0.00000000000E+00 0.  1.
          6    1    1    2  501    0 -0.11635722449E+01 -0.19546013585E+03  0.90942534159E+02  0.27641556238E+03  0.17300000000E+03 0.  1.
         -6    1    1    2    0  503  0.11635722449E+01  0.19546013585E+03  0.58435941740E+02  0.26748790233E+03  0.17300000000E+03 0.  1.
<mgrwt>
<rscale>  2 0.26102685E+03</rscale>
<asrwt>0</asrwt>
<pdfrwt beam="1">  1       21 0.53329380E-01 0.26102685E+03</pdfrwt>
<pdfrwt beam="2">  1       21 0.30348076E-01 0.26102685E+03</pdfrwt>
<totfact> 0.33571149E+04</totfact>
</mgrwt>
</event>
<event>
 4    1  0.4025504E+000  0.1861586E+03  0.7546771E-02  0.1161972E+00
         21   -1    0    0  501  502  0.00000000000E+00  0.00000000000E+00  0.39560665104E+02  0.39560665104E+02  0.00000000000E+00 0.  1.
         21   -1    0    0  502  503 -0.00000000000E+00 -0.00000000000E+00 -0.12832592858E+04  0.12832592858E+04  0.00000000000E+00 0.  1.
          6    1    1    2  501    0 -0.67739578729E+02  0.11720248967E+02 -0.24924252960E+03  0.31108978338E+03  0.17300000000E+03 0.  1.
         -6    1    1    2    0  503  0.67739578729E+02 -0.11720248967E+02 -0.99445609111E+03  0.10117301675E+04  0.17300000000E+03 0.  1.
<mgrwt>
<rscale>  2 0.18615857E+03</rscale>
<asrwt>0</asrwt>
<pdfrwt beam="1">  1       21 0.60862564E-02 0.18615857E+03</pdfrwt>
<pdfrwt beam="2">  1       21 0.19742450E+00 0.18615857E+03</pdfrwt>
<totfact> 0.26967950E+04</totfact>
</mgrwt>
</event>
<event>
 4    1  0.4025504E+000  0.2161628E+03  0.7546771E-02  0.1136777E+00
         21   -1    0    0  503  502  0.00000000000E+00  0.00000000000E+00  0.93001218578E+03  0.93001218578E+03  0.00000000000E+00 0.  1.
         21   -1    0    0  501  503 -0.00000000000E+00 -0.00000000000E+00 -0.13794187280E+03  0.13794187280E+03  0.00000000000E+00 0. -1.
          6    1    1    2  501    0  0.38416740271E+02 -0.12378000382E+03 -0.29732073798E+02  0.21819791816E+03  0.17300000000E+03 0. -1.
         -6    1    1    2    0  502 -0.38416740271E+02  0.12378000382E+03  0.82180238678E+03  0.84975614043E+03  0.17300000000E+03 0.  1.
<mgrwt>
<rscale>  2 0.21616275E+03</rscale>
<asrwt>0</asrwt>
<pdfrwt beam="1">  1       21 0.14307879E+00 0.21616275E+03</pdfrwt>
<pdfrwt beam="2">  1       21 0.21221827E-01 0.21616275E+03</pdfrwt>
<totfact> 0.68606899E+03</totfact>
</mgrwt>
</event>
<event>
 4    1  0.4025504E+000  0.2543936E+03  0.7546771E-02  0.1110559E+00
         21   -1    0    0  501  502  0.00000000000E+00  0.00000000000E+00  0.55402983690E+03  0.55402983690E+03  0.00000000000E+00 0. -1.
         21   -1    0    0  502  503 -0.00000000000E+00 -0.00000000000E+00 -0.13375398235E+03  0.13375398235E+03  0.00000000000E+00 0.  1.
          6    1    1    2  501    0  0.16891688809E+03  0.79083516800E+02  0.33253719813E+03  0.41868497209E+03  0.17300000000E+03 0.  1.
         -6    1    1    2    0  503 -0.16891688809E+03 -0.79083516800E+02  0.87738656422E+02  0.26909884716E+03  0.17300000000E+03 0. -1.
<mgrwt>
<rscale>  2 0.25439363E+03</rscale>
<asrwt>0</asrwt>
<pdfrwt beam="1">  1       21 0.85235359E-01 0.25439363E+03</pdfrwt>
<pdfrwt beam="2">  1       21 0.20577536E-01 0.25439363E+03</pdfrwt>
<totfact> 0.25228178E+04</totfact>
</mgrwt>
</event>
<event>
 4    1  0.4025504E+000  0.2384245E+03  0.7546771E-02  0.1120847E+00
         21   -1    0    0  503  502  0.00000000000E+00  0.00000000000E+00  0.16836831751E+04  0.16836831751E+04  0.00000000000E+00 0.  1.
         21   -1    0    0  501  503 -0.00000000000E+00 -0.00000000000E+00 -0.45303531089E+02  0.45303531089E+02  0.00000000000E+00 0.  1.
          6    1    1    2  501    0 -0.88118408756E+02 -0.13839209964E+03  0.38286675850E+03  0.45103567705E+03  0.17300000000E+03 0.  1.
         -6    1    1    2    0  502  0.88118408756E+02  0.13839209964E+03  0.12555128855E+04  0.12779510292E+04  0.17300000000E+03 0.  1.
<mgrwt>
<rscale>  2 0.23842447E+03</rscale>
<asrwt>0</asrwt>
<pdfrwt beam="1">  1       21 0.25902813E+00 0.23842447E+03</pdfrwt>
<pdfrwt beam="2">  1       21 0.69697753E-02 0.23842447E+03</pdfrwt>
<totfact> 0.86058205E+03</totfact>
</mgrwt>
</event>
<event>
 4    1  0.4025504E+000  0.2164458E+03  0.7546771E-02  0.1136561E+00
         21   -1    0    0  501  502  0.00000000000E+00  0.00000000000E+00  0.15692342691E+04  0.15692342691E+04  0.00000000000E+00 0.  1.
         21   -1    0    0  502  503 -0.00000000000E+00 -0.00000000000E+00 -0.40633750952E+02  0.40633750952E+02  0.00000000000E+00 0.  1.
          6    1    1    2  501    0  0.50108426598E+02  0.12003724162E+03  0.11788818037E+04  0.11985871270E+04  0.17300000000E+03 0.  1.
         -6    1    1    2    0  503 -0.50108426598E+02 -0.12003724162E+03  0.34971871441E+03  0.41128089306E+03  0.17300000000E+03 0.  1.
<mgrwt>
<rscale>  2 0.21644582E+03</rscale>
<asrwt>0</asrwt>
<pdfrwt beam="1">  1       21 0.24142061E+00 0.21644582E+03</pdfrwt>
<pdfrwt beam="2">  1       21 0.62513475E-02 0.21644582E+03</pdfrwt>
<totfact> 0.13452840E+04</totfact>
</mgrwt>
</event>
<event>
 4    1  0.4025504E+000  0.2652343E+03  0.7546771E-02  0.1104039E+00
         21   -1    0    0  501  502  0.00000000000E+00  0.00000000000E+00  0.58984521832E+03  0.58984521832E+03  0.00000000000E+00 0.  1.
         21   -1    0    0  502  503 -0.00000000000E+00 -0.00000000000E+00 -0.11930744069E+03  0.11930744069E+03  0.00000000000E+00 0. -1.
          6    1    1    2  501    0  0.10378780224E+03  0.17218686593E+03  0.24177571576E+03  0.35889374671E+03  0.17300000000E+03 0. -1.
         -6    1    1    2    0  503 -0.10378780224E+03 -0.17218686593E+03  0.22876206187E+03  0.35025891230E+03  0.17300000000E+03 0.  1.
<mgrwt>
<rscale>  2 0.26523428E+03</rscale>
<asrwt>0</asrwt>
<pdfrwt beam="1">  1       21 0.90745417E-01 0.26523428E+03</pdfrwt>
<pdfrwt beam="2">  1       21 0.18354991E-01 0.26523428E+03</pdfrwt>
<totfact> 0.26896048E+04</totfact>
</mgrwt>
</event>
<event>
 4    1  0.4025504E+000  0.1836316E+03  0.7546771E-02  0.1164334E+00
         21   -1    0    0  501  502  0.00000000000E+00  0.00000000000E+00  0.73954421288E+02  0.73954421288E+02  0.00000000000E+00 0. -1.
         21   -1    0    0  502  503 -0.00000000000E+00 -0.00000000000E+00 -0.89434584766E+03  0.89434584766E+03  0.00000000000E+00 0. -1.
          6    1    1    2  501    0 -0.22676981667E+00 -0.61575327050E+02 -0.71231798808E+02  0.19696329985E+03  0.17300000000E+03 0. -1.
         -6    1    1    2    0  503  0.22676981667E+00  0.61575327050E+02 -0.74915962756E+03  0.77133696910E+03  0.17300000000E+03 0. -1.
<mgrwt>
<rscale>  2 0.18363162E+03</rscale>
<asrwt>0</asrwt>
<pdfrwt beam="1">  1       21 0.11377604E-01 0.18363162E+03</pdfrwt>
<pdfrwt beam="2">  1       21 0.13759166E+00 0.18363162E+03</pdfrwt>
<totfact> 0.24287678E+04</totfact>
</mgrwt>
</event>
<event>
 4    1  0.4025504E+000  0.1751288E+03  0.7546771E-02  0.1172602E+00
         21   -1    0    0  501  502  0.00000000000E+00  0.00000000000E+00  0.42167408628E+03  0.42167408628E+03  0.00000000000E+00 0.  1.
         21   -1    0    0  502  503 -0.00000000000E+00 -0.00000000000E+00 -0.15907537010E+03  0.15907537010E+03  0.00000000000E+00 0.  1.
          6    1    1    2  501    0  0.27116553852E+02  0.24043934211E+01  0.34522682121E+03  0.38710676393E+03  0.17300000000E+03 0.  1.
         -6    1    1    2    0  503 -0.27116553852E+02 -0.24043934211E+01 -0.82628105020E+02  0.19364269245E+03  0.17300000000E+03 0.  1.
<mgrwt>
<rscale>  2 0.17512878E+03</rscale>
<asrwt>0</asrwt>
<pdfrwt beam="1">  1       21 0.64872936E-01 0.17512878E+03</pdfrwt>
<pdfrwt beam="2">  1       21 0.24473134E-01 0.17512878E+03</pdfrwt>
<totfact> 0.34849647E+04</totfact>
</mgrwt>
</event>
<event>
 4    1  0.4025504E+000  0.3453443E+03  0.7546771E-02  0.1064542E+00
         21   -1    0    0  501  502  0.00000000000E+00  0.00000000000E+00  0.89900649092E+03  0.89900649092E+03  0.00000000000E+00 0. -1.
         21   -1    0    0  502  503 -0.00000000000E+00 -0.00000000000E+00 -0.18188560897E+03  0.18188560897E+03  0.00000000000E+00 0.  1.
          6    1    1    2  501    0 -0.23904417497E+03 -0.17942013968E+03  0.63971573031E+03  0.72697931175E+03  0.17300000000E+03 0. -1.
         -6    1    1    2    0  503  0.23904417497E+03  0.17942013968E+03  0.77405151641E+02  0.35391278814E+03  0.17300000000E+03 0.  1.
<mgrwt>
<rscale>  2 0.34534433E+03</rscale>
<asrwt>0</asrwt>
<pdfrwt beam="1">  1       21 0.13830869E+00 0.34534433E+03</pdfrwt>
<pdfrwt beam="2">  1       21 0.27982402E-01 0.34534433E+03</pdfrwt>
<totfact> 0.40872058E+03</totfact>
</mgrwt>
</event>
<event>
 4    1  0.4025504E+000  0.2396727E+03  0.7546771E-02  0.1120011E+00
         21   -1    0    0  503  502  0.00000000000E+00  0.00000000000E+00  0.14419337880E+03  0.14419337880E+03  0.00000000000E+00 0.  1.
         21   -1    0    0  501  503 -0.00000000000E+00 -0.00000000000E+00 -0.58077016569E+03  0.58077016569E+03  0.00000000000E+00 0.  1.
          6    1    1    2  501    0 -0.14425964423E+03 -0.81872718128E+02 -0.42142635997E+03  0.48481250377E+03  0.17300000000E+03 0.  1.
         -6    1    1    2    0  502  0.14425964423E+03  0.81872718128E+02 -0.15150426917E+02  0.24015104073E+03  0.17300000000E+03 0.  1.
<mgrwt>
<rscale>  2 0.23967267E+03</rscale>
<asrwt>0</asrwt>
<pdfrwt beam="1">  1       21 0.22183597E-01 0.23967267E+03</pdfrwt>
<pdfrwt beam="2">  1       21 0.89349254E-01 0.23967267E+03</pdfrwt>
<totfact> 0.19763644E+04</totfact>
</mgrwt>
</event>
<event>
 4    1  0.4025504E+000  0.3046822E+03  0.7546771E-02  0.1082923E+00
         21   -1    0    0  503  502  0.00000000000E+00  0.00000000000E+00  0.14447940573E+04  0.14447940573E+04  0.00000000000E+00 0. -1.
         21   -1    0    0  501  503 -0.00000000000E+00 -0.00000000000E+00 -0.69456869555E+02  0.69456869555E+02  0.00000000000E+00 0.  1.
          6    1    1    2  501    0 -0.93254797023E+02  0.23282132498E+03  0.48041313908E+03  0.56888312573E+03  0.17300000000E+03 0.  1.
         -6    1    1    2    0  502  0.93254797023E+02 -0.23282132498E+03  0.89492404867E+03  0.94536780113E+03  0.17300000000E+03 0. -1.
<mgrwt>
<rscale>  2 0.30468217E+03</rscale>
<asrwt>0</asrwt>
<pdfrwt beam="1">  1       21 0.22227599E+00 0.30468217E+03</pdfrwt>
<pdfrwt beam="2">  1       21 0.10685673E-01 0.30468217E+03</pdfrwt>
<totfact> 0.64617245E+03</totfact>
</mgrwt>
</event>
<event>
 4    1  0.4025504E+000  0.1823882E+03  0.7546771E-02  0.1165512E+00
         21   -1    0    0  503  502  0.00000000000E+00  0.00000000000E+00  0.41522408901E+03  0.41522408901E+03  0.00000000000E+00 0.  1.
         21   -1    0    0  501  503 -0.00000000000E+00 -0.00000000000E+00 -0.80811737780E+02  0.80811737780E+02  0.00000000000E+00 0.  1.
          6    1    1    2  501    0 -0.98467978843E+01 -0.56916560433E+02  0.19024436171E+03  0.26354956164E+03  0.17300000000E+03 0.  1.
         -6    1    1    2    0  502  0.98467978843E+01  0.56916560433E+02  0.14416798953E+03  0.23248626515E+03  0.17300000000E+03 0.  1.
<mgrwt>
<rscale>  2 0.18238820E+03</rscale>
<asrwt>0</asrwt>
<pdfrwt beam="1">  1       21 0.63880628E-01 0.18238820E+03</pdfrwt>
<pdfrwt beam="2">  1       21 0.12432575E-01 0.18238820E+03</pdfrwt>
<totfact> 0.12510792E+05</totfact>
</mgrwt>
</event>
<event>
 4    1  0.4025504E+000  0.1757489E+03  0.7546771E-02  0.1171982E+00
         21   -1    0    0  501  502  0.00000000000E+00  0.00000000000E+00  0.20577409293E+03  0.20577409293E+03  0.00000000000E+00 0.  1.
         21   -1    0    0  502  503 -0.00000000000E+00 -0.00000000000E+00 -0.15450121839E+03  0.15450121839E+03  0.00000000000E+00 0.  1.
          6    1    1    2  501    0  0.12069128231E+02 -0.28513357464E+02 -0.47506404827E+01  0.17581309392E+03  0.17300000000E+03 0.  1.
         -6    1    1    2    0  503 -0.12069128231E+02  0.28513357464E+02  0.56023515022E+02  0.18446221739E+03  0.17300000000E+03 0.  1.
<mgrwt>
<rscale>  2 0.17574890E+03</rscale>
<asrwt>0</asrwt>
<pdfrwt beam="1">  1       21 0.31657553E-01 0.17574890E+03</pdfrwt>
<pdfrwt beam="2">  1       21 0.23769418E-01 0.17574890E+03</pdfrwt>
<totfact> 0.16080765E+05</totfact>
</mgrwt>
</event>
<event>
 4    1  0.4025504E+000  0.2551979E+03  0.7546771E-02  0.1110063E+00
         21   -1    0    0  501  502  0.00000000000E+00  0.00000000000E+00  0.79681860520E+03  0.79681860520E+03  0.00000000000E+00 0.  1.
         21   -1    0    0  502  503 -0.00000000000E+00 -0.00000000000E+00 -0.85167044596E+02  0.85167044596E+02  0.00000000000E+00 0.  1.
          6    1    1    2  501    0  0.15761012839E+03 -0.10176460815E+03  0.26726745179E+03  0.36953738488E+03  0.17300000000E+03 0.  1.
         -6    1    1    2    0  503 -0.15761012839E+03  0.10176460815E+03  0.44438410882E+03  0.51244826492E+03  0.17300000000E+03 0.  1.
<mgrwt>
<rscale>  2 0.25519794E+03</rscale>
<asrwt>0</asrwt>
<pdfrwt beam="1">  1       21 0.12258747E+00 0.25519794E+03</pdfrwt>
<pdfrwt beam="2">  1       21 0.13102623E-01 0.25519794E+03</pdfrwt>
<totfact> 0.24242521E+04</totfact>
</mgrwt>
</event>
<event>
 4    1  0.4025504E+000  0.1829084E+03  0.7546771E-02  0.1165018E+00
         21   -1    0    0  501  502  0.00000000000E+00  0.00000000000E+00  0.79490606377E+02  0.79490606377E+02  0.00000000000E+00 0. -1.
         21   -1    0    0  502  503 -0.00000000000E+00 -0.00000000000E+00 -0.69815630254E+03  0.69815630254E+03  0.00000000000E+00 0. -1.
          6    1    1    2  501    0  0.44699886588E+02  0.39095022323E+02 -0.64292566477E+02  0.19387891772E+03  0.17300000000E+03 0. -1.
         -6    1    1    2    0  503 -0.44699886588E+02 -0.39095022323E+02 -0.55437312969E+03  0.58376799120E+03  0.17300000000E+03 0. -1.
<mgrwt>
<rscale>  2 0.18290845E+03</rscale>
<asrwt>0</asrwt>
<pdfrwt beam="1">  1       21 0.12229324E-01 0.18290845E+03</pdfrwt>
<pdfrwt beam="2">  1       21 0.10740866E+00 0.18290845E+03</pdfrwt>
<totfact> 0.39449231E+04</totfact>
</mgrwt>
</event>
<event>
 4    1  0.4025504E+000  0.2082768E+03  0.7546771E-02  0.1142938E+00
         21   -1    0    0  501  502  0.00000000000E+00  0.00000000000E+00  0.15907137236E+04  0.15907137236E+04  0.00000000000E+00 0. -1.
         21   -1    0    0  502  503 -0.00000000000E+00 -0.00000000000E+00 -0.30069865461E+02  0.30069865461E+02  0.00000000000E+00 0.  1.
          6    1    1    2  501    0  0.10011969785E+03  0.58534477589E+02  0.53305007875E+03  0.57229505101E+03  0.17300000000E+03 0.  1.
         -6    1    1    2    0  503 -0.10011969785E+03 -0.58534477589E+02  0.10275937794E+04  0.10484885380E+04  0.17300000000E+03 0. -1.
<mgrwt>
<rscale>  2 0.20827683E+03</rscale>
<asrwt>0</asrwt>
<pdfrwt beam="1">  1       21 0.24472512E+00 0.20827683E+03</pdfrwt>
<pdfrwt beam="2">  1       21 0.46261344E-02 0.20827683E+03</pdfrwt>
<totfact> 0.21630523E+04</totfact>
</mgrwt>
</event>
<event>
 4    1  0.4025504E+000  0.2131609E+03  0.7546771E-02  0.1139087E+00
         21   -1    0    0  501  502  0.00000000000E+00  0.00000000000E+00  0.14205481047E+03  0.14205481047E+03  0.00000000000E+00 0.  1.
         21   -1    0    0  502  503 -0.00000000000E+00 -0.00000000000E+00 -0.33997287039E+03  0.33997287039E+03  0.00000000000E+00 0.  1.
          6    1    1    2  501    0  0.12377418656E+03 -0.13730009894E+02 -0.40336620809E+02  0.21694378398E+03  0.17300000000E+03 0. -1.
         -6    1    1    2    0  503 -0.12377418656E+03  0.13730009894E+02 -0.15758143911E+03  0.26508389687E+03  0.17300000000E+03 0. -1.
<mgrwt>
<rscale>  2 0.21316088E+03</rscale>
<asrwt>0</asrwt>
<pdfrwt beam="1">  1       21 0.21854587E-01 0.21316088E+03</pdfrwt>
<pdfrwt beam="2">  1       21 0.52303518E-01 0.21316088E+03</pdfrwt>
<totfact> 0.67161860E+04</totfact>
</mgrwt>
</event>
<event>
 4    1  0.4025504E+000  0.2282572E+03  0.7546771E-02  0.1127872E+00
         21   -1    0    0  501  502  0.00000000000E+00  0.00000000000E+00  0.35541079689E+03  0.35541079689E+03  0.00000000000E+00 0. -1.
         21   -1    0    0  502  503 -0.00000000000E+00 -0.00000000000E+00 -0.14685647077E+03  0.14685647077E+03  0.00000000000E+00 0.  1.
          6    1    1    2  501    0 -0.13276511089E+03 -0.67422237219E+02  0.11488028767E+03  0.25553632469E+03  0.17300000000E+03 0.  1.
         -6    1    1    2    0  503  0.13276511089E+03  0.67422237219E+02  0.93674038453E+02  0.24673094297E+03  0.17300000000E+03 0.  1.
<mgrwt>
<rscale>  2 0.22825716E+03</rscale>
<asrwt>0</asrwt>
<pdfrwt beam="1">  1       21 0.54678584E-01 0.22825716E+03</pdfrwt>
<pdfrwt beam="2">  1       21 0.22593303E-01 0.22825716E+03</pdfrwt>
<totfact> 0.57048327E+04</totfact>
</mgrwt>
</event>
<event>
 4    1  0.4025504E+000  0.1866476E+03  0.7546771E-02  0.1161520E+00
         21   -1    0    0  501  502  0.00000000000E+00  0.00000000000E+00  0.86369099259E+03  0.86369099259E+03  0.00000000000E+00 0.  1.
         21   -1    0    0  502  503 -0.00000000000E+00 -0.00000000000E+00 -0.40425462736E+02  0.40425462736E+02  0.00000000000E+00 0.  1.
          6    1    1    2  501    0 -0.54438835108E+02 -0.44099241545E+02  0.43296893803E+03  0.47148640614E+03  0.17300000000E+03 0.  1.
         -6    1    1    2    0  503  0.54438835108E+02  0.44099241545E+02  0.39029659182E+03  0.43263004919E+03  0.17300000000E+03 0.  1.
<mgrwt>
<rscale>  2 0.18664761E+03</rscale>
<asrwt>0</asrwt>
<pdfrwt beam="1">  1       21 0.13287552E+00 0.18664761E+03</pdfrwt>
<pdfrwt beam="2">  1       21 0.62193026E-02 0.18664761E+03</pdfrwt>
<totfact> 0.76051236E+04</totfact>
</mgrwt>
</event>
<event>
 4    1  0.4025504E+000  0.1830862E+03  0.7546771E-02  0.1164849E+00
         21   -1    0    0  503  502  0.00000000000E+00  0.00000000000E+00  0.21277100187E+03  0.21277100187E+03  0.00000000000E+00 0.  1.
         21   -1    0    0  501  503 -0.00000000000E+00 -0.00000000000E+00 -0.26625197420E+03  0.26625197420E+03  0.00000000000E+00 0.  1.
          6    1    1    2  501    0 -0.85935161011E+01  0.59310329869E+02 -0.17978325006E+03  0.25659809187E+03  0.17300000000E+03 0.  1.
         -6    1    1    2    0  502  0.85935161011E+01 -0.59310329869E+02  0.12630227774E+03  0.22242488420E+03  0.17300000000E+03 0.  1.
<mgrwt>
<rscale>  2 0.18308622E+03</rscale>
<asrwt>0</asrwt>
<pdfrwt beam="1">  1       21 0.32734000E-01 0.18308622E+03</pdfrwt>
<pdfrwt beam="2">  1       21 0.40961842E-01 0.18308622E+03</pdfrwt>
<totfact> 0.51795604E+04</totfact>
</mgrwt>
</event>
<event>
 4    1  0.4025504E+000  0.2409088E+03  0.7546771E-02  0.1119189E+00
         21   -1    0    0  503  502  0.00000000000E+00  0.00000000000E+00  0.21931061100E+03  0.21931061100E+03  0.00000000000E+00 0.  1.
         21   -1    0    0  501  503 -0.00000000000E+00 -0.00000000000E+00 -0.26532697424E+03  0.26532697424E+03  0.00000000000E+00 0. -1.
          6    1    1    2  501    0  0.66734926991E+02  0.15380023824E+03 -0.35391214604E+02  0.24349456223E+03  0.17300000000E+03 0.  1.
         -6    1    1    2    0  502 -0.66734926991E+02 -0.15380023824E+03 -0.10625148630E+02  0.24114302301E+03  0.17300000000E+03 0.  1.
<mgrwt>
<rscale>  2 0.24090883E+03</rscale>
<asrwt>0</asrwt>
<pdfrwt beam="1">  1       21 0.33740094E-01 0.24090883E+03</pdfrwt>
<pdfrwt beam="2">  1       21 0.40819534E-01 0.24090883E+03</pdfrwt>
<totfact> 0.47853950E+04</totfact>
</mgrwt>
</event>
<event>
 4    1  0.4025504E+000  0.1935550E+03  0.7546771E-02  0.1155293E+00
         21   -1    0    0  503  502  0.00000000000E+00  0.00000000000E+00  0.19600622996E+03  0.19600622996E+03  0.00000000000E+00 0. -1.
         21   -1    0    0  501  503 -0.00000000000E+00 -0.00000000000E+00 -0.22314116738E+03  0.22314116738E+03  0.00000000000E+00 0. -1.
          6    1    1    2  501    0 -0.54547054086E+02 -0.67521631989E+02 -0.92939443543E+02  0.21471211438E+03  0.17300000000E+03 0. -1.
         -6    1    1    2    0  502  0.54547054086E+02  0.67521631989E+02  0.65804506122E+02  0.20443528297E+03  0.17300000000E+03 0. -1.
<mgrwt>
<rscale>  2 0.19355504E+03</rscale>
<asrwt>0</asrwt>
<pdfrwt beam="1">  1       21 0.30154805E-01 0.19355504E+03</pdfrwt>
<pdfrwt beam="2">  1       21 0.34329410E-01 0.19355504E+03</pdfrwt>
<totfact> 0.86240177E+04</totfact>
</mgrwt>
</event>
<event>
 4    1  0.4025504E+000  0.1965115E+03  0.7546771E-02  0.1152716E+00
         21   -1    0    0  501  502  0.00000000000E+00  0.00000000000E+00  0.39789283522E+03  0.39789283522E+03  0.00000000000E+00 0. -1.
         21   -1    0    0  502  503 -0.00000000000E+00 -0.00000000000E+00 -0.11228122283E+03  0.11228122283E+03  0.00000000000E+00 0. -1.
          6    1    1    2  501    0  0.23133352640E+02 -0.90291771964E+02  0.23674723720E+03  0.30767842045E+03  0.17300000000E+03 0. -1.
         -6    1    1    2    0  503 -0.23133352640E+02  0.90291771964E+02  0.48864375193E+02  0.20249563761E+03  0.17300000000E+03 0. -1.
<mgrwt>
<rscale>  2 0.19651147E+03</rscale>
<asrwt>0</asrwt>
<pdfrwt beam="1">  1       21 0.61214281E-01 0.19651147E+03</pdfrwt>
<pdfrwt beam="2">  1       21 0.17274035E-01 0.19651147E+03</pdfrwt>
<totfact> 0.75055358E+04</totfact>
</mgrwt>
</event>
<event>
 4    1  0.4025504E+000  0.1744107E+03  0.7546771E-02  0.1173325E+00
         21   -1    0    0  501  502  0.00000000000E+00  0.00000000000E+00  0.13756964585E+03  0.13756964585E+03  0.00000000000E+00 0. -1.
         21   -1    0    0  502  503 -0.00000000000E+00 -0.00000000000E+00 -0.18306039769E+04  0.18306039769E+04  0.00000000000E+00 0. -1.
          6    1    1    2  501    0  0.15174894234E+02 -0.16118672517E+02  0.76223890887E+02  0.19033961900E+03  0.17300000000E+03 0. -1.
         -6    1    1    2    0  503 -0.15174894234E+02  0.16118672517E+02 -0.17692582220E+04  0.17778340038E+04  0.17300000000E+03 0. -1.
<mgrwt>
<rscale>  2 0.17441069E+03</rscale>
<asrwt>0</asrwt>
<pdfrwt beam="1">  1       21 0.21164563E-01 0.17441069E+03</pdfrwt>
<pdfrwt beam="2">  1       21 0.28163135E+00 0.17441069E+03</pdfrwt>
<totfact> 0.92729304E+02</totfact>
</mgrwt>
</event>
<event>
 4    1  0.4025504E+000  0.2440324E+03  0.7546771E-02  0.1117135E+00
         21   -1    0    0  501  502  0.00000000000E+00  0.00000000000E+00  0.93147023533E+02  0.93147023533E+02  0.00000000000E+00 0.  1.
         21   -1    0    0  502  503 -0.00000000000E+00 -0.00000000000E+00 -0.88809668073E+03  0.88809668073E+03  0.00000000000E+00 0.  1.
          6    1    1    2  501    0 -0.16912780572E+02 -0.17127975316E+03 -0.13781076793E+03  0.28025631794E+03  0.17300000000E+03 0.  1.
         -6    1    1    2    0  503  0.16912780572E+02  0.17127975316E+03 -0.65713888927E+03  0.70098738632E+03  0.17300000000E+03 0.  1.
<mgrwt>
<rscale>  2 0.24403237E+03</rscale>
<asrwt>0</asrwt>
<pdfrwt beam="1">  1       21 0.14330311E-01 0.24403237E+03</pdfrwt>
<pdfrwt beam="2">  1       21 0.13663026E+00 0.24403237E+03</pdfrwt>
<totfact> 0.15723420E+04</totfact>
</mgrwt>
</event>
<event>
 4    1  0.4025504E+000  0.1966363E+03  0.7546771E-02  0.1152608E+00
         21   -1    0    0  503  502  0.00000000000E+00  0.00000000000E+00  0.26589686318E+03  0.26589686318E+03  0.00000000000E+00 0. -1.
         21   -1    0    0  501  503 -0.00000000000E+00 -0.00000000000E+00 -0.46537868335E+03  0.46537868335E+03  0.00000000000E+00 0. -1.
          6    1    1    2  501    0  0.63129587008E+02  0.68930970504E+02 -0.40291847167E+03  0.44834040445E+03  0.17300000000E+03 0. -1.
         -6    1    1    2    0  502 -0.63129587008E+02 -0.68930970504E+02  0.20343665150E+03  0.28293514208E+03  0.17300000000E+03 0. -1.
<mgrwt>
<rscale>  2 0.19663627E+03</rscale>
<asrwt>0</asrwt>
<pdfrwt beam="1">  1       21 0.40907210E-01 0.19663627E+03</pdfrwt>
<pdfrwt beam="2">  1       21 0.71596720E-01 0.19663627E+03</pdfrwt>
<totfact> 0.10119631E+04</totfact>
</mgrwt>
</event>
<event>
 4    1  0.4025504E+000  0.2001634E+03  0.7546771E-02  0.1149601E+00
         21   -1    0    0  503  502  0.00000000000E+00  0.00000000000E+00  0.17822277047E+03  0.17822277047E+03  0.00000000000E+00 0. -1.
         21   -1    0    0  501  503 -0.00000000000E+00 -0.00000000000E+00 -0.24437962764E+03  0.24437962764E+03  0.00000000000E+00 0. -1.
          6    1    1    2  501    0  0.99958268408E+02 -0.12030340098E+02 -0.92880373507E+02  0.22066297444E+03  0.17300000000E+03 0. -1.
         -6    1    1    2    0  502 -0.99958268408E+02  0.12030340098E+02  0.26723516340E+02  0.20193942367E+03  0.17300000000E+03 0. -1.
<mgrwt>
<rscale>  2 0.20016339E+03</rscale>
<asrwt>0</asrwt>
<pdfrwt beam="1">  1       21 0.27418888E-01 0.20016339E+03</pdfrwt>
<pdfrwt beam="2">  1       21 0.37596866E-01 0.20016339E+03</pdfrwt>
<totfact> 0.86290615E+04</totfact>
</mgrwt>
</event>
<event>
 4    1  0.4025504E+000  0.1853256E+03  0.7546771E-02  0.1162746E+00
         21   -1    0    0  501  502  0.00000000000E+00  0.00000000000E+00  0.80520124859E+02  0.80520124859E+02  0.00000000000E+00 0. -1.
         21   -1    0    0  502  503 -0.00000000000E+00 -0.00000000000E+00 -0.94240122319E+03  0.94240122319E+03  0.00000000000E+00 0. -1.
          6    1    1    2  501    0 -0.66114857564E+02 -0.67386696748E+01 -0.52534563846E+02  0.19262778735E+03  0.17300000000E+03 0. -1.
         -6    1    1    2    0  503  0.66114857564E+02  0.67386696748E+01 -0.80934653448E+03  0.83029356070E+03  0.17300000000E+03 0. -1.
<mgrwt>
<rscale>  2 0.18532562E+03</rscale>
<asrwt>0</asrwt>
<pdfrwt beam="1">  1       21 0.12387712E-01 0.18532562E+03</pdfrwt>
<pdfrwt beam="2">  1       21 0.14498480E+00 0.18532562E+03</pdfrwt>
<totfact> 0.18203159E+04</totfact>
</mgrwt>
</event>
<event>
 4    1  0.4025504E+000  0.2459578E+03  0.7546771E-02  0.1115886E+00
         21   -1    0    0  503  502  0.00000000000E+00  0.00000000000E+00  0.75058767655E+03  0.75058767655E+03  0.00000000000E+00 0.  1.
         21   -1    0    0  501  503 -0.00000000000E+00 -0.00000000000E+00 -0.80621954293E+02  0.80621954293E+02  0.00000000000E+00 0.  1.
          6    1    1    2  501    0 -0.11072325194E+03  0.13530182776E+03  0.34227355937E+03  0.42148121258E+03  0.17300000000E+03 0.  1.
         -6    1    1    2    0  502  0.11072325194E+03 -0.13530182776E+03  0.32769216288E+03  0.40972841826E+03  0.17300000000E+03 0.  1.
<mgrwt>
<rscale>  2 0.24595777E+03</rscale>
<asrwt>0</asrwt>
<pdfrwt beam="1">  1       21 0.11547502E+00 0.24595777E+03</pdfrwt>
<pdfrwt beam="2">  1       21 0.12403378E-01 0.24595777E+03</pdfrwt>
<totfact> 0.31200266E+04</totfact>
</mgrwt>
</event>
<event>
 4    1  0.4025504E+000  0.2615488E+03  0.7546771E-02  0.1106216E+00
         21   -1    0    0  503  502  0.00000000000E+00  0.00000000000E+00  0.20201693232E+03  0.20201693232E+03  0.00000000000E+00 0.  1.
         21   -1    0    0  501  503 -0.00000000000E+00 -0.00000000000E+00 -0.39933270508E+03  0.39933270508E+03  0.00000000000E+00 0. -1.
          6    1    1    2  501    0  0.17899692048E+03 -0.80242555121E+02 -0.21589237531E+03  0.33914198046E+03  0.17300000000E+03 0. -1.
         -6    1    1    2    0  502 -0.17899692048E+03  0.80242555121E+02  0.18576602556E+02  0.26220765694E+03  0.17300000000E+03 0.  1.
<mgrwt>
<rscale>  2 0.26154878E+03</rscale>
<asrwt>0</asrwt>
<pdfrwt beam="1">  1       21 0.31079528E-01 0.26154878E+03</pdfrwt>
<pdfrwt beam="2">  1       21 0.61435801E-01 0.26154878E+03</pdfrwt>
<totfact> 0.23637120E+04</totfact>
</mgrwt>
</event>
<event>
 4    1  0.4025504E+000  0.1806201E+03  0.7546771E-02  0.1167204E+00
         21   -1    0    0  503  502  0.00000000000E+00  0.00000000000E+00  0.21476028664E+03  0.21476028664E+03  0.00000000000E+00 0. -1.
         21   -1    0    0  501  503 -0.00000000000E+00 -0.00000000000E+00 -0.18139184193E+03  0.18139184193E+03  0.00000000000E+00 0. -1.
          6    1    1    2  501    0 -0.29120953912E+02  0.42971799403E+02 -0.63174438393E+02  0.19134945824E+03  0.17300000000E+03 0. -1.
         -6    1    1    2    0  502  0.29120953912E+02 -0.42971799403E+02  0.96542883103E+02  0.20480267034E+03  0.17300000000E+03 0. -1.
<mgrwt>
<rscale>  2 0.18062006E+03</rscale>
<asrwt>0</asrwt>
<pdfrwt beam="1">  1       21 0.33040044E-01 0.18062006E+03</pdfrwt>
<pdfrwt beam="2">  1       21 0.27906437E-01 0.18062006E+03</pdfrwt>
<totfact> 0.10862449E+05</totfact>
</mgrwt>
</event>
<event>
 4    1  0.4025504E+000  0.1904277E+03  0.7546771E-02  0.1158076E+00
         21   -1    0    0  501  502  0.00000000000E+00  0.00000000000E+00  0.13047305316E+03  0.13047305316E+03  0.00000000000E+00 0.  1.
         21   -1    0    0  502  503 -0.00000000000E+00 -0.00000000000E+00 -0.27798823785E+03  0.27798823785E+03  0.00000000000E+00 0.  1.
          6    1    1    2  501    0 -0.25569485918E+02 -0.75365248017E+02 -0.70869151285E+02  0.20318748934E+03  0.17300000000E+03 0.  1.
         -6    1    1    2    0  503  0.25569485918E+02  0.75365248017E+02 -0.76646033397E+02  0.20527380168E+03  0.17300000000E+03 0.  1.
<mgrwt>
<rscale>  2 0.19042773E+03</rscale>
<asrwt>0</asrwt>
<pdfrwt beam="1">  1       21 0.20072778E-01 0.19042773E+03</pdfrwt>
<pdfrwt beam="2">  1       21 0.42767421E-01 0.19042773E+03</pdfrwt>
<totfact> 0.12066402E+05</totfact>
</mgrwt>
</event>
<event>
 4    1  0.4025504E+000  0.1803078E+03  0.7546771E-02  0.1167505E+00
         21   -1    0    0  501  502  0.00000000000E+00  0.00000000000E+00  0.22792869295E+03  0.22792869295E+03  0.00000000000E+00 0. -1.
         21   -1    0    0  502  503 -0.00000000000E+00 -0.00000000000E+00 -0.15842010427E+03  0.15842010427E+03  0.00000000000E+00 0. -1.
          6    1    1    2  501    0  0.38403642093E+02  0.33272556631E+02  0.95729100218E+02  0.20414446693E+03  0.17300000000E+03 0. -1.
         -6    1    1    2    0  503 -0.38403642093E+02 -0.33272556631E+02 -0.26220511535E+02  0.18220433029E+03  0.17300000000E+03 0. -1.
<mgrwt>
<rscale>  2 0.18030780E+03</rscale>
<asrwt>0</asrwt>
<pdfrwt beam="1">  1       21 0.35065953E-01 0.18030780E+03</pdfrwt>
<pdfrwt beam="2">  1       21 0.24372324E-01 0.18030780E+03</pdfrwt>
<totfact> 0.12518237E+05</totfact>
</mgrwt>
</event>
<event>
 4    1  0.4025504E+000  0.2790066E+03  0.7546771E-02  0.1096233E+00
         21   -1    0    0  503  502  0.00000000000E+00  0.00000000000E+00  0.22466483963E+03  0.22466483963E+03  0.00000000000E+00 0.  1.
         21   -1    0    0  501  503 -0.00000000000E+00 -0.00000000000E+00 -0.44409472870E+03  0.44409472870E+03  0.00000000000E+00 0.  1.
          6    1    1    2  501    0  0.43529672251E+02  0.21452470273E+03 -0.26647380082E+03  0.38581467957E+03  0.17300000000E+03 0.  1.
         -6    1    1    2    0  502 -0.43529672251E+02 -0.21452470273E+03  0.47043911750E+02  0.28294488877E+03  0.17300000000E+03 0.  1.
<mgrwt>
<rscale>  2 0.27900660E+03</rscale>
<asrwt>0</asrwt>
<pdfrwt beam="1">  1       21 0.34563822E-01 0.27900660E+03</pdfrwt>
<pdfrwt beam="2">  1       21 0.68322265E-01 0.27900660E+03</pdfrwt>
<totfact> 0.15042078E+04</totfact>
</mgrwt>
</event>
<event>
 4    1  0.4025504E+000  0.1834849E+03  0.7546771E-02  0.1164472E+00
         21   -1    0    0  501  502  0.00000000000E+00  0.00000000000E+00  0.49242017502E+03  0.49242017502E+03  0.00000000000E+00 0. -1.
         21   -1    0    0  502  503 -0.00000000000E+00 -0.00000000000E+00 -0.72913366235E+02  0.72913366235E+02  0.00000000000E+00 0. -1.
          6    1    1    2  501    0 -0.59694033377E+00  0.61133806310E+02  0.28031472966E+03  0.33502693366E+03  0.17300000000E+03 0.  1.
         -6    1    1    2    0  503  0.59694033377E+00 -0.61133806310E+02  0.13919207912E+03  0.23030660760E+03  0.17300000000E+03 0.  1.
<mgrwt>
<rscale>  2 0.18348487E+03</rscale>
<asrwt>0</asrwt>
<pdfrwt beam="1">  1       21 0.75756948E-01 0.18348487E+03</pdfrwt>
<pdfrwt beam="2">  1       21 0.11217441E-01 0.18348487E+03</pdfrwt>
<totfact> 0.10326202E+05</totfact>
</mgrwt>
</event>
<event>
 4    1  0.4025504E+000  0.1776634E+03  0.7546771E-02  0.1170084E+00
         21   -1    0    0  501  502  0.00000000000E+00  0.00000000000E+00  0.27509786981E+03  0.27509786981E+03  0.00000000000E+00 0. -1.
         21   -1    0    0  502  503 -0.00000000000E+00 -0.00000000000E+00 -0.19367061307E+03  0.19367061307E+03  0.00000000000E+00 0. -1.
          6    1    1    2  501    0 -0.77464680825E+01  0.39689918109E+02  0.19034532686E+03  0.26037596054E+03  0.17300000000E+03 0. -1.
         -6    1    1    2    0  503  0.77464680825E+01 -0.39689918109E+02 -0.10891807012E+03  0.20839252234E+03  0.17300000000E+03 0. -1.
<mgrwt>
<rscale>  2 0.17766344E+03</rscale>
<asrwt>0</asrwt>
<pdfrwt beam="1">  1       21 0.42322749E-01 0.17766344E+03</pdfrwt>
<pdfrwt beam="2">  1       21 0.29795479E-01 0.17766344E+03</pdfrwt>
<totfact> 0.58405376E+04</totfact>
</mgrwt>
</event>
<event>
 4    1  0.4025504E+000  0.3047695E+03  0.7546771E-02  0.1082880E+00
         21   -1    0    0  503  502  0.00000000000E+00  0.00000000000E+00  0.55203531311E+03  0.55203531311E+03  0.00000000000E+00 0. -1.
         21   -1    0    0  501  503 -0.00000000000E+00 -0.00000000000E+00 -0.20992460827E+03  0.20992460827E+03  0.00000000000E+00 0.  1.
          6    1    1    2  501    0  0.24522847467E+03  0.53088887269E+02  0.13233227598E+01  0.30477235099E+03  0.17300000000E+03 0.  1.
         -6    1    1    2    0  502 -0.24522847467E+03 -0.53088887269E+02  0.34078738208E+03  0.45718757040E+03  0.17300000000E+03 0. -1.
<mgrwt>
<rscale>  2 0.30476948E+03</rscale>
<asrwt>0</asrwt>
<pdfrwt beam="1">  1       21 0.84928509E-01 0.30476948E+03</pdfrwt>
<pdfrwt beam="2">  1       21 0.32296094E-01 0.30476948E+03</pdfrwt>
<totfact> 0.10400394E+04</totfact>
</mgrwt>
</event>
<event>
 4    1  0.4025504E+000  0.1776766E+03  0.7546771E-02  0.1170071E+00
         21   -1    0    0  501  502  0.00000000000E+00  0.00000000000E+00  0.24375975388E+03  0.24375975388E+03  0.00000000000E+00 0.  1.
         21   -1    0    0  502  503 -0.00000000000E+00 -0.00000000000E+00 -0.20981176278E+03  0.20981176278E+03  0.00000000000E+00 0.  1.
          6    1    1    2  501    0 -0.34420581174E+02  0.21335196241E+02  0.15727713238E+03  0.23728687991E+03  0.17300000000E+03 0.  1.
         -6    1    1    2    0  503  0.34420581174E+02 -0.21335196241E+02 -0.12332914128E+03  0.21628463675E+03  0.17300000000E+03 0.  1.
<mgrwt>
<rscale>  2 0.17767658E+03</rscale>
<asrwt>0</asrwt>
<pdfrwt beam="1">  1       21 0.37501501E-01 0.17767658E+03</pdfrwt>
<pdfrwt beam="2">  1       21 0.32278733E-01 0.17767658E+03</pdfrwt>
<totfact> 0.63738312E+04</totfact>
</mgrwt>
</event>
<event>
 4    1  0.4025504E+000  0.2258323E+03  0.7546771E-02  0.1129608E+00
         21   -1    0    0  503  502  0.00000000000E+00  0.00000000000E+00  0.61944484099E+03  0.61944484099E+03  0.00000000000E+00 0.  1.
         21   -1    0    0  501  503 -0.00000000000E+00 -0.00000000000E+00 -0.84537106098E+02  0.84537106098E+02  0.00000000000E+00 0. -1.
          6    1    1    2  501    0 -0.44755696782E+02 -0.13808756231E+03  0.21060728474E+03  0.30879714319E+03  0.17300000000E+03 0.  1.
         -6    1    1    2    0  502  0.44755696782E+02  0.13808756231E+03  0.32430045015E+03  0.39518480389E+03  0.17300000000E+03 0. -1.
<mgrwt>
<rscale>  2 0.22583234E+03</rscale>
<asrwt>0</asrwt>
<pdfrwt beam="1">  1       21 0.95299203E-01 0.22583234E+03</pdfrwt>
<pdfrwt beam="2">  1       21 0.13005709E-01 0.22583234E+03</pdfrwt>
<totfact> 0.45938339E+04</totfact>
</mgrwt>
</event>
<event>
 4    1  0.4025504E+000  0.1929052E+03  0.7546771E-02  0.1155867E+00
         21   -1    0    0  503  502  0.00000000000E+00  0.00000000000E+00  0.17426609326E+03  0.17426609326E+03  0.00000000000E+00 0. -1.
         21   -1    0    0  501  503 -0.00000000000E+00 -0.00000000000E+00 -0.22167043517E+03  0.22167043517E+03  0.00000000000E+00 0. -1.
          6    1    1    2  501    0  0.83942436213E+02 -0.15397890797E+02  0.14216474787E+02  0.19342837381E+03  0.17300000000E+03 0. -1.
         -6    1    1    2    0  502 -0.83942436213E+02  0.15397890797E+02 -0.61620816690E+02  0.20250815462E+03  0.17300000000E+03 0. -1.
<mgrwt>
<rscale>  2 0.19290523E+03</rscale>
<asrwt>0</asrwt>
<pdfrwt beam="1">  1       21 0.26810168E-01 0.19290523E+03</pdfrwt>
<pdfrwt beam="2">  1       21 0.34103144E-01 0.19290523E+03</pdfrwt>
<totfact> 0.10975377E+05</totfact>
</mgrwt>
</event>
<event>
 4    1  0.4025504E+000  0.2649629E+03  0.7546771E-02  0.1104198E+00
         21   -1    0    0  503  502  0.00000000000E+00  0.00000000000E+00  0.14695222947E+03  0.14695222947E+03  0.00000000000E+00 0.  1.
         21   -1    0    0  501  503 -0.00000000000E+00 -0.00000000000E+00 -0.96269753505E+03  0.96269753505E+03  0.00000000000E+00 0. -1.
          6    1    1    2  501    0  0.56994669806E+01 -0.20060867458E+03 -0.80165998388E+03  0.84431277025E+03  0.17300000000E+03 0. -1.
         -6    1    1    2    0  502 -0.56994669806E+01  0.20060867458E+03 -0.14085321704E+02  0.26533699427E+03  0.17300000000E+03 0.  1.
<mgrwt>
<rscale>  2 0.26496287E+03</rscale>
<asrwt>0</asrwt>
<pdfrwt beam="1">  1       21 0.22608035E-01 0.26496287E+03</pdfrwt>
<pdfrwt beam="2">  1       21 0.14810731E+00 0.26496287E+03</pdfrwt>
<totfact> 0.53775516E+03</totfact>
</mgrwt>
</event>
<event>
 4    1  0.4025504E+000  0.1928172E+03  0.7546771E-02  0.1155945E+00
         21   -1    0    0  501  502  0.00000000000E+00  0.00000000000E+00  0.96166708775E+02  0.96166708775E+02  0.00000000000E+00 0.  1.
         21   -1    0    0  502  503 -0.00000000000E+00 -0.00000000000E+00 -0.57537655524E+03  0.57537655524E+03  0.00000000000E+00 0. -1.
          6    1    1    2  501    0  0.45197971224E+01 -0.85023725608E+02 -0.43193048541E+03  0.47301417178E+03  0.17300000000E+03 0. -1.
         -6    1    1    2    0  503 -0.45197971224E+01  0.85023725608E+02 -0.47279361062E+02  0.19852909224E+03  0.17300000000E+03 0.  1.
<mgrwt>
<rscale>  2 0.19281717E+03</rscale>
<asrwt>0</asrwt>
<pdfrwt beam="1">  1       21 0.14794878E-01 0.19281717E+03</pdfrwt>
<pdfrwt beam="2">  1       21 0.88519471E-01 0.19281717E+03</pdfrwt>
<totfact> 0.43908471E+04</totfact>
</mgrwt>
</event>
<event>
 4    1  0.4025504E+000  0.1910175E+03  0.7546771E-02  0.1157547E+00
         21   -1    0    0  501  502  0.00000000000E+00  0.00000000000E+00  0.30803306837E+03  0.30803306837E+03  0.00000000000E+00 0.  1.
         21   -1    0    0  502  503 -0.00000000000E+00 -0.00000000000E+00 -0.19857253444E+03  0.19857253444E+03  0.00000000000E+00 0.  1.
          6    1    1    2  501    0 -0.72900132422E+02 -0.35273750689E+02  0.21562714809E+03  0.28806723831E+03  0.17300000000E+03 0.  1.
         -6    1    1    2    0  503  0.72900132422E+02  0.35273750689E+02 -0.10616661416E+03  0.21853836450E+03  0.17300000000E+03 0.  1.
<mgrwt>
<rscale>  2 0.19101745E+03</rscale>
<asrwt>0</asrwt>
<pdfrwt beam="1">  1       21 0.47389703E-01 0.19101745E+03</pdfrwt>
<pdfrwt beam="2">  1       21 0.30549621E-01 0.19101745E+03</pdfrwt>
<totfact> 0.43844780E+04</totfact>
</mgrwt>
</event>
<event>
 4    1  0.4025504E+000  0.1740006E+03  0.7546771E-02  0.1173739E+00
         21   -1    0    0  501  502  0.00000000000E+00  0.00000000000E+00  0.27436727161E+03  0.27436727161E+03  0.00000000000E+00 0. -1.
         21   -1    0    0  502  503 -0.00000000000E+00 -0.00000000000E+00 -0.24597888645E+03  0.24597888645E+03  0.00000000000E+00 0. -1.
          6    1    1    2  501    0 -0.11382450867E+02  0.14752982925E+02  0.20738693600E+03  0.27071304349E+03  0.17300000000E+03 0. -1.
         -6    1    1    2    0  503  0.11382450867E+02 -0.14752982925E+02 -0.17899855084E+03  0.24963311458E+03  0.17300000000E+03 0. -1.
<mgrwt>
<rscale>  2 0.17400061E+03</rscale>
<asrwt>0</asrwt>
<pdfrwt beam="1">  1       21 0.42210350E-01 0.17400061E+03</pdfrwt>
<pdfrwt beam="2">  1       21 0.37842906E-01 0.17400061E+03</pdfrwt>
<totfact> 0.36725995E+04</totfact>
</mgrwt>
</event>
<event>
 4    1  0.4025504E+000  0.2325997E+03  0.7546771E-02  0.1124823E+00
         21   -1    0    0  501  502  0.00000000000E+00  0.00000000000E+00  0.10414194644E+04  0.10414194644E+04  0.00000000000E+00 0. -1.
         21   -1    0    0  502  503 -0.00000000000E+00 -0.00000000000E+00 -0.72690195505E+02  0.72690195505E+02  0.00000000000E+00 0. -1.
          6    1    1    2  501    0  0.10202375811E+02  0.15514360604E+03  0.78191298225E+03  0.81577603469E+03  0.17300000000E+03 0. -1.
         -6    1    1    2    0  503 -0.10202375811E+02 -0.15514360604E+03  0.18681628660E+03  0.29833362516E+03  0.17300000000E+03 0. -1.
<mgrwt>
<rscale>  2 0.23259971E+03</rscale>
<asrwt>0</asrwt>
<pdfrwt beam="1">  1       21 0.16021837E+00 0.23259971E+03</pdfrwt>
<pdfrwt beam="2">  1       21 0.11183108E-01 0.23259971E+03</pdfrwt>
<totfact> 0.16245648E+04</totfact>
</mgrwt>
</event>
<event>
 4    1  0.4025504E+000  0.1818511E+03  0.7546771E-02  0.1166023E+00
         21   -1    0    0  503  502  0.00000000000E+00  0.00000000000E+00  0.26031679422E+03  0.26031679422E+03  0.00000000000E+00 0. -1.
         21   -1    0    0  501  503 -0.00000000000E+00 -0.00000000000E+00 -0.21931698112E+03  0.21931698112E+03  0.00000000000E+00 0. -1.
          6    1    1    2  501    0  0.11831346100E+02 -0.54779884281E+02 -0.13506005111E+03  0.22651938963E+03  0.17300000000E+03 0. -1.
         -6    1    1    2    0  502 -0.11831346100E+02  0.54779884281E+02  0.17605986421E+03  0.25311438572E+03  0.17300000000E+03 0. -1.
<mgrwt>
<rscale>  2 0.18185108E+03</rscale>
<asrwt>0</asrwt>
<pdfrwt beam="1">  1       21 0.40048738E-01 0.18185108E+03</pdfrwt>
<pdfrwt beam="2">  1       21 0.33741074E-01 0.18185108E+03</pdfrwt>
<totfact> 0.51099023E+04</totfact>
</mgrwt>
</event>
<event>
 4    1  0.4025504E+000  0.2636353E+03  0.7546771E-02  0.1104979E+00
         21   -1    0    0  501  502  0.00000000000E+00  0.00000000000E+00  0.10251104335E+04  0.10251104335E+04  0.00000000000E+00 0.  1.
         21   -1    0    0  502  503 -0.00000000000E+00 -0.00000000000E+00 -0.61953051603E+03  0.61953051603E+03  0.00000000000E+00 0. -1.
          6    1    1    2  501    0  0.64447887408E+02 -0.18820481814E+03  0.97880981514E+03  0.10136923784E+04  0.17300000000E+03 0.  1.
         -6    1    1    2    0  503 -0.64447887408E+02  0.18820481814E+03 -0.57322989771E+03  0.63094857111E+03  0.17300000000E+03 0. -1.
<mgrwt>
<rscale>  2 0.26363532E+03</rscale>
<asrwt>0</asrwt>
<pdfrwt beam="1">  1       21 0.15770930E+00 0.26363532E+03</pdfrwt>
<pdfrwt beam="2">  1       21 0.95312387E-01 0.26363532E+03</pdfrwt>
<totfact> 0.22266717E+02</totfact>
</mgrwt>
</event>
<event>
 4    1  0.4025504E+000  0.2280205E+03  0.7546771E-02  0.1128041E+00
         21   -1    0    0  501  502  0.00000000000E+00  0.00000000000E+00  0.42941909882E+03  0.42941909882E+03  0.00000000000E+00 0.  1.
         21   -1    0    0  502  503 -0.00000000000E+00 -0.00000000000E+00 -0.22377679029E+03  0.22377679029E+03  0.00000000000E+00 0.  1.
          6    1    1    2  501    0  0.35110596011E+02 -0.14433155982E+03  0.32407349037E+03  0.39625368172E+03  0.17300000000E+03 0.  1.
         -6    1    1    2    0  503 -0.35110596011E+02  0.14433155982E+03 -0.11843118184E+03  0.25694220740E+03  0.17300000000E+03 0.  1.
<mgrwt>
<rscale>  2 0.22802051E+03</rscale>
<asrwt>0</asrwt>
<pdfrwt beam="1">  1       21 0.66064476E-01 0.22802051E+03</pdfrwt>
<pdfrwt beam="2">  1       21 0.34427199E-01 0.22802051E+03</pdfrwt>
<totfact> 0.16748510E+04</totfact>
</mgrwt>
</event>
<event>
 4    1  0.4025504E+000  0.2375465E+03  0.7546771E-02  0.1121438E+00
         21   -1    0    0  501  502  0.00000000000E+00  0.00000000000E+00  0.45037822677E+03  0.45037822677E+03  0.00000000000E+00 0.  1.
         21   -1    0    0  502  503 -0.00000000000E+00 -0.00000000000E+00 -0.41854475293E+03  0.41854475293E+03  0.00000000000E+00 0. -1.
          6    1    1    2  501    0 -0.71333694437E+02 -0.14632438188E+03  0.37958228057E+03  0.44778457813E+03  0.17300000000E+03 0.  1.
         -6    1    1    2    0  503  0.71333694437E+02  0.14632438188E+03 -0.34774880673E+03  0.42113840157E+03  0.17300000000E+03 0. -1.
<mgrwt>
<rscale>  2 0.23754646E+03</rscale>
<asrwt>0</asrwt>
<pdfrwt beam="1">  1       21 0.69288958E-01 0.23754646E+03</pdfrwt>
<pdfrwt beam="2">  1       21 0.64391501E-01 0.23754646E+03</pdfrwt>
<totfact> 0.40764599E+03</totfact>
</mgrwt>
</event>
<event>
 4    1  0.4025504E+000  0.2447457E+03  0.7546771E-02  0.1116671E+00
         21   -1    0    0  503  502  0.00000000000E+00  0.00000000000E+00  0.85099400408E+03  0.85099400408E+03  0.00000000000E+00 0. -1.
         21   -1    0    0  501  503 -0.00000000000E+00 -0.00000000000E+00 -0.12004949423E+03  0.12004949423E+03  0.00000000000E+00 0. -1.
          6    1    1    2  501    0  0.16055904626E+03  0.64747708429E+02  0.53199007473E+02  0.25046079030E+03  0.17300000000E+03 0. -1.
         -6    1    1    2    0  502 -0.16055904626E+03 -0.64747708429E+02  0.67774550238E+03  0.72058270801E+03  0.17300000000E+03 0. -1.
<mgrwt>
<rscale>  2 0.24474573E+03</rscale>
<asrwt>0</asrwt>
<pdfrwt beam="1">  1       21 0.13092215E+00 0.24474573E+03</pdfrwt>
<pdfrwt beam="2">  1       21 0.18469154E-01 0.24474573E+03</pdfrwt>
<totfact> 0.10982311E+04</totfact>
</mgrwt>
</event>
<event>
 4    1  0.4025504E+000  0.1852108E+03  0.7546771E-02  0.1162853E+00
         21   -1    0    0  501  502  0.00000000000E+00  0.00000000000E+00  0.21088815725E+03  0.21088815725E+03  0.00000000000E+00 0. -1.
         21   -1    0    0  502  503 -0.00000000000E+00 -0.00000000000E+00 -0.17023901711E+03  0.17023901711E+03  0.00000000000E+00 0. -1.
          6    1    1    2  501    0  0.46183025383E+02  0.47340946246E+02  0.60533357228E+02  0.19485205763E+03  0.17300000000E+03 0. -1.
         -6    1    1    2    0  503 -0.46183025383E+02 -0.47340946246E+02 -0.19884217092E+02  0.18627511673E+03  0.17300000000E+03 0. -1.
<mgrwt>
<rscale>  2 0.18521079E+03</rscale>
<asrwt>0</asrwt>
<pdfrwt beam="1">  1       21 0.32444332E-01 0.18521079E+03</pdfrwt>
<pdfrwt beam="2">  1       21 0.26190618E-01 0.18521079E+03</pdfrwt>
<totfact> 0.12698636E+05</totfact>
</mgrwt>
</event>
<event>
 4    1  0.4025504E+000  0.1880009E+03  0.7546771E-02  0.1160277E+00
         21   -1    0    0  503  502  0.00000000000E+00  0.00000000000E+00  0.13281611128E+03  0.13281611128E+03  0.00000000000E+00 0.  1.
         21   -1    0    0  501  503 -0.00000000000E+00 -0.00000000000E+00 -0.10375637014E+04  0.10375637014E+04  0.00000000000E+00 0.  1.
          6    1    1    2  501    0 -0.31473186638E+02 -0.66519095546E+02 -0.95696884365E+03  0.97526084678E+03  0.17300000000E+03 0.  1.
         -6    1    1    2    0  502  0.31473186638E+02  0.66519095546E+02  0.52221253501E+02  0.19511896593E+03  0.17300000000E+03 0.  1.
<mgrwt>
<rscale>  2 0.18800093E+03</rscale>
<asrwt>0</asrwt>
<pdfrwt beam="1">  1       21 0.20433249E-01 0.18800093E+03</pdfrwt>
<pdfrwt beam="2">  1       21 0.15962518E+00 0.18800093E+03</pdfrwt>
<totfact> 0.56393094E+03</totfact>
</mgrwt>
</event>
<event>
 4    1  0.4025504E+000  0.2270340E+03  0.7546771E-02  0.1128745E+00
         21   -1    0    0  503  502  0.00000000000E+00  0.00000000000E+00  0.60386658675E+02  0.60386658675E+02  0.00000000000E+00 0.  1.
         21   -1    0    0  501  503 -0.00000000000E+00 -0.00000000000E+00 -0.89009889779E+03  0.89009889779E+03  0.00000000000E+00 0. -1.
          6    1    1    2  501    0  0.14173673149E+03  0.39066048615E+02 -0.51112663993E+03  0.55928069809E+03  0.17300000000E+03 0. -1.
         -6    1    1    2    0  502 -0.14173673149E+03 -0.39066048615E+02 -0.31858559918E+03  0.39120485838E+03  0.17300000000E+03 0.  1.
<mgrwt>
<rscale>  2 0.22703404E+03</rscale>
<asrwt>0</asrwt>
<pdfrwt beam="1">  1       21 0.92902557E-02 0.22703404E+03</pdfrwt>
<pdfrwt beam="2">  1       21 0.13693828E+00 0.22703404E+03</pdfrwt>
<totfact> 0.34319594E+04</totfact>
</mgrwt>
</event>
<event>
 4    1  0.4025504E+000  0.1767556E+03  0.7546771E-02  0.1170980E+00
         21   -1    0    0  501  502  0.00000000000E+00  0.00000000000E+00  0.53267422323E+03  0.53267422323E+03  0.00000000000E+00 0. -1.
         21   -1    0    0  502  503 -0.00000000000E+00 -0.00000000000E+00 -0.15786385306E+03  0.15786385306E+03  0.00000000000E+00 0. -1.
          6    1    1    2  501    0  0.51685129642E+01  0.35872339373E+02  0.46111951401E+03  0.49383574644E+03  0.17300000000E+03 0. -1.
         -6    1    1    2    0  503 -0.51685129642E+01 -0.35872339373E+02 -0.86309143836E+02  0.19670232985E+03  0.17300000000E+03 0. -1.
<mgrwt>
<rscale>  2 0.17675559E+03</rscale>
<asrwt>0</asrwt>
<pdfrwt beam="1">  1       21 0.81949879E-01 0.17675559E+03</pdfrwt>
<pdfrwt beam="2">  1       21 0.24286747E-01 0.17675559E+03</pdfrwt>
<totfact> 0.21046253E+04</totfact>
</mgrwt>
</event>
<event>
 4    1  0.4025504E+000  0.2014723E+03  0.7546771E-02  0.1148503E+00
         21   -1    0    0  501  502  0.00000000000E+00  0.00000000000E+00  0.76818781187E+02  0.76818781187E+02  0.00000000000E+00 0. -1.
         21   -1    0    0  502  503 -0.00000000000E+00 -0.00000000000E+00 -0.61935970478E+03  0.61935970478E+03  0.00000000000E+00 0. -1.
          6    1    1    2  501    0  0.11881824648E+02 -0.10257142515E+03 -0.13787449912E+03  0.24413203912E+03  0.17300000000E+03 0. -1.
         -6    1    1    2    0  503 -0.11881824648E+02  0.10257142515E+03 -0.40466642447E+03  0.45204644685E+03  0.17300000000E+03 0. -1.
<mgrwt>
<rscale>  2 0.20147227E+03</rscale>
<asrwt>0</asrwt>
<pdfrwt beam="1">  1       21 0.11818274E-01 0.20147227E+03</pdfrwt>
<pdfrwt beam="2">  1       21 0.95286112E-01 0.20147227E+03</pdfrwt>
<totfact> 0.55228089E+04</totfact>
</mgrwt>
</event>
<event>
 4    1  0.4025504E+000  0.1763228E+03  0.7546771E-02  0.1171410E+00
         21   -1    0    0  501  502  0.00000000000E+00  0.00000000000E+00  0.61298563813E+02  0.61298563813E+02  0.00000000000E+00 0. -1.
         21   -1    0    0  502  503 -0.00000000000E+00 -0.00000000000E+00 -0.52140720598E+03  0.52140720598E+03  0.00000000000E+00 0. -1.
          6    1    1    2  501    0 -0.27141558127E+02  0.20592908105E+02 -0.18193612693E+03  0.25335841475E+03  0.17300000000E+03 0. -1.
         -6    1    1    2    0  503  0.27141558127E+02 -0.20592908105E+02 -0.27817251523E+03  0.32934735504E+03  0.17300000000E+03 0. -1.
<mgrwt>
<rscale>  2 0.17632281E+03</rscale>
<asrwt>0</asrwt>
<pdfrwt beam="1">  1       21 0.94305484E-02 0.17632281E+03</pdfrwt>
<pdfrwt beam="2">  1       21 0.80216492E-01 0.17632281E+03</pdfrwt>
<totfact> 0.12374858E+05</totfact>
</mgrwt>
</event>
<event>
 4    1  0.4025504E+000  0.2154092E+03  0.7546771E-02  0.1137353E+00
         21   -1    0    0  503  502  0.00000000000E+00  0.00000000000E+00  0.54388618034E+02  0.54388618034E+02  0.00000000000E+00 0.  1.
         21   -1    0    0  501  503 -0.00000000000E+00 -0.00000000000E+00 -0.85848887037E+03  0.85848887037E+03  0.00000000000E+00 0.  1.
          6    1    1    2  501    0  0.12771132333E+03  0.12725834363E+02 -0.36602307197E+03  0.42470462463E+03  0.17300000000E+03 0.  1.
         -6    1    1    2    0  502 -0.12771132333E+03 -0.12725834363E+02 -0.43807718037E+03  0.48817286378E+03  0.17300000000E+03 0.  1.
<mgrwt>
<rscale>  2 0.21540921E+03</rscale>
<asrwt>0</asrwt>
<pdfrwt beam="1">  1       21 0.83674800E-02 0.21540921E+03</pdfrwt>
<pdfrwt beam="2">  1       21 0.13207521E+00 0.21540921E+03</pdfrwt>
<totfact> 0.45515983E+04</totfact>
</mgrwt>
</event>
<event>
 4    1  0.4025504E+000  0.2652046E+03  0.7546771E-02  0.1104056E+00
         21   -1    0    0  501  502  0.00000000000E+00  0.00000000000E+00  0.95887952987E+03  0.95887952987E+03  0.00000000000E+00 0.  1.
         21   -1    0    0  502  503 -0.00000000000E+00 -0.00000000000E+00 -0.99586943095E+02  0.99586943095E+02  0.00000000000E+00 0. -1.
          6    1    1    2  501    0 -0.19453358102E+03 -0.50607909422E+02  0.70129363005E+03  0.74976411637E+03  0.17300000000E+03 0.  1.
         -6    1    1    2    0  503  0.19453358102E+03  0.50607909422E+02  0.15799895672E+03  0.30870235659E+03  0.17300000000E+03 0. -1.
<mgrwt>
<rscale>  2 0.26520459E+03</rscale>
<asrwt>0</asrwt>
<pdfrwt beam="1">  1       21 0.14751992E+00 0.26520459E+03</pdfrwt>
<pdfrwt beam="2">  1       21 0.15321069E-01 0.26520459E+03</pdfrwt>
<totfact> 0.11245949E+04</totfact>
</mgrwt>
</event>
<event>
 4    1  0.4025504E+000  0.3050122E+03  0.7546771E-02  0.1082762E+00
         21   -1    0    0  503  502  0.00000000000E+00  0.00000000000E+00  0.94629212183E+03  0.94629212183E+03  0.00000000000E+00 0. -1.
         21   -1    0    0  501  503 -0.00000000000E+00 -0.00000000000E+00 -0.10090139277E+03  0.10090139277E+03  0.00000000000E+00 0. -1.
          6    1    1    2  501    0  0.24866014420E+03 -0.35659458960E+02  0.33882766064E+03  0.45589104832E+03  0.17300000000E+03 0. -1.
         -6    1    1    2    0  502 -0.24866014420E+03  0.35659458960E+02  0.50656306842E+03  0.59130246627E+03  0.17300000000E+03 0. -1.
<mgrwt>
<rscale>  2 0.30501224E+03</rscale>
<asrwt>0</asrwt>
<pdfrwt beam="1">  1       21 0.14558340E+00 0.30501224E+03</pdfrwt>
<pdfrwt beam="2">  1       21 0.15523292E-01 0.30501224E+03</pdfrwt>
<totfact> 0.11140009E+04</totfact>
</mgrwt>
</event>
<event>
 4    1  0.4025504E+000  0.1871983E+03  0.7546771E-02  0.1161013E+00
         21   -1    0    0  503  502  0.00000000000E+00  0.00000000000E+00  0.23511699691E+03  0.23511699691E+03  0.00000000000E+00 0. -1.
         21   -1    0    0  501  503 -0.00000000000E+00 -0.00000000000E+00 -0.20130348311E+03  0.20130348311E+03  0.00000000000E+00 0. -1.
          6    1    1    2  501    0  0.10306029952E+02  0.70767069037E+02 -0.94272741286E+02  0.20959614038E+03  0.17300000000E+03 0. -1.
         -6    1    1    2    0  502 -0.10306029952E+02 -0.70767069037E+02  0.12808625508E+03  0.22682433964E+03  0.17300000000E+03 0. -1.
<mgrwt>
<rscale>  2 0.18719827E+03</rscale>
<asrwt>0</asrwt>
<pdfrwt beam="1">  1       21 0.36171846E-01 0.18719827E+03</pdfrwt>
<pdfrwt beam="2">  1       21 0.30969767E-01 0.18719827E+03</pdfrwt>
<totfact> 0.73977925E+04</totfact>
</mgrwt>
</event>
<event>
 4    1  0.4025504E+000  0.1825458E+03  0.7546771E-02  0.1165362E+00
         21   -1    0    0  503  502  0.00000000000E+00  0.00000000000E+00  0.17434056040E+03  0.17434056040E+03  0.00000000000E+00 0.  1.
         21   -1    0    0  501  503 -0.00000000000E+00 -0.00000000000E+00 -0.20152622943E+03  0.20152622943E+03  0.00000000000E+00 0.  1.
          6    1    1    2  501    0  0.51450706178E+02  0.27327244039E+02 -0.56263285376E+02  0.19101966054E+03  0.17300000000E+03 0.  1.
         -6    1    1    2    0  502 -0.51450706178E+02 -0.27327244039E+02  0.29077616338E+02  0.18484712929E+03  0.17300000000E+03 0.  1.
<mgrwt>
<rscale>  2 0.18254576E+03</rscale>
<asrwt>0</asrwt>
<pdfrwt beam="1">  1       21 0.26821625E-01 0.18254576E+03</pdfrwt>
<pdfrwt beam="2">  1       21 0.31004035E-01 0.18254576E+03</pdfrwt>
<totfact> 0.13272406E+05</totfact>
</mgrwt>
</event>
<event>
 4    1  0.4025504E+000  0.2024815E+03  0.7546771E-02  0.1147662E+00
         21   -1    0    0  501  502  0.00000000000E+00  0.00000000000E+00  0.10165576878E+03  0.10165576878E+03  0.00000000000E+00 0. -1.
         21   -1    0    0  502  503 -0.00000000000E+00 -0.00000000000E+00 -0.41619024282E+03  0.41619024282E+03  0.00000000000E+00 0.  1.
          6    1    1    2  501    0 -0.20589591268E+02 -0.10317858060E+03 -0.11171676193E+03  0.23125610405E+03  0.17300000000E+03 0. -1.
         -6    1    1    2    0  503  0.20589591268E+02  0.10317858060E+03 -0.20281771211E+03  0.28658990755E+03  0.17300000000E+03 0. -1.
<mgrwt>
<rscale>  2 0.20248148E+03</rscale>
<asrwt>0</asrwt>
<pdfrwt beam="1">  1       21 0.15639349E-01 0.20248148E+03</pdfrwt>
<pdfrwt beam="2">  1       21 0.64029267E-01 0.20248148E+03</pdfrwt>
<totfact> 0.81515450E+04</totfact>
</mgrwt>
</event>
<event>
 4    1  0.4025504E+000  0.1748807E+03  0.7546771E-02  0.1172852E+00
         21   -1    0    0  501  502  0.00000000000E+00  0.00000000000E+00  0.21853563683E+02  0.21853563683E+02  0.00000000000E+00 0. -1.
         21   -1    0    0  502  503 -0.00000000000E+00 -0.00000000000E+00 -0.15669910845E+04  0.15669910845E+04  0.00000000000E+00 0. -1.
          6    1    1    2  501    0 -0.76475036724E+01  0.24408292995E+02 -0.51281474610E+03  0.54181381756E+03  0.17300000000E+03 0. -1.
         -6    1    1    2    0  503  0.76475036724E+01 -0.24408292995E+02 -0.10323227747E+04  0.10470308306E+04  0.17300000000E+03 0. -1.
<mgrwt>
<rscale>  2 0.17488067E+03</rscale>
<asrwt>0</asrwt>
<pdfrwt beam="1">  1       21 0.33620867E-02 0.17488067E+03</pdfrwt>
<pdfrwt beam="2">  1       21 0.24107555E+00 0.17488067E+03</pdfrwt>
<totfact> 0.39880256E+04</totfact>
</mgrwt>
</event>
<event>
 4    1  0.4025504E+000  0.2167122E+03  0.7546771E-02  0.1136358E+00
         21   -1    0    0  501  502  0.00000000000E+00  0.00000000000E+00  0.58345256235E+02  0.58345256235E+02  0.00000000000E+00 0. -1.
         21   -1    0    0  502  503 -0.00000000000E+00 -0.00000000000E+00 -0.28382006786E+04  0.28382006786E+04  0.00000000000E+00 0.  1.
          6    1    1    2  501    0  0.12344142429E+03  0.42395784488E+02 -0.16411011830E+03  0.27183877336E+03  0.17300000000E+03 0. -1.
         -6    1    1    2    0  503 -0.12344142429E+03 -0.42395784488E+02 -0.26157453040E+04  0.26247071614E+04  0.17300000000E+03 0.  1.
<mgrwt>
<rscale>  2 0.21671222E+03</rscale>
<asrwt>0</asrwt>
<pdfrwt beam="1">  1       21 0.89761936E-02 0.21671222E+03</pdfrwt>
<pdfrwt beam="2">  1       21 0.43664624E+00 0.21671222E+03</pdfrwt>
<totfact> 0.48116011E+02</totfact>
</mgrwt>
</event>
<event>
 4    1  0.4025504E+000  0.1736052E+03  0.7546771E-02  0.1174140E+00
         21   -1    0    0  501  502  0.00000000000E+00  0.00000000000E+00  0.15494261074E+03  0.15494261074E+03  0.00000000000E+00 0.  1.
         21   -1    0    0  502  503 -0.00000000000E+00 -0.00000000000E+00 -0.37189484030E+03  0.37189484030E+03  0.00000000000E+00 0.  1.
          6    1    1    2  501    0 -0.16815523939E+01  0.14384828551E+02  0.73447046634E+02  0.18850257179E+03  0.17300000000E+03 0.  1.
         -6    1    1    2    0  503  0.16815523939E+01 -0.14384828551E+02 -0.29039927619E+03  0.33833487926E+03  0.17300000000E+03 0.  1.
<mgrwt>
<rscale>  2 0.17360516E+03</rscale>
<asrwt>0</asrwt>
<pdfrwt beam="1">  1       21 0.23837325E-01 0.17360516E+03</pdfrwt>
<pdfrwt beam="2">  1       21 0.57214589E-01 0.17360516E+03</pdfrwt>
<totfact> 0.48015555E+04</totfact>
</mgrwt>
</event>
<event>
 4    1  0.4025504E+000  0.1829559E+03  0.7546771E-02  0.1164973E+00
         21   -1    0    0  503  502  0.00000000000E+00  0.00000000000E+00  0.41138865984E+02  0.41138865984E+02  0.00000000000E+00 0. -1.
         21   -1    0    0  501  503 -0.00000000000E+00 -0.00000000000E+00 -0.83461929978E+03  0.83461929978E+03  0.00000000000E+00 0. -1.
          6    1    1    2  501    0 -0.47177568373E+02  0.36306368966E+02 -0.46613746786E+03  0.50075644213E+03  0.17300000000E+03 0. -1.
         -6    1    1    2    0  502  0.47177568373E+02 -0.36306368966E+02 -0.32734296593E+03  0.37500172364E+03  0.17300000000E+03 0. -1.
<mgrwt>
<rscale>  2 0.18295594E+03</rscale>
<asrwt>0</asrwt>
<pdfrwt beam="1">  1       21 0.63290564E-02 0.18295594E+03</pdfrwt>
<pdfrwt beam="2">  1       21 0.12840297E+00 0.18295594E+03</pdfrwt>
<totfact> 0.80601580E+04</totfact>
</mgrwt>
</event>
<event>
 4    1  0.4025504E+000  0.1788332E+03  0.7546771E-02  0.1168937E+00
         21   -1    0    0  503  502  0.00000000000E+00  0.00000000000E+00  0.10075108728E+03  0.10075108728E+03  0.00000000000E+00 0.  1.
         21   -1    0    0  501  503 -0.00000000000E+00 -0.00000000000E+00 -0.31919370996E+03  0.31919370996E+03  0.00000000000E+00 0.  1.
          6    1    1    2  501    0 -0.25513952947E+02 -0.37434684395E+02 -0.93608859995E+02  0.20185127213E+03  0.17300000000E+03 0.  1.
         -6    1    1    2    0  502  0.25513952947E+02  0.37434684395E+02 -0.12483376268E+03  0.21809352511E+03  0.17300000000E+03 0.  1.
<mgrwt>
<rscale>  2 0.17883321E+03</rscale>
<asrwt>0</asrwt>
<pdfrwt beam="1">  1       21 0.15500168E-01 0.17883321E+03</pdfrwt>
<pdfrwt beam="2">  1       21 0.49106724E-01 0.17883321E+03</pdfrwt>
<totfact> 0.14685045E+05</totfact>
</mgrwt>
</event>
<event>
 4    1  0.4025504E+000  0.1777451E+03  0.7546771E-02  0.1170003E+00
         21   -1    0    0  501  502  0.00000000000E+00  0.00000000000E+00  0.46746125239E+02  0.46746125239E+02  0.00000000000E+00 0. -1.
         21   -1    0    0  502  503 -0.00000000000E+00 -0.00000000000E+00 -0.17116594752E+04  0.17116594752E+04  0.00000000000E+00 0.  1.
          6    1    1    2  501    0  0.39267464886E+02 -0.11062681085E+02 -0.14851266327E+03  0.23162324551E+03  0.17300000000E+03 0. -1.
         -6    1    1    2    0  503 -0.39267464886E+02  0.11062681085E+02 -0.15164006867E+04  0.15267823550E+04  0.17300000000E+03 0.  1.
<mgrwt>
<rscale>  2 0.17774509E+03</rscale>
<asrwt>0</asrwt>
<pdfrwt beam="1">  1       21 0.71917117E-02 0.17774509E+03</pdfrwt>
<pdfrwt beam="2">  1       21 0.26333222E+00 0.17774509E+03</pdfrwt>
<totfact> 0.81485874E+03</totfact>
</mgrwt>
</event>
<event>
 4    1  0.4025504E+000  0.1753577E+03  0.7546771E-02  0.1172373E+00
         21   -1    0    0  501  502  0.00000000000E+00  0.00000000000E+00  0.17040097875E+03  0.17040097875E+03  0.00000000000E+00 0.  1.
         21   -1    0    0  502  503 -0.00000000000E+00 -0.00000000000E+00 -0.19642335877E+03  0.19642335877E+03  0.00000000000E+00 0.  1.
          6    1    1    2  501    0 -0.20376952743E+02 -0.20152350913E+02  0.39277953930E+02  0.17970279663E+03  0.17300000000E+03 0.  1.
         -6    1    1    2    0  503  0.20376952743E+02  0.20152350913E+02 -0.65300333950E+02  0.18712154089E+03  0.17300000000E+03 0.  1.
<mgrwt>
<rscale>  2 0.17535774E+03</rscale>
<asrwt>0</asrwt>
<pdfrwt beam="1">  1       21 0.26215535E-01 0.17535774E+03</pdfrwt>
<pdfrwt beam="2">  1       21 0.30218978E-01 0.17535774E+03</pdfrwt>
<totfact> 0.14613604E+05</totfact>
</mgrwt>
</event>
<event>
 4    1  0.4025504E+000  0.2639147E+03  0.7546771E-02  0.1104814E+00
         21   -1    0    0  503  502  0.00000000000E+00  0.00000000000E+00  0.88273920703E+02  0.88273920703E+02  0.00000000000E+00 0.  1.
         21   -1    0    0  501  503 -0.00000000000E+00 -0.00000000000E+00 -0.88320098440E+03  0.88320098440E+03  0.00000000000E+00 0. -1.
          6    1    1    2  501    0 -0.18718040564E+03  0.68450435597E+02 -0.23885545957E+03  0.35595350392E+03  0.17300000000E+03 0.  1.
         -6    1    1    2    0  502  0.18718040564E+03 -0.68450435597E+02 -0.55607160413E+03  0.61552140118E+03  0.17300000000E+03 0. -1.
<mgrwt>
<rscale>  2 0.26391470E+03</rscale>
<asrwt>0</asrwt>
<pdfrwt beam="1">  1       21 0.13580603E-01 0.26391470E+03</pdfrwt>
<pdfrwt beam="2">  1       21 0.13587708E+00 0.26391470E+03</pdfrwt>
<totfact> 0.17403909E+04</totfact>
</mgrwt>
</event>
<event>
 4    1  0.4025504E+000  0.1753552E+03  0.7546771E-02  0.1172376E+00
         21   -1    0    0  501  502  0.00000000000E+00  0.00000000000E+00  0.11563027366E+03  0.11563027366E+03  0.00000000000E+00 0.  1.
         21   -1    0    0  502  503 -0.00000000000E+00 -0.00000000000E+00 -0.27520474034E+03  0.27520474034E+03  0.00000000000E+00 0.  1.
          6    1    1    2  501    0  0.24817205270E+02 -0.14301987349E+02 -0.43910712888E+02  0.18076944218E+03  0.17300000000E+03 0. -1.
         -6    1    1    2    0  503 -0.24817205270E+02  0.14301987349E+02 -0.11566375380E+03  0.21006557181E+03  0.17300000000E+03 0. -1.
<mgrwt>
<rscale>  2 0.17535518E+03</rscale>
<asrwt>0</asrwt>
<pdfrwt beam="1">  1       21 0.17789273E-01 0.17535518E+03</pdfrwt>
<pdfrwt beam="2">  1       21 0.42339190E-01 0.17535518E+03</pdfrwt>
<totfact> 0.15487430E+05</totfact>
</mgrwt>
</event>
<event>
 4    1  0.4025504E+000  0.2479953E+03  0.7546771E-02  0.1114578E+00
         21   -1    0    0  501  502  0.00000000000E+00  0.00000000000E+00  0.15510092728E+03  0.15510092728E+03  0.00000000000E+00 0. -1.
         21   -1    0    0  502  503 -0.00000000000E+00 -0.00000000000E+00 -0.44372280486E+03  0.44372280486E+03  0.00000000000E+00 0.  1.
          6    1    1    2  501    0  0.15272032457E+03  0.90824872873E+02 -0.46662270608E+02  0.25234702805E+03  0.17300000000E+03 0. -1.
         -6    1    1    2    0  503 -0.15272032457E+03 -0.90824872873E+02 -0.24195960698E+03  0.34647670409E+03  0.17300000000E+03 0.  1.
<mgrwt>
<rscale>  2 0.24799527E+03</rscale>
<asrwt>0</asrwt>
<pdfrwt beam="1">  1       21 0.23861681E-01 0.24799527E+03</pdfrwt>
<pdfrwt beam="2">  1       21 0.68265046E-01 0.24799527E+03</pdfrwt>
<totfact> 0.31524301E+04</totfact>
</mgrwt>
</event>
<event>
 4    1  0.4025504E+000  0.2485993E+03  0.7546771E-02  0.1114193E+00
         21   -1    0    0  501  502  0.00000000000E+00  0.00000000000E+00  0.17750135865E+04  0.17750135865E+04  0.00000000000E+00 0. -1.
         21   -1    0    0  502  503 -0.00000000000E+00 -0.00000000000E+00 -0.50972501858E+02  0.50972501858E+02  0.00000000000E+00 0.  1.
          6    1    1    2  501    0  0.11243477944E+03 -0.13867598838E+03  0.13760079044E+04  0.13982844354E+04  0.17300000000E+03 0. -1.
         -6    1    1    2    0  503 -0.11243477944E+03  0.13867598838E+03  0.34803318029E+03  0.42770165298E+03  0.17300000000E+03 0.  1.
<mgrwt>
<rscale>  2 0.24859929E+03</rscale>
<asrwt>0</asrwt>
<pdfrwt beam="1">  1       21 0.27307897E+00 0.24859929E+03</pdfrwt>
<pdfrwt beam="2">  1       21 0.78419247E-02 0.24859929E+03</pdfrwt>
<totfact> 0.57458219E+03</totfact>
</mgrwt>
</event>
<event>
 4    1  0.4025504E+000  0.1756009E+03  0.7546771E-02  0.1172130E+00
         21   -1    0    0  501  502  0.00000000000E+00  0.00000000000E+00  0.57312491369E+03  0.57312491369E+03  0.00000000000E+00 0.  1.
         21   -1    0    0  502  503 -0.00000000000E+00 -0.00000000000E+00 -0.55097293609E+02  0.55097293609E+02  0.00000000000E+00 0.  1.
          6    1    1    2  501    0  0.33667261332E+01  0.29922097478E+02  0.30716257887E+03  0.35381424027E+03  0.17300000000E+03 0. -1.
         -6    1    1    2    0  503 -0.33667261332E+01 -0.29922097478E+02  0.21086504121E+03  0.27440796703E+03  0.17300000000E+03 0. -1.
<mgrwt>
<rscale>  2 0.17560087E+03</rscale>
<asrwt>0</asrwt>
<pdfrwt beam="1">  1       21 0.88173059E-01 0.17560087E+03</pdfrwt>
<pdfrwt beam="2">  1       21 0.84765071E-02 0.17560087E+03</pdfrwt>
<totfact> 0.12027860E+05</totfact>
</mgrwt>
</event>
<event>
 4    1  0.4025504E+000  0.1778081E+03  0.7546771E-02  0.1169941E+00
         21   -1    0    0  501  502  0.00000000000E+00  0.00000000000E+00  0.27728248344E+02  0.27728248344E+02  0.00000000000E+00 0.  1.
         21   -1    0    0  502  503 -0.00000000000E+00 -0.00000000000E+00 -0.12358850213E+04  0.12358850213E+04  0.00000000000E+00 0.  1.
          6    1    1    2  501    0  0.13484766791E+02  0.38792723141E+02 -0.42827795082E+03  0.46372159478E+03  0.17300000000E+03 0.  1.
         -6    1    1    2    0  503 -0.13484766791E+02 -0.38792723141E+02 -0.77987882208E+03  0.79989167482E+03  0.17300000000E+03 0.  1.
<mgrwt>
<rscale>  2 0.17780808E+03</rscale>
<asrwt>0</asrwt>
<pdfrwt beam="1">  1       21 0.42658841E-02 0.17780808E+03</pdfrwt>
<pdfrwt beam="2">  1       21 0.19013617E+00 0.17780808E+03</pdfrwt>
<totfact> 0.55257426E+04</totfact>
</mgrwt>
</event>
<event>
 4    1  0.4025504E+000  0.1843871E+03  0.7546771E-02  0.1163623E+00
         21   -1    0    0  503  502  0.00000000000E+00  0.00000000000E+00  0.78348250553E+03  0.78348250553E+03  0.00000000000E+00 0.  1.
         21   -1    0    0  501  503 -0.00000000000E+00 -0.00000000000E+00 -0.58764436835E+02  0.58764436835E+02  0.00000000000E+00 0. -1.
          6    1    1    2  501    0 -0.12378466798E+02  0.62580971590E+02  0.14698551968E+03  0.23580362050E+03  0.17300000000E+03 0. -1.
         -6    1    1    2    0  502  0.12378466798E+02 -0.62580971590E+02  0.57773254901E+03  0.60644332187E+03  0.17300000000E+03 0.  1.
<mgrwt>
<rscale>  2 0.18438710E+03</rscale>
<asrwt>0</asrwt>
<pdfrwt beam="1">  1       21 0.12053576E+00 0.18438710E+03</pdfrwt>
<pdfrwt beam="2">  1       21 0.90406832E-02 0.18438710E+03</pdfrwt>
<totfact> 0.50832744E+04</totfact>
</mgrwt>
</event>
<event>
 4    1  0.4025504E+000  0.2164860E+03  0.7546771E-02  0.1136530E+00
         21   -1    0    0  503  502  0.00000000000E+00  0.00000000000E+00  0.10325708314E+04  0.10325708314E+04  0.00000000000E+00 0.  1.
         21   -1    0    0  501  503 -0.00000000000E+00 -0.00000000000E+00 -0.51512346009E+02  0.51512346009E+02  0.00000000000E+00 0. -1.
          6    1    1    2  501    0 -0.12342766287E+03  0.41264932249E+02  0.30362821444E+03  0.37290250093E+03  0.17300000000E+03 0. -1.
         -6    1    1    2    0  502  0.12342766287E+03 -0.41264932249E+02  0.67743027092E+03  0.71118067645E+03  0.17300000000E+03 0. -1.
<mgrwt>
<rscale>  2 0.21648599E+03</rscale>
<asrwt>0</asrwt>
<pdfrwt beam="1">  1       21 0.15885704E+00 0.21648599E+03</pdfrwt>
<pdfrwt beam="2">  1       21 0.79249770E-02 0.21648599E+03</pdfrwt>
<totfact> 0.30841724E+04</totfact>
</mgrwt>
</event>
<event>
 4    1  0.4025504E+000  0.1807827E+03  0.7546771E-02  0.1167048E+00
         21   -1    0    0  503  502  0.00000000000E+00  0.00000000000E+00  0.34378474388E+03  0.34378474388E+03  0.00000000000E+00 0.  1.
         21   -1    0    0  501  503 -0.00000000000E+00 -0.00000000000E+00 -0.11511183063E+03  0.11511183063E+03  0.00000000000E+00 0.  1.
          6    1    1    2  501    0  0.20820104219E+01  0.52431458866E+02  0.18587935931E+02  0.18173580827E+03  0.17300000000E+03 0.  1.
         -6    1    1    2    0  502 -0.20820104219E+01 -0.52431458866E+02  0.21008497731E+03  0.27716076623E+03  0.17300000000E+03 0.  1.
<mgrwt>
<rscale>  2 0.18078272E+03</rscale>
<asrwt>0</asrwt>
<pdfrwt beam="1">  1       21 0.52889960E-01 0.18078272E+03</pdfrwt>
<pdfrwt beam="2">  1       21 0.17709513E-01 0.18078272E+03</pdfrwt>
<totfact> 0.98452414E+04</totfact>
</mgrwt>
</event>
<event>
 4    1  0.4025504E+000  0.1964312E+03  0.7546771E-02  0.1152785E+00
         21   -1    0    0  501  502  0.00000000000E+00  0.00000000000E+00  0.31022065064E+03  0.31022065064E+03  0.00000000000E+00 0.  1.
         21   -1    0    0  502  503 -0.00000000000E+00 -0.00000000000E+00 -0.13935900106E+03  0.13935900106E+03  0.00000000000E+00 0.  1.
          6    1    1    2  501    0 -0.66089349767E+02 -0.65486007360E+02  0.15912815286E+03  0.25279831555E+03  0.17300000000E+03 0.  1.
         -6    1    1    2    0  503  0.66089349767E+02  0.65486007360E+02  0.11733496716E+02  0.19678133615E+03  0.17300000000E+03 0.  1.
<mgrwt>
<rscale>  2 0.19643121E+03</rscale>
<asrwt>0</asrwt>
<pdfrwt beam="1">  1       21 0.47726254E-01 0.19643121E+03</pdfrwt>
<pdfrwt beam="2">  1       21 0.21439846E-01 0.19643121E+03</pdfrwt>
<totfact> 0.84919159E+04</totfact>
</mgrwt>
</event>
<event>
 4    1  0.4025504E+000  0.1806842E+03  0.7546771E-02  0.1167143E+00
         21   -1    0    0  503  502  0.00000000000E+00  0.00000000000E+00  0.36696374786E+03  0.36696374786E+03  0.00000000000E+00 0. -1.
         21   -1    0    0  501  503 -0.00000000000E+00 -0.00000000000E+00 -0.10885312205E+03  0.10885312205E+03  0.00000000000E+00 0. -1.
          6    1    1    2  501    0 -0.12695301887E-01 -0.52132262385E+02  0.27362338223E+02  0.18274427623E+03  0.17300000000E+03 0. -1.
         -6    1    1    2    0  502  0.12695301887E-01  0.52132262385E+02  0.23074828759E+03  0.29307259368E+03  0.17300000000E+03 0. -1.
<mgrwt>
<rscale>  2 0.18068418E+03</rscale>
<asrwt>0</asrwt>
<pdfrwt beam="1">  1       21 0.56455961E-01 0.18068418E+03</pdfrwt>
<pdfrwt beam="2">  1       21 0.16746634E-01 0.18068418E+03</pdfrwt>
<totfact> 0.95082801E+04</totfact>
</mgrwt>
</event>
<event>
 4    1  0.4025504E+000  0.1870563E+03  0.7546771E-02  0.1161143E+00
         21   -1    0    0  501  502  0.00000000000E+00  0.00000000000E+00  0.14618681689E+03  0.14618681689E+03  0.00000000000E+00 0. -1.
         21   -1    0    0  502  503 -0.00000000000E+00 -0.00000000000E+00 -0.27728292535E+03  0.27728292535E+03  0.00000000000E+00 0. -1.
          6    1    1    2  501    0 -0.17737416089E+02  0.68894411519E+02  0.12764167716E+02  0.18749127939E+03  0.17300000000E+03 0. -1.
         -6    1    1    2    0  503  0.17737416089E+02 -0.68894411519E+02 -0.14386027617E+03  0.23597846285E+03  0.17300000000E+03 0. -1.
<mgrwt>
<rscale>  2 0.18705629E+03</rscale>
<asrwt>0</asrwt>
<pdfrwt beam="1">  1       21 0.22490280E-01 0.18705629E+03</pdfrwt>
<pdfrwt beam="2">  1       21 0.42658911E-01 0.18705629E+03</pdfrwt>
<totfact> 0.98087381E+04</totfact>
</mgrwt>
</event>
<event>
 4    1  0.4025504E+000  0.2085352E+03  0.7546771E-02  0.1142731E+00
         21   -1    0    0  501  502  0.00000000000E+00  0.00000000000E+00  0.11626263606E+03  0.11626263606E+03  0.00000000000E+00 0. -1.
         21   -1    0    0  502  503 -0.00000000000E+00 -0.00000000000E+00 -0.55990734821E+03  0.55990734821E+03  0.00000000000E+00 0. -1.
          6    1    1    2  501    0 -0.11123751006E+03 -0.34411207516E+02 -0.27031317160E+02  0.21027983012E+03  0.17300000000E+03 0. -1.
         -6    1    1    2    0  503  0.11123751006E+03  0.34411207516E+02 -0.41661339499E+03  0.46589015415E+03  0.17300000000E+03 0. -1.
<mgrwt>
<rscale>  2 0.20853516E+03</rscale>
<asrwt>0</asrwt>
<pdfrwt beam="1">  1       21 0.17886559E-01 0.20853516E+03</pdfrwt>
<pdfrwt beam="2">  1       21 0.86139593E-01 0.20853516E+03</pdfrwt>
<totfact> 0.32727886E+04</totfact>
</mgrwt>
</event>
<event>
 4    1  0.4025504E+000  0.2392596E+03  0.7546771E-02  0.1120287E+00
         21   -1    0    0  503  502  0.00000000000E+00  0.00000000000E+00  0.11730597413E+04  0.11730597413E+04  0.00000000000E+00 0. -1.
         21   -1    0    0  501  503 -0.00000000000E+00 -0.00000000000E+00 -0.90815831037E+02  0.90815831037E+02  0.00000000000E+00 0.  1.
          6    1    1    2  501    0 -0.14821161265E+03  0.73140005870E+02  0.11128793673E+03  0.26387524977E+03  0.17300000000E+03 0.  1.
         -6    1    1    2    0  502  0.14821161265E+03 -0.73140005870E+02  0.97095597349E+03  0.10000003225E+04  0.17300000000E+03 0. -1.
<mgrwt>
<rscale>  2 0.23925957E+03</rscale>
<asrwt>0</asrwt>
<pdfrwt beam="1">  1       21 0.18047072E+00 0.23925957E+03</pdfrwt>
<pdfrwt beam="2">  1       21 0.13971667E-01 0.23925957E+03</pdfrwt>
<totfact> 0.77763430E+03</totfact>
</mgrwt>
</event>
<event>
 4    1  0.4025504E+000  0.1733928E+03  0.7546771E-02  0.1174355E+00
         21   -1    0    0  501  502  0.00000000000E+00  0.00000000000E+00  0.11191896149E+03  0.11191896149E+03  0.00000000000E+00 0.  1.
         21   -1    0    0  502  503 -0.00000000000E+00 -0.00000000000E+00 -0.51531354364E+03  0.51531354364E+03  0.00000000000E+00 0.  1.
          6    1    1    2  501    0 -0.11418593943E+02 -0.23824192666E+01  0.15288228080E+02  0.17406547655E+03  0.17300000000E+03 0.  1.
         -6    1    1    2    0  503  0.11418593943E+02  0.23824192666E+01 -0.41868281023E+03  0.45316702858E+03  0.17300000000E+03 0.  1.
<mgrwt>
<rscale>  2 0.17339279E+03</rscale>
<asrwt>0</asrwt>
<pdfrwt beam="1">  1       21 0.17218302E-01 0.17339279E+03</pdfrwt>
<pdfrwt beam="2">  1       21 0.79279006E-01 0.17339279E+03</pdfrwt>
<totfact> 0.43198886E+04</totfact>
</mgrwt>
</event>
<event>
 4    1  0.4025504E+000  0.2548806E+03  0.7546771E-02  0.1110259E+00
         21   -1    0    0  501  502  0.00000000000E+00  0.00000000000E+00  0.75048061192E+02  0.75048061192E+02  0.00000000000E+00 0.  1.
         21   -1    0    0  502  503 -0.00000000000E+00 -0.00000000000E+00 -0.86578160543E+03  0.86578160543E+03  0.00000000000E+00 0.  1.
          6    1    1    2  501    0 -0.17849415185E+03  0.56346626137E+02 -0.40152256608E+03  0.47558855704E+03  0.17300000000E+03 0.  1.
         -6    1    1    2    0  503  0.17849415185E+03 -0.56346626137E+02 -0.38921097816E+03  0.46524110958E+03  0.17300000000E+03 0.  1.
<mgrwt>
<rscale>  2 0.25488057E+03</rscale>
<asrwt>0</asrwt>
<pdfrwt beam="1">  1       21 0.11545856E-01 0.25488057E+03</pdfrwt>
<pdfrwt beam="2">  1       21 0.13319717E+00 0.25488057E+03</pdfrwt>
<totfact> 0.24673860E+04</totfact>
</mgrwt>
</event>
<event>
 4    1  0.4025504E+000  0.1755791E+03  0.7546771E-02  0.1172152E+00
         21   -1    0    0  503  502  0.00000000000E+00  0.00000000000E+00  0.37275866212E+03  0.37275866212E+03  0.00000000000E+00 0. -1.
         21   -1    0    0  501  503 -0.00000000000E+00 -0.00000000000E+00 -0.10452145657E+03  0.10452145657E+03  0.00000000000E+00 0. -1.
          6    1    1    2  501    0  0.24148563611E+02  0.17772553953E+02  0.25085312478E+02  0.17736203004E+03  0.17300000000E+03 0. -1.
         -6    1    1    2    0  502 -0.24148563611E+02 -0.17772553953E+02  0.24315189307E+03  0.29991808866E+03  0.17300000000E+03 0. -1.
<mgrwt>
<rscale>  2 0.17557909E+03</rscale>
<asrwt>0</asrwt>
<pdfrwt beam="1">  1       21 0.57347486E-01 0.17557909E+03</pdfrwt>
<pdfrwt beam="2">  1       21 0.16080224E-01 0.17557909E+03</pdfrwt>
<totfact> 0.99271248E+04</totfact>
</mgrwt>
</event>
<event>
 4    1  0.4025504E+000  0.1925490E+03  0.7546771E-02  0.1156182E+00
         21   -1    0    0  501  502  0.00000000000E+00  0.00000000000E+00  0.15096024623E+03  0.15096024623E+03  0.00000000000E+00 0.  1.
         21   -1    0    0  502  503 -0.00000000000E+00 -0.00000000000E+00 -0.39268022471E+03  0.39268022471E+03  0.00000000000E+00 0.  1.
          6    1    1    2  501    0 -0.76396208593E+02 -0.36190373569E+02  0.45499041310E+02  0.19785167825E+03  0.17300000000E+03 0.  1.
         -6    1    1    2    0  503  0.76396208593E+02  0.36190373569E+02 -0.28721901979E+03  0.34578879270E+03  0.17300000000E+03 0.  1.
<mgrwt>
<rscale>  2 0.19254902E+03</rscale>
<asrwt>0</asrwt>
<pdfrwt beam="1">  1       21 0.23224653E-01 0.19254902E+03</pdfrwt>
<pdfrwt beam="2">  1       21 0.60412342E-01 0.19254902E+03</pdfrwt>
<totfact> 0.44496393E+04</totfact>
</mgrwt>
</event>
<event>
 4    1  0.4025504E+000  0.2032251E+03  0.7546771E-02  0.1147046E+00
         21   -1    0    0  503  502  0.00000000000E+00  0.00000000000E+00  0.35396293898E+03  0.35396293898E+03  0.00000000000E+00 0.  1.
         21   -1    0    0  501  503 -0.00000000000E+00 -0.00000000000E+00 -0.11695379193E+03  0.11695379193E+03  0.00000000000E+00 0.  1.
          6    1    1    2  501    0  0.10560717359E+03  0.14784614420E+02  0.12989325271E+03  0.24119020924E+03  0.17300000000E+03 0.  1.
         -6    1    1    2    0  502 -0.10560717359E+03 -0.14784614420E+02  0.10711589434E+03  0.22972652166E+03  0.17300000000E+03 0.  1.
<mgrwt>
<rscale>  2 0.20322515E+03</rscale>
<asrwt>0</asrwt>
<pdfrwt beam="1">  1       21 0.54455836E-01 0.20322515E+03</pdfrwt>
<pdfrwt beam="2">  1       21 0.17992891E-01 0.20322515E+03</pdfrwt>
<totfact> 0.89101704E+04</totfact>
</mgrwt>
</event>
<event>
 4    1  0.4025504E+000  0.2467451E+03  0.7546771E-02  0.1115379E+00
         21   -1    0    0  503  502  0.00000000000E+00  0.00000000000E+00  0.12339040153E+03  0.12339040153E+03  0.00000000000E+00 0.  1.
         21   -1    0    0  501  503 -0.00000000000E+00 -0.00000000000E+00 -0.83518750440E+03  0.83518750440E+03  0.00000000000E+00 0.  1.
          6    1    1    2  501    0 -0.15745218288E+03 -0.78504487477E+02 -0.66249814027E+03  0.70695610211E+03  0.17300000000E+03 0.  1.
         -6    1    1    2    0  502  0.15745218288E+03  0.78504487477E+02 -0.49298962593E+02  0.25162180382E+03  0.17300000000E+03 0.  1.
<mgrwt>
<rscale>  2 0.24674510E+03</rscale>
<asrwt>0</asrwt>
<pdfrwt beam="1">  1       21 0.18983139E-01 0.24674510E+03</pdfrwt>
<pdfrwt beam="2">  1       21 0.12849039E+00 0.24674510E+03</pdfrwt>
<totfact> 0.10930640E+04</totfact>
</mgrwt>
</event>
<event>
 4    1  0.4025504E+000  0.1885815E+03  0.7546771E-02  0.1159747E+00
         21   -1    0    0  501  502  0.00000000000E+00  0.00000000000E+00  0.17557865607E+04  0.17557865607E+04  0.00000000000E+00 0. -1.
         21   -1    0    0  502  503 -0.00000000000E+00 -0.00000000000E+00 -0.32763384357E+02  0.32763384357E+02  0.00000000000E+00 0. -1.
          6    1    1    2  501    0  0.12601097130E+02  0.73994498859E+02  0.14140749502E+04  0.14265941743E+04  0.17300000000E+03 0. -1.
         -6    1    1    2    0  503 -0.12601097130E+02 -0.73994498859E+02  0.30894822615E+03  0.36195577071E+03  0.17300000000E+03 0. -1.
<mgrwt>
<rscale>  2 0.18858148E+03</rscale>
<asrwt>0</asrwt>
<pdfrwt beam="1">  1       21 0.27012094E+00 0.18858148E+03</pdfrwt>
<pdfrwt beam="2">  1       21 0.50405220E-02 0.18858148E+03</pdfrwt>
<totfact> 0.13519963E+04</totfact>
</mgrwt>
</event>
<event>
 4    1  0.4025504E+000  0.1881826E+03  0.7546771E-02  0.1160111E+00
         21   -1    0    0  503  502  0.00000000000E+00  0.00000000000E+00  0.32317432300E+03  0.32317432300E+03  0.00000000000E+00 0. -1.
         21   -1    0    0  501  503 -0.00000000000E+00 -0.00000000000E+00 -0.16449007800E+03  0.16449007800E+03  0.00000000000E+00 0. -1.
          6    1    1    2  501    0  0.72983762326E+02  0.12531701422E+02 -0.61540247020E+02  0.19798958333E+03  0.17300000000E+03 0. -1.
         -6    1    1    2    0  502 -0.72983762326E+02 -0.12531701422E+02  0.22022449202E+03  0.28967481767E+03  0.17300000000E+03 0. -1.
<mgrwt>
<rscale>  2 0.18818255E+03</rscale>
<asrwt>0</asrwt>
<pdfrwt beam="1">  1       21 0.49719126E-01 0.18818255E+03</pdfrwt>
<pdfrwt beam="2">  1       21 0.25306166E-01 0.18818255E+03</pdfrwt>
<totfact> 0.57170569E+04</totfact>
</mgrwt>
</event>
<event>
 4    1  0.4025504E+000  0.1737282E+03  0.7546771E-02  0.1174015E+00
         21   -1    0    0  503  502  0.00000000000E+00  0.00000000000E+00  0.38236779154E+03  0.38236779154E+03  0.00000000000E+00 0. -1.
         21   -1    0    0  501  503 -0.00000000000E+00 -0.00000000000E+00 -0.49455953831E+03  0.49455953831E+03  0.00000000000E+00 0. -1.
          6    1    1    2  501    0  0.30662087232E+00 -0.15886590127E+02 -0.45804945023E+03  0.48988853489E+03  0.17300000000E+03 0. -1.
         -6    1    1    2    0  502 -0.30662087232E+00  0.15886590127E+02  0.34585770346E+03  0.38703879496E+03  0.17300000000E+03 0. -1.
<mgrwt>
<rscale>  2 0.17372817E+03</rscale>
<asrwt>0</asrwt>
<pdfrwt beam="1">  1       21 0.58825814E-01 0.17372817E+03</pdfrwt>
<pdfrwt beam="2">  1       21 0.76086082E-01 0.17372817E+03</pdfrwt>
<totfact> 0.42280759E+03</totfact>
</mgrwt>
</event>
<event>
 4    1  0.4025504E+000  0.1876373E+03  0.7546771E-02  0.1160610E+00
         21   -1    0    0  501  502  0.00000000000E+00  0.00000000000E+00  0.35811944699E+03  0.35811944699E+03  0.00000000000E+00 0. -1.
         21   -1    0    0  502  503 -0.00000000000E+00 -0.00000000000E+00 -0.14191455545E+03  0.14191455545E+03  0.00000000000E+00 0. -1.
          6    1    1    2  501    0  0.72651134147E+02 -0.75371838184E+00  0.24668470719E+03  0.30993725195E+03  0.17300000000E+03 0. -1.
         -6    1    1    2    0  503 -0.72651134147E+02  0.75371838184E+00 -0.30479815650E+02  0.19009675049E+03  0.17300000000E+03 0. -1.
<mgrwt>
<rscale>  2 0.18763730E+03</rscale>
<asrwt>0</asrwt>
<pdfrwt beam="1">  1       21 0.55095299E-01 0.18763730E+03</pdfrwt>
<pdfrwt beam="2">  1       21 0.21833009E-01 0.18763730E+03</pdfrwt>
<totfact> 0.60993173E+04</totfact>
</mgrwt>
</event>
<event>
 4    1  0.4025504E+000  0.1913506E+03  0.7546771E-02  0.1157249E+00
         21   -1    0    0  501  502  0.00000000000E+00  0.00000000000E+00  0.42377319922E+02  0.42377319922E+02  0.00000000000E+00 0.  1.
         21   -1    0    0  502  503 -0.00000000000E+00 -0.00000000000E+00 -0.19967211289E+04  0.19967211289E+04  0.00000000000E+00 0.  1.
          6    1    1    2  501    0  0.37047864218E+02  0.72893695422E+02 -0.20926896490E+03  0.28356398704E+03  0.17300000000E+03 0.  1.
         -6    1    1    2    0  503 -0.37047864218E+02 -0.72893695422E+02 -0.17450748440E+04  0.17555344618E+04  0.17300000000E+03 0.  1.
<mgrwt>
<rscale>  2 0.19135056E+03</rscale>
<asrwt>0</asrwt>
<pdfrwt beam="1">  1       21 0.65195880E-02 0.19135056E+03</pdfrwt>
<pdfrwt beam="2">  1       21 0.30718785E+00 0.19135056E+03</pdfrwt>
<totfact> 0.53141454E+03</totfact>
</mgrwt>
</event>
<event>
 4    1  0.4025504E+000  0.1861797E+03  0.7546771E-02  0.1161953E+00
         21   -1    0    0  503  502  0.00000000000E+00  0.00000000000E+00  0.43977868973E+03  0.43977868973E+03  0.00000000000E+00 0.  1.
         21   -1    0    0  501  503 -0.00000000000E+00 -0.00000000000E+00 -0.19092152112E+03  0.19092152112E+03  0.00000000000E+00 0.  1.
          6    1    1    2  501    0 -0.65876848649E+02 -0.19852847867E+02 -0.11721391747E+03  0.22000453906E+03  0.17300000000E+03 0.  1.
         -6    1    1    2    0  502  0.65876848649E+02  0.19852847867E+02  0.36607108608E+03  0.41069567178E+03  0.17300000000E+03 0.  1.
<mgrwt>
<rscale>  2 0.18617974E+03</rscale>
<asrwt>0</asrwt>
<pdfrwt beam="1">  1       21 0.67658260E-01 0.18617974E+03</pdfrwt>
<pdfrwt beam="2">  1       21 0.29372542E-01 0.18617974E+03</pdfrwt>
<totfact> 0.22255802E+04</totfact>
</mgrwt>
</event>
<event>
 4    1  0.4025504E+000  0.1865456E+03  0.7546771E-02  0.1161614E+00
         21   -1    0    0  503  502  0.00000000000E+00  0.00000000000E+00  0.89480821855E+02  0.89480821855E+02  0.00000000000E+00 0.  1.
         21   -1    0    0  501  503 -0.00000000000E+00 -0.00000000000E+00 -0.68136123544E+03  0.68136123544E+03  0.00000000000E+00 0.  1.
          6    1    1    2  501    0  0.20036946672E+02 -0.66848835365E+02 -0.54845078087E+03  0.57930778094E+03  0.17300000000E+03 0.  1.
         -6    1    1    2    0  502 -0.20036946672E+02  0.66848835365E+02 -0.43429632717E+02  0.19153427636E+03  0.17300000000E+03 0.  1.
<mgrwt>
<rscale>  2 0.18654556E+03</rscale>
<asrwt>0</asrwt>
<pdfrwt beam="1">  1       21 0.13766280E-01 0.18654556E+03</pdfrwt>
<pdfrwt beam="2">  1       21 0.10482481E+00 0.18654556E+03</pdfrwt>
<totfact> 0.33738872E+04</totfact>
</mgrwt>
</event>
<event>
 4    1  0.4025504E+000  0.1745777E+03  0.7546771E-02  0.1173156E+00
         21   -1    0    0  503  502  0.00000000000E+00  0.00000000000E+00  0.74868593533E+03  0.74868593533E+03  0.00000000000E+00 0. -1.
         21   -1    0    0  501  503 -0.00000000000E+00 -0.00000000000E+00 -0.14317555042E+03  0.14317555042E+03  0.00000000000E+00 0. -1.
          6    1    1    2  501    0 -0.29550144604E+01 -0.23229915321E+02 -0.74492484065E+02  0.18980645737E+03  0.17300000000E+03 0. -1.
         -6    1    1    2    0  502  0.29550144604E+01  0.23229915321E+02  0.68000286897E+03  0.70205502839E+03  0.17300000000E+03 0. -1.
<mgrwt>
<rscale>  2 0.17457766E+03</rscale>
<asrwt>0</asrwt>
<pdfrwt beam="1">  1       21 0.11518245E+00 0.17457766E+03</pdfrwt>
<pdfrwt beam="2">  1       21 0.22027008E-01 0.17457766E+03</pdfrwt>
<totfact> 0.11393529E+04</totfact>
</mgrwt>
</event>
<event>
 4    1  0.4025504E+000  0.1907834E+03  0.7546771E-02  0.1157757E+00
         21   -1    0    0  503  502  0.00000000000E+00  0.00000000000E+00  0.25399509562E+03  0.25399509562E+03  0.00000000000E+00 0.  1.
         21   -1    0    0  501  503 -0.00000000000E+00 -0.00000000000E+00 -0.21667436616E+03  0.21667436616E+03  0.00000000000E+00 0.  1.
          6    1    1    2  501    0  0.36156642049E+02  0.71846976283E+02 -0.11828432390E+03  0.22447599436E+03  0.17300000000E+03 0.  1.
         -6    1    1    2    0  502 -0.36156642049E+02 -0.71846976283E+02  0.15560505336E+03  0.24619346741E+03  0.17300000000E+03 0.  1.
<mgrwt>
<rscale>  2 0.19078336E+03</rscale>
<asrwt>0</asrwt>
<pdfrwt beam="1">  1       21 0.39076168E-01 0.19078336E+03</pdfrwt>
<pdfrwt beam="2">  1       21 0.33334518E-01 0.19078336E+03</pdfrwt>
<totfact> 0.54770491E+04</totfact>
</mgrwt>
</event>
<event>
 4    1  0.4025504E+000  0.3903763E+03  0.7546771E-02  0.1047164E+00
         21   -1    0    0  503  502  0.00000000000E+00  0.00000000000E+00  0.29656229322E+03  0.29656229322E+03  0.00000000000E+00 0.  1.
         21   -1    0    0  501  503 -0.00000000000E+00 -0.00000000000E+00 -0.88406312067E+03  0.88406312067E+03  0.00000000000E+00 0. -1.
          6    1    1    2  501    0 -0.16024743721E+03  0.31110356916E+03 -0.67574414571E+03  0.78039978366E+03  0.17300000000E+03 0. -1.
         -6    1    1    2    0  502  0.16024743721E+03 -0.31110356916E+03  0.88243318267E+02  0.40022563023E+03  0.17300000000E+03 0.  1.
<mgrwt>
<rscale>  2 0.39037632E+03</rscale>
<asrwt>0</asrwt>
<pdfrwt beam="1">  1       21 0.45624969E-01 0.39037632E+03</pdfrwt>
<pdfrwt beam="2">  1       21 0.13600971E+00 0.39037632E+03</pdfrwt>
<totfact> 0.15556586E+03</totfact>
</mgrwt>
</event>
<event>
 4    1  0.4025504E+000  0.3245303E+03  0.7546771E-02  0.1073583E+00
         21   -1    0    0  503  502  0.00000000000E+00  0.00000000000E+00  0.30053879922E+03  0.30053879922E+03  0.00000000000E+00 0.  1.
         21   -1    0    0  501  503 -0.00000000000E+00 -0.00000000000E+00 -0.43139616059E+03  0.43139616059E+03  0.00000000000E+00 0. -1.
          6    1    1    2  501    0  0.22248280394E+03 -0.16091081656E+03 -0.22396821939E+03  0.39431161818E+03  0.17300000000E+03 0. -1.
         -6    1    1    2    0  502 -0.22248280394E+03  0.16091081656E+03  0.93110858015E+02  0.33762334164E+03  0.17300000000E+03 0. -1.
<mgrwt>
<rscale>  2 0.32453026E+03</rscale>
<asrwt>0</asrwt>
<pdfrwt beam="1">  1       21 0.46236738E-01 0.32453026E+03</pdfrwt>
<pdfrwt beam="2">  1       21 0.66368640E-01 0.32453026E+03</pdfrwt>
<totfact> 0.86788263E+03</totfact>
</mgrwt>
</event>
<event>
 4    1  0.4025504E+000  0.1846050E+03  0.7546771E-02  0.1163419E+00
         21   -1    0    0  503  502  0.00000000000E+00  0.00000000000E+00  0.26196040902E+03  0.26196040902E+03  0.00000000000E+00 0. -1.
         21   -1    0    0  501  503 -0.00000000000E+00 -0.00000000000E+00 -0.27848050607E+03  0.27848050607E+03  0.00000000000E+00 0. -1.
          6    1    1    2  501    0  0.38240991318E+02  0.51842241097E+02 -0.20551174409E+03  0.27625001057E+03  0.17300000000E+03 0. -1.
         -6    1    1    2    0  502 -0.38240991318E+02 -0.51842241097E+02  0.18899164705E+03  0.26419090452E+03  0.17300000000E+03 0. -1.
<mgrwt>
<rscale>  2 0.18460496E+03</rscale>
<asrwt>0</asrwt>
<pdfrwt beam="1">  1       21 0.40301601E-01 0.18460496E+03</pdfrwt>
<pdfrwt beam="2">  1       21 0.42843155E-01 0.18460496E+03</pdfrwt>
<totfact> 0.31219114E+04</totfact>
</mgrwt>
</event>
<event>
 4    1  0.4025504E+000  0.1777996E+03  0.7546771E-02  0.1169950E+00
         21   -1    0    0  503  502  0.00000000000E+00  0.00000000000E+00  0.57620276889E+02  0.57620276889E+02  0.00000000000E+00 0. -1.
         21   -1    0    0  501  503 -0.00000000000E+00 -0.00000000000E+00 -0.58617140034E+03  0.58617140034E+03  0.00000000000E+00 0. -1.
          6    1    1    2  501    0  0.40777410438E+02 -0.45704788521E+01 -0.34572923969E+03  0.38876907497E+03  0.17300000000E+03 0. -1.
         -6    1    1    2    0  502 -0.40777410438E+02  0.45704788521E+01 -0.18282188376E+03  0.25502260225E+03  0.17300000000E+03 0. -1.
<mgrwt>
<rscale>  2 0.17779957E+03</rscale>
<asrwt>0</asrwt>
<pdfrwt beam="1">  1       21 0.88646576E-02 0.17779957E+03</pdfrwt>
<pdfrwt beam="2">  1       21 0.90180220E-01 0.17779957E+03</pdfrwt>
<totfact> 0.10551998E+05</totfact>
</mgrwt>
</event>
<event>
 4    1  0.4025504E+000  0.2491549E+03  0.7546771E-02  0.1113840E+00
         21   -1    0    0  501  502  0.00000000000E+00  0.00000000000E+00  0.16434483588E+03  0.16434483588E+03  0.00000000000E+00 0.  1.
         21   -1    0    0  502  503 -0.00000000000E+00 -0.00000000000E+00 -0.48905776306E+03  0.48905776306E+03  0.00000000000E+00 0.  1.
          6    1    1    2  501    0 -0.17439260496E+03 -0.41669842900E+02 -0.64836519695E+01  0.24923923089E+03  0.17300000000E+03 0.  1.
         -6    1    1    2    0  503  0.17439260496E+03  0.41669842900E+02 -0.31822927521E+03  0.40416336805E+03  0.17300000000E+03 0.  1.
<mgrwt>
<rscale>  2 0.24915488E+03</rscale>
<asrwt>0</asrwt>
<pdfrwt beam="1">  1       21 0.25283821E-01 0.24915488E+03</pdfrwt>
<pdfrwt beam="2">  1       21 0.75239654E-01 0.24915488E+03</pdfrwt>
<totfact> 0.22700387E+04</totfact>
</mgrwt>
</event>
<event>
 4    1  0.4025504E+000  0.3151844E+03  0.7546771E-02  0.1077887E+00
         21   -1    0    0  501  502  0.00000000000E+00  0.00000000000E+00  0.97594130433E+03  0.97594130433E+03  0.00000000000E+00 0. -1.
         21   -1    0    0  502  503 -0.00000000000E+00 -0.00000000000E+00 -0.14607034001E+03  0.14607034001E+03  0.00000000000E+00 0. -1.
          6    1    1    2  501    0  0.25643176555E+03 -0.60456416092E+02  0.72381634479E+03  0.78946268411E+03  0.17300000000E+03 0. -1.
         -6    1    1    2    0  503 -0.25643176555E+03  0.60456416092E+02  0.10605461953E+03  0.33254896023E+03  0.17300000000E+03 0. -1.
<mgrwt>
<rscale>  2 0.31518444E+03</rscale>
<asrwt>0</asrwt>
<pdfrwt beam="1">  1       21 0.15014481E+00 0.31518444E+03</pdfrwt>
<pdfrwt beam="2">  1       21 0.22472361E-01 0.31518444E+03</pdfrwt>
<totfact> 0.50983619E+03</totfact>
</mgrwt>
</event>
<event>
 4    1  0.4025504E+000  0.2214253E+03  0.7546771E-02  0.1132825E+00
         21   -1    0    0  503  502  0.00000000000E+00  0.00000000000E+00  0.52744117387E+03  0.52744117387E+03  0.00000000000E+00 0. -1.
         21   -1    0    0  501  503 -0.00000000000E+00 -0.00000000000E+00 -0.99698039820E+02  0.99698039820E+02  0.00000000000E+00 0. -1.
          6    1    1    2  501    0  0.12784318280E+03 -0.52500535470E+02  0.13233280967E+03  0.25795572901E+03  0.17300000000E+03 0. -1.
         -6    1    1    2    0  502 -0.12784318280E+03  0.52500535470E+02  0.29541032438E+03  0.36918348468E+03  0.17300000000E+03 0. -1.
<mgrwt>
<rscale>  2 0.22142535E+03</rscale>
<asrwt>0</asrwt>
<pdfrwt beam="1">  1       21 0.81144794E-01 0.22142535E+03</pdfrwt>
<pdfrwt beam="2">  1       21 0.15338160E-01 0.22142535E+03</pdfrwt>
<totfact> 0.49469015E+04</totfact>
</mgrwt>
</event>
<event>
 4    1  0.4025504E+000  0.1779482E+03  0.7546771E-02  0.1169804E+00
         21   -1    0    0  501  502  0.00000000000E+00  0.00000000000E+00  0.56558906080E+02  0.56558906080E+02  0.00000000000E+00 0.  1.
         21   -1    0    0  502  503 -0.00000000000E+00 -0.00000000000E+00 -0.60122035914E+03  0.60122035914E+03  0.00000000000E+00 0.  1.
          6    1    1    2  501    0  0.40437224409E+02  0.10069656607E+02 -0.18607672187E+03  0.25746866513E+03  0.17300000000E+03 0.  1.
         -6    1    1    2    0  503 -0.40437224409E+02 -0.10069656607E+02 -0.35858473118E+03  0.40031060008E+03  0.17300000000E+03 0.  1.
<mgrwt>
<rscale>  2 0.17794821E+03</rscale>
<asrwt>0</asrwt>
<pdfrwt beam="1">  1       21 0.87013704E-02 0.17794821E+03</pdfrwt>
<pdfrwt beam="2">  1       21 0.92495438E-01 0.17794821E+03</pdfrwt>
<totfact> 0.10278294E+05</totfact>
</mgrwt>
</event>
<event>
 4    1  0.4025504E+000  0.2432892E+03  0.7546771E-02  0.1117621E+00
         21   -1    0    0  503  502  0.00000000000E+00  0.00000000000E+00  0.13702586729E+03  0.13702586729E+03  0.00000000000E+00 0.  1.
         21   -1    0    0  501  503 -0.00000000000E+00 -0.00000000000E+00 -0.49581478357E+03  0.49581478357E+03  0.00000000000E+00 0. -1.
          6    1    1    2  501    0  0.17064690518E+03 -0.11844215284E+02 -0.29294844756E+03  0.38079974345E+03  0.17300000000E+03 0. -1.
         -6    1    1    2    0  502 -0.17064690518E+03  0.11844215284E+02 -0.65840468717E+02  0.25204090740E+03  0.17300000000E+03 0.  1.
<mgrwt>
<rscale>  2 0.24328923E+03</rscale>
<asrwt>0</asrwt>
<pdfrwt beam="1">  1       21 0.21080902E-01 0.24328923E+03</pdfrwt>
<pdfrwt beam="2">  1       21 0.76279198E-01 0.24328923E+03</pdfrwt>
<totfact> 0.31203686E+04</totfact>
</mgrwt>
</event>
<event>
 4    1  0.4025504E+000  0.1857455E+03  0.7546771E-02  0.1162356E+00
         21   -1    0    0  503  502  0.00000000000E+00  0.00000000000E+00  0.18289378704E+02  0.18289378704E+02  0.00000000000E+00 0. -1.
         21   -1    0    0  501  503 -0.00000000000E+00 -0.00000000000E+00 -0.20440376702E+04  0.20440376702E+04  0.00000000000E+00 0. -1.
          6    1    1    2  501    0  0.26275146830E+02 -0.62305772489E+02 -0.12992193086E+04  0.13124298855E+04  0.17300000000E+03 0. -1.
         -6    1    1    2    0  502 -0.26275146830E+02  0.62305772489E+02 -0.72652898285E+03  0.74989716331E+03  0.17300000000E+03 0. -1.
<mgrwt>
<rscale>  2 0.18574550E+03</rscale>
<asrwt>0</asrwt>
<pdfrwt beam="1">  1       21 0.28137506E-02 0.18574550E+03</pdfrwt>
<pdfrwt beam="2">  1       21 0.31446733E+00 0.18574550E+03</pdfrwt>
<totfact> 0.19962625E+04</totfact>
</mgrwt>
</event>
<event>
 4    1  0.4025504E+000  0.2329881E+03  0.7546771E-02  0.1124554E+00
         21   -1    0    0  501  502  0.00000000000E+00  0.00000000000E+00  0.11486957486E+03  0.11486957486E+03  0.00000000000E+00 0.  1.
         21   -1    0    0  502  503 -0.00000000000E+00 -0.00000000000E+00 -0.75431145990E+03  0.75431145990E+03  0.00000000000E+00 0.  1.
          6    1    1    2  501    0 -0.64693333911E+01 -0.15592502460E+03 -0.54117751288E+02  0.23919071172E+03  0.17300000000E+03 0.  1.
         -6    1    1    2    0  503  0.64693333911E+01  0.15592502460E+03 -0.58532413375E+03  0.62999032303E+03  0.17300000000E+03 0.  1.
<mgrwt>
<rscale>  2 0.23298812E+03</rscale>
<asrwt>0</asrwt>
<pdfrwt beam="1">  1       21 0.17672243E-01 0.23298812E+03</pdfrwt>
<pdfrwt beam="2">  1       21 0.11604791E+00 0.23298812E+03</pdfrwt>
<totfact> 0.16242568E+04</totfact>
</mgrwt>
</event>
<event>
 4    1  0.4025504E+000  0.3295339E+03  0.7546771E-02  0.1071343E+00
         21   -1    0    0  503  502  0.00000000000E+00  0.00000000000E+00  0.24824201517E+03  0.24824201517E+03  0.00000000000E+00 0.  1.
         21   -1    0    0  501  503 -0.00000000000E+00 -0.00000000000E+00 -0.45521858933E+03  0.45521858933E+03  0.00000000000E+00 0. -1.
          6    1    1    2  501    0  0.24837213845E+02  0.27936836363E+03 -0.33990567305E+02  0.33128224893E+03  0.17300000000E+03 0.  1.
         -6    1    1    2    0  502 -0.24837213845E+02 -0.27936836363E+03 -0.17298600686E+03  0.37217835558E+03  0.17300000000E+03 0. -1.
<mgrwt>
<rscale>  2 0.32953387E+03</rscale>
<asrwt>0</asrwt>
<pdfrwt beam="1">  1       21 0.38191080E-01 0.32953387E+03</pdfrwt>
<pdfrwt beam="2">  1       21 0.70033629E-01 0.32953387E+03</pdfrwt>
<totfact> 0.11393877E+04</totfact>
</mgrwt>
</event>
<event>
 4    1  0.4025504E+000  0.2075527E+03  0.7546771E-02  0.1143519E+00
         21   -1    0    0  501  502  0.00000000000E+00  0.00000000000E+00  0.65604926268E+03  0.65604926268E+03  0.00000000000E+00 0.  1.
         21   -1    0    0  502  503 -0.00000000000E+00 -0.00000000000E+00 -0.68299470175E+02  0.68299470175E+02  0.00000000000E+00 0.  1.
          6    1    1    2  501    0 -0.10545460337E+03  0.45038147912E+02  0.36503348515E+03  0.41991374522E+03  0.17300000000E+03 0. -1.
         -6    1    1    2    0  503  0.10545460337E+03 -0.45038147912E+02  0.22271630735E+03  0.30443498764E+03  0.17300000000E+03 0. -1.
<mgrwt>
<rscale>  2 0.20755266E+03</rscale>
<asrwt>0</asrwt>
<pdfrwt beam="1">  1       21 0.10093065E+00 0.20755266E+03</pdfrwt>
<pdfrwt beam="2">  1       21 0.10507611E-01 0.20755266E+03</pdfrwt>
<totfact> 0.59262521E+04</totfact>
</mgrwt>
</event>
<event>
 4    1  0.4025504E+000  0.2263368E+03  0.7546771E-02  0.1129245E+00
         21   -1    0    0  501  502  0.00000000000E+00  0.00000000000E+00  0.83231253435E+02  0.83231253435E+02  0.00000000000E+00 0. -1.
         21   -1    0    0  502  503 -0.00000000000E+00 -0.00000000000E+00 -0.16931653938E+04  0.16931653938E+04  0.00000000000E+00 0. -1.
          6    1    1    2  501    0 -0.42039532579E+01 -0.14588239963E+03 -0.96363380911E+02  0.24599644088E+03  0.17300000000E+03 0. -1.
         -6    1    1    2    0  503  0.42039532579E+01  0.14588239963E+03 -0.15135707594E+04  0.15304002064E+04  0.17300000000E+03 0. -1.
<mgrwt>
<rscale>  2 0.22633680E+03</rscale>
<asrwt>0</asrwt>
<pdfrwt beam="1">  1       21 0.12804809E-01 0.22633680E+03</pdfrwt>
<pdfrwt beam="2">  1       21 0.26048696E+00 0.22633680E+03</pdfrwt>
<totfact> 0.29099445E+03</totfact>
</mgrwt>
</event>
<event>
 4    1  0.4025504E+000  0.2312180E+03  0.7546771E-02  0.1125785E+00
         21   -1    0    0  503  502  0.00000000000E+00  0.00000000000E+00  0.57740908159E+02  0.57740908159E+02  0.00000000000E+00 0.  1.
         21   -1    0    0  501  503 -0.00000000000E+00 -0.00000000000E+00 -0.12552315642E+04  0.12552315642E+04  0.00000000000E+00 0. -1.
          6    1    1    2  501    0  0.11323558608E+03  0.10349130230E+03 -0.93501427506E+03  0.96317882149E+03  0.17300000000E+03 0. -1.
         -6    1    1    2    0  502 -0.11323558608E+03 -0.10349130230E+03 -0.26247638093E+03  0.34979365082E+03  0.17300000000E+03 0.  1.
<mgrwt>
<rscale>  2 0.23121797E+03</rscale>
<asrwt>0</asrwt>
<pdfrwt beam="1">  1       21 0.88832174E-02 0.23121797E+03</pdfrwt>
<pdfrwt beam="2">  1       21 0.19311253E+00 0.23121797E+03</pdfrwt>
<totfact> 0.14453651E+04</totfact>
</mgrwt>
</event>
<event>
 4    1  0.4025504E+000  0.2385949E+03  0.7546771E-02  0.1120732E+00
         21   -1    0    0  503  502  0.00000000000E+00  0.00000000000E+00  0.12858760643E+03  0.12858760643E+03  0.00000000000E+00 0.  1.
         21   -1    0    0  501  503 -0.00000000000E+00 -0.00000000000E+00 -0.46106447763E+03  0.46106447763E+03  0.00000000000E+00 0. -1.
          6    1    1    2  501    0  0.14231563242E+03 -0.82126566344E+02 -0.22505649234E+03  0.32799075730E+03  0.17300000000E+03 0. -1.
         -6    1    1    2    0  502 -0.14231563242E+03  0.82126566344E+02 -0.10742037887E+03  0.26166132677E+03  0.17300000000E+03 0.  1.
<mgrwt>
<rscale>  2 0.23859487E+03</rscale>
<asrwt>0</asrwt>
<pdfrwt beam="1">  1       21 0.19782709E-01 0.23859487E+03</pdfrwt>
<pdfrwt beam="2">  1       21 0.70932996E-01 0.23859487E+03</pdfrwt>
<totfact> 0.41464533E+04</totfact>
</mgrwt>
</event>
<event>
 4    1  0.4025504E+000  0.3198186E+03  0.7546771E-02  0.1075733E+00
         21   -1    0    0  501  502  0.00000000000E+00  0.00000000000E+00  0.35833261037E+03  0.35833261037E+03  0.00000000000E+00 0. -1.
         21   -1    0    0  502  503 -0.00000000000E+00 -0.00000000000E+00 -0.28693409980E+03  0.28693409980E+03  0.00000000000E+00 0. -1.
          6    1    1    2  501    0 -0.48695964052E+02 -0.26454415914E+03  0.12449435458E+02  0.32006077157E+03  0.17300000000E+03 0. -1.
         -6    1    1    2    0  503  0.48695964052E+02  0.26454415914E+03  0.58949075111E+02  0.32520593861E+03  0.17300000000E+03 0. -1.
<mgrwt>
<rscale>  2 0.31981856E+03</rscale>
<asrwt>0</asrwt>
<pdfrwt beam="1">  1       21 0.55128094E-01 0.31981856E+03</pdfrwt>
<pdfrwt beam="2">  1       21 0.44143708E-01 0.31981856E+03</pdfrwt>
<totfact> 0.14344102E+04</totfact>
</mgrwt>
</event>
<event>
 4    1  0.4025504E+000  0.3403500E+03  0.7546771E-02  0.1066647E+00
         21   -1    0    0  503  502  0.00000000000E+00  0.00000000000E+00  0.70374209449E+03  0.70374209449E+03  0.00000000000E+00 0.  1.
         21   -1    0    0  501  503 -0.00000000000E+00 -0.00000000000E+00 -0.24794483040E+03  0.24794483040E+03  0.00000000000E+00 0. -1.
          6    1    1    2  501    0 -0.28474682171E+03  0.69486403294E+02 -0.47979895961E+02  0.34371526462E+03  0.17300000000E+03 0.  1.
         -6    1    1    2    0  502  0.28474682171E+03 -0.69486403294E+02  0.50377716005E+03  0.60797166028E+03  0.17300000000E+03 0. -1.
<mgrwt>
<rscale>  2 0.34034999E+03</rscale>
<asrwt>0</asrwt>
<pdfrwt beam="1">  1       21 0.10826801E+00 0.34034999E+03</pdfrwt>
<pdfrwt beam="2">  1       21 0.38145359E-01 0.34034999E+03</pdfrwt>
<totfact> 0.41040709E+03</totfact>
</mgrwt>
</event>
<event>
 4    1  0.4025504E+000  0.1889735E+03  0.7546771E-02  0.1159390E+00
         21   -1    0    0  503  502  0.00000000000E+00  0.00000000000E+00  0.21460943391E+03  0.21460943391E+03  0.00000000000E+00 0.  1.
         21   -1    0    0  501  503 -0.00000000000E+00 -0.00000000000E+00 -0.23695195229E+03  0.23695195229E+03  0.00000000000E+00 0.  1.
          6    1    1    2  501    0  0.72769987984E+02  0.22057133518E+02 -0.13437147901E+03  0.23187643835E+03  0.17300000000E+03 0.  1.
         -6    1    1    2    0  502 -0.72769987984E+02 -0.22057133518E+02  0.11202896064E+03  0.21968494785E+03  0.17300000000E+03 0.  1.
<mgrwt>
<rscale>  2 0.18897351E+03</rscale>
<asrwt>0</asrwt>
<pdfrwt beam="1">  1       21 0.33016836E-01 0.18897351E+03</pdfrwt>
<pdfrwt beam="2">  1       21 0.36454146E-01 0.18897351E+03</pdfrwt>
<totfact> 0.64195799E+04</totfact>
</mgrwt>
</event>
<event>
 4    1  0.4025504E+000  0.1790083E+03  0.7546771E-02  0.1168766E+00
         21   -1    0    0  503  502  0.00000000000E+00  0.00000000000E+00  0.26598123434E+03  0.26598123434E+03  0.00000000000E+00 0. -1.
         21   -1    0    0  501  503 -0.00000000000E+00 -0.00000000000E+00 -0.12272839793E+03  0.12272839793E+03  0.00000000000E+00 0. -1.
          6    1    1    2  501    0 -0.25100712663E+02 -0.38534645690E+02  0.45288173667E+02  0.18464826934E+03  0.17300000000E+03 0. -1.
         -6    1    1    2    0  502  0.25100712663E+02  0.38534645690E+02  0.97964662739E+02  0.20406136293E+03  0.17300000000E+03 0. -1.
<mgrwt>
<rscale>  2 0.17900828E+03</rscale>
<asrwt>0</asrwt>
<pdfrwt beam="1">  1       21 0.40920190E-01 0.17900828E+03</pdfrwt>
<pdfrwt beam="2">  1       21 0.18881292E-01 0.17900828E+03</pdfrwt>
<totfact> 0.14847243E+05</totfact>
</mgrwt>
</event>
<event>
 4    1  0.4025504E+000  0.1966822E+03  0.7546771E-02  0.1152569E+00
         21   -1    0    0  503  502  0.00000000000E+00  0.00000000000E+00  0.76309426728E+03  0.76309426728E+03  0.00000000000E+00 0. -1.
         21   -1    0    0  501  503 -0.00000000000E+00 -0.00000000000E+00 -0.63778964667E+02  0.63778964667E+02  0.00000000000E+00 0. -1.
          6    1    1    2  501    0 -0.52842788402E+02  0.77217340586E+02  0.16238874390E+03  0.25505682135E+03  0.17300000000E+03 0. -1.
         -6    1    1    2    0  502  0.52842788402E+02 -0.77217340586E+02  0.53692655871E+03  0.57181641059E+03  0.17300000000E+03 0. -1.
<mgrwt>
<rscale>  2 0.19668218E+03</rscale>
<asrwt>0</asrwt>
<pdfrwt beam="1">  1       21 0.11739911E+00 0.19668218E+03</pdfrwt>
<pdfrwt beam="2">  1       21 0.98121489E-02 0.19668218E+03</pdfrwt>
<totfact> 0.46671896E+04</totfact>
</mgrwt>
</event>
<event>
 4    1  0.4025504E+000  0.2232960E+03  0.7546771E-02  0.1131449E+00
         21   -1    0    0  501  502  0.00000000000E+00  0.00000000000E+00  0.43576006210E+03  0.43576006210E+03  0.00000000000E+00 0. -1.
         21   -1    0    0  502  503 -0.00000000000E+00 -0.00000000000E+00 -0.21727540212E+03  0.21727540212E+03  0.00000000000E+00 0.  1.
          6    1    1    2  501    0  0.72855824279E+02 -0.12093031823E+03  0.33389316350E+03  0.40167867460E+03  0.17300000000E+03 0. -1.
         -6    1    1    2    0  503 -0.72855824279E+02  0.12093031823E+03 -0.11540850352E+03  0.25135678961E+03  0.17300000000E+03 0.  1.
<mgrwt>
<rscale>  2 0.22329602E+03</rscale>
<asrwt>0</asrwt>
<pdfrwt beam="1">  1       21 0.67040009E-01 0.22329602E+03</pdfrwt>
<pdfrwt beam="2">  1       21 0.33426985E-01 0.22329602E+03</pdfrwt>
<totfact> 0.17241217E+04</totfact>
</mgrwt>
</event>
<event>
 4    1  0.4025504E+000  0.3498921E+03  0.7546771E-02  0.1062659E+00
         21   -1    0    0  501  502  0.00000000000E+00  0.00000000000E+00  0.86823683119E+03  0.86823683119E+03  0.00000000000E+00 0.  1.
         21   -1    0    0  502  503 -0.00000000000E+00 -0.00000000000E+00 -0.21301915684E+03  0.21301915684E+03  0.00000000000E+00 0. -1.
          6    1    1    2  501    0 -0.19831294483E+03  0.23058074650E+03  0.64195083557E+03  0.73111242639E+03  0.17300000000E+03 0.  1.
         -6    1    1    2    0  503  0.19831294483E+03 -0.23058074650E+03  0.13266838777E+02  0.35014356163E+03  0.17300000000E+03 0. -1.
<mgrwt>
<rscale>  2 0.34989213E+03</rscale>
<asrwt>0</asrwt>
<pdfrwt beam="1">  1       21 0.13357490E+00 0.34989213E+03</pdfrwt>
<pdfrwt beam="2">  1       21 0.32772178E-01 0.34989213E+03</pdfrwt>
<totfact> 0.32671693E+03</totfact>
</mgrwt>
</event>
<event>
 4    1  0.4025504E+000  0.1903372E+03  0.7546771E-02  0.1158158E+00
         21   -1    0    0  501  502  0.00000000000E+00  0.00000000000E+00  0.27804767522E+03  0.27804767522E+03  0.00000000000E+00 0. -1.
         21   -1    0    0  502  503 -0.00000000000E+00 -0.00000000000E+00 -0.15389184043E+03  0.15389184043E+03  0.00000000000E+00 0. -1.
          6    1    1    2  501    0  0.67786242158E+02  0.41283010476E+02 -0.22490997304E+02  0.19166143728E+03  0.17300000000E+03 0. -1.
         -6    1    1    2    0  503 -0.67786242158E+02 -0.41283010476E+02  0.14664683209E+03  0.24027807837E+03  0.17300000000E+03 0. -1.
<mgrwt>
<rscale>  2 0.19033723E+03</rscale>
<asrwt>0</asrwt>
<pdfrwt beam="1">  1       21 0.42776565E-01 0.19033723E+03</pdfrwt>
<pdfrwt beam="2">  1       21 0.23675668E-01 0.19033723E+03</pdfrwt>
<totfact> 0.88392950E+04</totfact>
</mgrwt>
</event>
<event>
 4    1  0.4025504E+000  0.1793107E+03  0.7546771E-02  0.1168472E+00
         21   -1    0    0  501  502  0.00000000000E+00  0.00000000000E+00  0.20906795143E+03  0.20906795143E+03  0.00000000000E+00 0.  1.
         21   -1    0    0  502  503 -0.00000000000E+00 -0.00000000000E+00 -0.19177014438E+03  0.19177014438E+03  0.00000000000E+00 0.  1.
          6    1    1    2  501    0 -0.39142734729E+01 -0.46989396041E+02  0.97842410351E+02  0.20426811337E+03  0.17300000000E+03 0.  1.
         -6    1    1    2    0  503  0.39142734729E+01  0.46989396041E+02 -0.80544603299E+02  0.19656998244E+03  0.17300000000E+03 0.  1.
<mgrwt>
<rscale>  2 0.17931069E+03</rscale>
<asrwt>0</asrwt>
<pdfrwt beam="1">  1       21 0.32164300E-01 0.17931069E+03</pdfrwt>
<pdfrwt beam="2">  1       21 0.29503099E-01 0.17931069E+03</pdfrwt>
<totfact> 0.10286871E+05</totfact>
</mgrwt>
</event>
<event>
 4    1  0.4025504E+000  0.2672648E+03  0.7546771E-02  0.1102855E+00
         21   -1    0    0  501  502  0.00000000000E+00  0.00000000000E+00  0.96825796181E+02  0.96825796181E+02  0.00000000000E+00 0. -1.
         21   -1    0    0  502  503 -0.00000000000E+00 -0.00000000000E+00 -0.92693528478E+03  0.92693528478E+03  0.00000000000E+00 0. -1.
          6    1    1    2  501    0  0.37090371619E+02  0.20031418618E+03 -0.18378419514E+03  0.32435643856E+03  0.17300000000E+03 0. -1.
         -6    1    1    2    0  503 -0.37090371619E+02 -0.20031418618E+03 -0.64632529347E+03  0.69940464241E+03  0.17300000000E+03 0. -1.
<mgrwt>
<rscale>  2 0.26726479E+03</rscale>
<asrwt>0</asrwt>
<pdfrwt beam="1">  1       21 0.14896277E-01 0.26726479E+03</pdfrwt>
<pdfrwt beam="2">  1       21 0.14260543E+00 0.26726479E+03</pdfrwt>
<totfact> 0.12935241E+04</totfact>
</mgrwt>
</event>
<event>
 4    1  0.4025504E+000  0.2055124E+03  0.7546771E-02  0.1145170E+00
         21   -1    0    0  503  502  0.00000000000E+00  0.00000000000E+00  0.28178142938E+03  0.28178142938E+03  0.00000000000E+00 0.  1.
         21   -1    0    0  501  503 -0.00000000000E+00 -0.00000000000E+00 -0.45997041759E+03  0.45997041759E+03  0.00000000000E+00 0.  1.
          6    1    1    2  501    0 -0.11085628343E+03 -0.41496733654E+01 -0.39360554269E+03  0.44402776782E+03  0.17300000000E+03 0.  1.
         -6    1    1    2    0  502  0.11085628343E+03  0.41496733654E+01  0.21541655447E+03  0.29772407915E+03  0.17300000000E+03 0.  1.
<mgrwt>
<rscale>  2 0.20551237E+03</rscale>
<asrwt>0</asrwt>
<pdfrwt beam="1">  1       21 0.43350989E-01 0.20551237E+03</pdfrwt>
<pdfrwt beam="2">  1       21 0.70764679E-01 0.20551237E+03</pdfrwt>
<totfact> 0.91706927E+03</totfact>
</mgrwt>
</event>
<event>
 4    1  0.4025504E+000  0.2260623E+03  0.7546771E-02  0.1129442E+00
         21   -1    0    0  503  502  0.00000000000E+00  0.00000000000E+00  0.19452619987E+03  0.19452619987E+03  0.00000000000E+00 0.  1.
         21   -1    0    0  501  503 -0.00000000000E+00 -0.00000000000E+00 -0.41481034557E+03  0.41481034557E+03  0.00000000000E+00 0.  1.
          6    1    1    2  501    0 -0.73747423260E+02  0.12544505434E+03 -0.29462930782E+03  0.37136312838E+03  0.17300000000E+03 0.  1.
         -6    1    1    2    0  502  0.73747423260E+02 -0.12544505434E+03  0.74345162112E+02  0.23797341706E+03  0.17300000000E+03 0.  1.
<mgrwt>
<rscale>  2 0.22606226E+03</rscale>
<asrwt>0</asrwt>
<pdfrwt beam="1">  1       21 0.29927108E-01 0.22606226E+03</pdfrwt>
<pdfrwt beam="2">  1       21 0.63816976E-01 0.22606226E+03</pdfrwt>
<totfact> 0.23837987E+04</totfact>
</mgrwt>
</event>
<event>
 4    1  0.4025504E+000  0.2844246E+03  0.7546771E-02  0.1093297E+00
         21   -1    0    0  503  502  0.00000000000E+00  0.00000000000E+00  0.13134275569E+03  0.13134275569E+03  0.00000000000E+00 0.  1.
         21   -1    0    0  501  503 -0.00000000000E+00 -0.00000000000E+00 -0.80087303727E+03  0.80087303727E+03  0.00000000000E+00 0. -1.
          6    1    1    2  501    0  0.22052612095E+03 -0.48338216652E+02 -0.55875527703E+03  0.62698071168E+03  0.17300000000E+03 0. -1.
         -6    1    1    2    0  502 -0.22052612095E+03  0.48338216652E+02 -0.11077500455E+03  0.30523508128E+03  0.17300000000E+03 0.  1.
<mgrwt>
<rscale>  2 0.28442460E+03</rscale>
<asrwt>0</asrwt>
<pdfrwt beam="1">  1       21 0.20206578E-01 0.28442460E+03</pdfrwt>
<pdfrwt beam="2">  1       21 0.12321123E+00 0.28442460E+03</pdfrwt>
<totfact> 0.10593207E+04</totfact>
</mgrwt>
</event>
<event>
 4    1  0.4025504E+000  0.1849706E+03  0.7546771E-02  0.1163077E+00
         21   -1    0    0  501  502  0.00000000000E+00  0.00000000000E+00  0.29980351707E+03  0.29980351707E+03  0.00000000000E+00 0. -1.
         21   -1    0    0  502  503 -0.00000000000E+00 -0.00000000000E+00 -0.11423826678E+03  0.11423826678E+03  0.00000000000E+00 0. -1.
          6    1    1    2  501    0 -0.64696347489E+02  0.99761538197E+01  0.99390473253E+02  0.20998239735E+03  0.17300000000E+03 0. -1.
         -6    1    1    2    0  503  0.64696347489E+02 -0.99761538197E+01  0.86174777037E+02  0.20405938651E+03  0.17300000000E+03 0. -1.
<mgrwt>
<rscale>  2 0.18497065E+03</rscale>
<asrwt>0</asrwt>
<pdfrwt beam="1">  1       21 0.46123618E-01 0.18497065E+03</pdfrwt>
<pdfrwt beam="2">  1       21 0.17575118E-01 0.18497065E+03</pdfrwt>
<totfact> 0.13250838E+05</totfact>
</mgrwt>
</event>
<event>
 4    1  0.4025504E+000  0.1853775E+03  0.7546771E-02  0.1162698E+00
         21   -1    0    0  503  502  0.00000000000E+00  0.00000000000E+00  0.21032262455E+03  0.21032262455E+03  0.00000000000E+00 0.  1.
         21   -1    0    0  501  503 -0.00000000000E+00 -0.00000000000E+00 -0.20002321743E+03  0.20002321743E+03  0.00000000000E+00 0.  1.
          6    1    1    2  501    0 -0.48530310315E+02 -0.45613811495E+02 -0.82653793057E+02  0.20296911175E+03  0.17300000000E+03 0.  1.
         -6    1    1    2    0  502  0.48530310315E+02  0.45613811495E+02  0.92953200176E+02  0.20737673023E+03  0.17300000000E+03 0.  1.
<mgrwt>
<rscale>  2 0.18537748E+03</rscale>
<asrwt>0</asrwt>
<pdfrwt beam="1">  1       21 0.32357327E-01 0.18537748E+03</pdfrwt>
<pdfrwt beam="2">  1       21 0.30772803E-01 0.18537748E+03</pdfrwt>
<totfact> 0.93443048E+04</totfact>
</mgrwt>
</event>
<event>
 4    1  0.4025504E+000  0.1776261E+03  0.7546771E-02  0.1170120E+00
         21   -1    0    0  503  502  0.00000000000E+00  0.00000000000E+00  0.42939155170E+03  0.42939155170E+03  0.00000000000E+00 0. -1.
         21   -1    0    0  501  503 -0.00000000000E+00 -0.00000000000E+00 -0.73849387367E+02  0.73849387367E+02  0.00000000000E+00 0. -1.
          6    1    1    2  501    0  0.36462001508E+02 -0.17104062467E+02  0.15993819505E+03  0.23902144829E+03  0.17300000000E+03 0. -1.
         -6    1    1    2    0  502 -0.36462001508E+02  0.17104062467E+02  0.19560396928E+03  0.26421949078E+03  0.17300000000E+03 0. -1.
<mgrwt>
<rscale>  2 0.17762609E+03</rscale>
<asrwt>0</asrwt>
<pdfrwt beam="1">  1       21 0.66060237E-01 0.17762609E+03</pdfrwt>
<pdfrwt beam="2">  1       21 0.11361444E-01 0.17762609E+03</pdfrwt>
<totfact> 0.13683931E+05</totfact>
</mgrwt>
</event>
<event>
 4    1  0.4025504E+000  0.2525879E+03  0.7546771E-02  0.1111680E+00
         21   -1    0    0  501  502  0.00000000000E+00  0.00000000000E+00  0.82271422735E+02  0.82271422735E+02  0.00000000000E+00 0. -1.
         21   -1    0    0  502  503 -0.00000000000E+00 -0.00000000000E+00 -0.96733406605E+03  0.96733406605E+03  0.00000000000E+00 0.  1.
          6    1    1    2  501    0  0.12790972762E+03  0.13232813943E+03 -0.20881854018E+03  0.32772826797E+03  0.17300000000E+03 0. -1.
         -6    1    1    2    0  503 -0.12790972762E+03 -0.13232813943E+03 -0.67624410313E+03  0.72187722081E+03  0.17300000000E+03 0.  1.
<mgrwt>
<rscale>  2 0.25258788E+03</rscale>
<asrwt>0</asrwt>
<pdfrwt beam="1">  1       21 0.12657141E-01 0.25258788E+03</pdfrwt>
<pdfrwt beam="2">  1       21 0.14882063E+00 0.25258788E+03</pdfrwt>
<totfact> 0.15671352E+04</totfact>
</mgrwt>
</event>
<event>
 4    1  0.4025504E+000  0.2295249E+03  0.7546771E-02  0.1126975E+00
         21   -1    0    0  501  502  0.00000000000E+00  0.00000000000E+00  0.20738468429E+03  0.20738468429E+03  0.00000000000E+00 0. -1.
         21   -1    0    0  502  503 -0.00000000000E+00 -0.00000000000E+00 -0.25852468723E+03  0.25852468723E+03  0.00000000000E+00 0. -1.
          6    1    1    2  501    0 -0.25983445727E+02 -0.14858511481E+03 -0.56290602150E+02  0.23632669694E+03  0.17300000000E+03 0. -1.
         -6    1    1    2    0  503  0.25983445727E+02  0.14858511481E+03  0.51505992054E+01  0.22958267458E+03  0.17300000000E+03 0. -1.
<mgrwt>
<rscale>  2 0.22952489E+03</rscale>
<asrwt>0</asrwt>
<pdfrwt beam="1">  1       21 0.31905336E-01 0.22952489E+03</pdfrwt>
<pdfrwt beam="2">  1       21 0.39773029E-01 0.22952489E+03</pdfrwt>
<totfact> 0.56616625E+04</totfact>
</mgrwt>
</event>
<event>
 4    1  0.4025504E+000  0.1775939E+03  0.7546771E-02  0.1170152E+00
         21   -1    0    0  501  502  0.00000000000E+00  0.00000000000E+00  0.17327858561E+04  0.17327858561E+04  0.00000000000E+00 0.  1.
         21   -1    0    0  502  503 -0.00000000000E+00 -0.00000000000E+00 -0.19740595853E+02  0.19740595853E+02  0.00000000000E+00 0.  1.
          6    1    1    2  501    0 -0.22363546583E+02 -0.33323843856E+02  0.11011823386E+04  0.11154112021E+04  0.17300000000E+03 0.  1.
         -6    1    1    2    0  503  0.22363546583E+02  0.33323843856E+02  0.61186292156E+03  0.63711524983E+03  0.17300000000E+03 0.  1.
<mgrwt>
<rscale>  2 0.17759394E+03</rscale>
<asrwt>0</asrwt>
<pdfrwt beam="1">  1       21 0.26658232E+00 0.17759394E+03</pdfrwt>
<pdfrwt beam="2">  1       21 0.30370161E-02 0.17759394E+03</pdfrwt>
<totfact> 0.33431486E+04</totfact>
</mgrwt>
</event>
<event>
 4    1  0.4025504E+000  0.2139032E+03  0.7546771E-02  0.1138512E+00
         21   -1    0    0  503  502  0.00000000000E+00  0.00000000000E+00  0.50546636180E+02  0.50546636180E+02  0.00000000000E+00 0. -1.
         21   -1    0    0  501  503 -0.00000000000E+00 -0.00000000000E+00 -0.91092922394E+03  0.91092922394E+03  0.00000000000E+00 0.  1.
          6    1    1    2  501    0  0.61863109934E+02  0.10953777407E+03 -0.46833289459E+03  0.51486917608E+03  0.17300000000E+03 0.  1.
         -6    1    1    2    0  502 -0.61863109934E+02 -0.10953777407E+03 -0.39204969317E+03  0.44660668404E+03  0.17300000000E+03 0. -1.
<mgrwt>
<rscale>  2 0.21390318E+03</rscale>
<asrwt>0</asrwt>
<pdfrwt beam="1">  1       21 0.77764061E-02 0.21390318E+03</pdfrwt>
<pdfrwt beam="2">  1       21 0.14014295E+00 0.21390318E+03</pdfrwt>
<totfact> 0.44461110E+04</totfact>
</mgrwt>
</event>
<event>
 4    1  0.4025504E+000  0.3285357E+03  0.7546771E-02  0.1071787E+00
         21   -1    0    0  503  502  0.00000000000E+00  0.00000000000E+00  0.26194070154E+03  0.26194070154E+03  0.00000000000E+00 0.  1.
         21   -1    0    0  501  503 -0.00000000000E+00 -0.00000000000E+00 -0.71653584941E+03  0.71653584941E+03  0.00000000000E+00 0.  1.
          6    1    1    2  501    0  0.17029875037E+02 -0.27877717857E+03 -0.54621384289E+03  0.63740512557E+03  0.17300000000E+03 0.  1.
         -6    1    1    2    0  502 -0.17029875037E+02  0.27877717857E+03  0.91618695017E+02  0.34107142538E+03  0.17300000000E+03 0.  1.
<mgrwt>
<rscale>  2 0.32853574E+03</rscale>
<asrwt>0</asrwt>
<pdfrwt beam="1">  1       21 0.40298570E-01 0.32853574E+03</pdfrwt>
<pdfrwt beam="2">  1       21 0.11023628E+00 0.32853574E+03</pdfrwt>
<totfact> 0.35302380E+03</totfact>
</mgrwt>
</event>
<event>
 4    1  0.4025504E+000  0.1809195E+03  0.7546771E-02  0.1166916E+00
         21   -1    0    0  501  502  0.00000000000E+00  0.00000000000E+00  0.94981942707E+02  0.94981942707E+02  0.00000000000E+00 0.  1.
         21   -1    0    0  502  503 -0.00000000000E+00 -0.00000000000E+00 -0.34758180832E+03  0.34758180832E+03  0.00000000000E+00 0.  1.
          6    1    1    2  501    0  0.24233172811E+00  0.52941450930E+02 -0.10584355623E+03  0.20960609330E+03  0.17300000000E+03 0. -1.
         -6    1    1    2    0  503 -0.24233172811E+00 -0.52941450930E+02 -0.14675630938E+03  0.23295765773E+03  0.17300000000E+03 0. -1.
<mgrwt>
<rscale>  2 0.18091947E+03</rscale>
<asrwt>0</asrwt>
<pdfrwt beam="1">  1       21 0.14612607E-01 0.18091947E+03</pdfrwt>
<pdfrwt beam="2">  1       21 0.53474124E-01 0.18091947E+03</pdfrwt>
<totfact> 0.13671937E+05</totfact>
</mgrwt>
</event>
<event>
 4    1  0.4025504E+000  0.3009973E+03  0.7546771E-02  0.1084743E+00
         21   -1    0    0  501  502  0.00000000000E+00  0.00000000000E+00  0.16893859802E+03  0.16893859802E+03  0.00000000000E+00 0.  1.
         21   -1    0    0  502  503 -0.00000000000E+00 -0.00000000000E+00 -0.66604003682E+03  0.66604003682E+03  0.00000000000E+00 0.  1.
          6    1    1    2  501    0 -0.31051666607E+02 -0.24434840944E+03 -0.64280067958E+02  0.30778446733E+03  0.17300000000E+03 0.  1.
         -6    1    1    2    0  503  0.31051666607E+02  0.24434840944E+03 -0.43282137085E+03  0.52719416751E+03  0.17300000000E+03 0.  1.
<mgrwt>
<rscale>  2 0.30099726E+03</rscale>
<asrwt>0</asrwt>
<pdfrwt beam="1">  1       21 0.25990554E-01 0.30099726E+03</pdfrwt>
<pdfrwt beam="2">  1       21 0.10246770E+00 0.30099726E+03</pdfrwt>
<totfact> 0.10235465E+04</totfact>
</mgrwt>
</event>
<event>
 4    1  0.4025504E+000  0.1797094E+03  0.7546771E-02  0.1168085E+00
         21   -1    0    0  503  502  0.00000000000E+00  0.00000000000E+00  0.21724736529E+02  0.21724736529E+02  0.00000000000E+00 0. -1.
         21   -1    0    0  501  503 -0.00000000000E+00 -0.00000000000E+00 -0.16270609965E+04  0.16270609965E+04  0.00000000000E+00 0. -1.
          6    1    1    2  501    0  0.27581745532E+02 -0.40071521499E+02 -0.10449086222E+04  0.10602497386E+04  0.17300000000E+03 0.  1.
         -6    1    1    2    0  502 -0.27581745532E+02  0.40071521499E+02 -0.56042763778E+03  0.58853599440E+03  0.17300000000E+03 0.  1.
<mgrwt>
<rscale>  2 0.17970943E+03</rscale>
<asrwt>0</asrwt>
<pdfrwt beam="1">  1       21 0.33422656E-02 0.17970943E+03</pdfrwt>
<pdfrwt beam="2">  1       21 0.25031719E+00 0.17970943E+03</pdfrwt>
<totfact> 0.35395807E+04</totfact>
</mgrwt>
</event>
<event>
 4    1  0.4025504E+000  0.2212488E+03  0.7546771E-02  0.1132955E+00
         21   -1    0    0  503  502  0.00000000000E+00  0.00000000000E+00  0.45253087511E+03  0.45253087511E+03  0.00000000000E+00 0. -1.
         21   -1    0    0  501  503 -0.00000000000E+00 -0.00000000000E+00 -0.31817230940E+03  0.31817230940E+03  0.00000000000E+00 0. -1.
          6    1    1    2  501    0  0.11353745460E+03 -0.78302353676E+02 -0.24588699888E+03  0.33077398387E+03  0.17300000000E+03 0. -1.
         -6    1    1    2    0  502 -0.11353745460E+03  0.78302353676E+02  0.38024556459E+03  0.43992920064E+03  0.17300000000E+03 0. -1.
<mgrwt>
<rscale>  2 0.22124876E+03</rscale>
<asrwt>0</asrwt>
<pdfrwt beam="1">  1       21 0.69620135E-01 0.22124876E+03</pdfrwt>
<pdfrwt beam="2">  1       21 0.48949586E-01 0.22124876E+03</pdfrwt>
<totfact> 0.73196635E+03</totfact>
</mgrwt>
</event>
<event>
 4    1  0.4025504E+000  0.2832180E+03  0.7546771E-02  0.1093944E+00
         21   -1    0    0  503  502  0.00000000000E+00  0.00000000000E+00  0.44474656186E+03  0.44474656186E+03  0.00000000000E+00 0.  1.
         21   -1    0    0  501  503 -0.00000000000E+00 -0.00000000000E+00 -0.20755786885E+03  0.20755786885E+03  0.00000000000E+00 0. -1.
          6    1    1    2  501    0  0.18677061447E+03 -0.12409734342E+03  0.52002780177E+00  0.28321843779E+03  0.17300000000E+03 0. -1.
         -6    1    1    2    0  502 -0.18677061447E+03  0.12409734342E+03  0.23666866521E+03  0.36908599291E+03  0.17300000000E+03 0. -1.
<mgrwt>
<rscale>  2 0.28321796E+03</rscale>
<asrwt>0</asrwt>
<pdfrwt beam="1">  1       21 0.68422548E-01 0.28321796E+03</pdfrwt>
<pdfrwt beam="2">  1       21 0.31931980E-01 0.28321796E+03</pdfrwt>
<totfact> 0.17520148E+04</totfact>
</mgrwt>
</event>
<event>
 4    1  0.4025504E+000  0.3014530E+03  0.7546771E-02  0.1084517E+00
         21   -1    0    0  503  502  0.00000000000E+00  0.00000000000E+00  0.13040968322E+03  0.13040968322E+03  0.00000000000E+00 0. -1.
         21   -1    0    0  501  503 -0.00000000000E+00 -0.00000000000E+00 -0.10975733929E+04  0.10975733929E+04  0.00000000000E+00 0. -1.
          6    1    1    2  501    0  0.23184813691E+03  0.84801894564E+02 -0.85458410257E+03  0.90619418906E+03  0.17300000000E+03 0. -1.
         -6    1    1    2    0  502 -0.23184813691E+03 -0.84801894564E+02 -0.11257960715E+03  0.32178888710E+03  0.17300000000E+03 0. -1.
<mgrwt>
<rscale>  2 0.30145301E+03</rscale>
<asrwt>0</asrwt>
<pdfrwt beam="1">  1       21 0.20063028E-01 0.30145301E+03</pdfrwt>
<pdfrwt beam="2">  1       21 0.16885745E+00 0.30145301E+03</pdfrwt>
<totfact> 0.46174158E+03</totfact>
</mgrwt>
</event>
<event>
 4    1  0.4025504E+000  0.2156003E+03  0.7546771E-02  0.1137206E+00
         21   -1    0    0  503  502  0.00000000000E+00  0.00000000000E+00  0.11529819637E+03  0.11529819637E+03  0.00000000000E+00 0. -1.
         21   -1    0    0  501  503 -0.00000000000E+00 -0.00000000000E+00 -0.52824917153E+03  0.52824917153E+03  0.00000000000E+00 0.  1.
          6    1    1    2  501    0  0.12233712160E+03  0.39851223822E+02 -0.36305787774E+03  0.42224935044E+03  0.17300000000E+03 0.  1.
         -6    1    1    2    0  502 -0.12233712160E+03 -0.39851223822E+02 -0.49893097415E+02  0.22129801746E+03  0.17300000000E+03 0. -1.
<mgrwt>
<rscale>  2 0.21560030E+03</rscale>
<asrwt>0</asrwt>
<pdfrwt beam="1">  1       21 0.17738183E-01 0.21560030E+03</pdfrwt>
<pdfrwt beam="2">  1       21 0.81269106E-01 0.21560030E+03</pdfrwt>
<totfact> 0.37828997E+04</totfact>
</mgrwt>
</event>
<event>
 4    1  0.4025504E+000  0.2639618E+03  0.7546771E-02  0.1104786E+00
         21   -1    0    0  503  502  0.00000000000E+00  0.00000000000E+00  0.48893201772E+03  0.48893201772E+03  0.00000000000E+00 0.  1.
         21   -1    0    0  501  503 -0.00000000000E+00 -0.00000000000E+00 -0.20112535834E+03  0.20112535834E+03  0.00000000000E+00 0.  1.
          6    1    1    2  501    0 -0.12962724275E+03  0.15147153777E+03 -0.42366082189E+02  0.26734010874E+03  0.17300000000E+03 0.  1.
         -6    1    1    2    0  502  0.12962724275E+03 -0.15147153777E+03  0.33017274156E+03  0.42271726732E+03  0.17300000000E+03 0.  1.
<mgrwt>
<rscale>  2 0.26396183E+03</rscale>
<asrwt>0</asrwt>
<pdfrwt beam="1">  1       21 0.75220310E-01 0.26396183E+03</pdfrwt>
<pdfrwt beam="2">  1       21 0.30942363E-01 0.26396183E+03</pdfrwt>
<totfact> 0.15221742E+04</totfact>
</mgrwt>
</event>
<event>
 4    1  0.4025504E+000  0.2964750E+03  0.7546771E-02  0.1087016E+00
         21   -1    0    0  501  502  0.00000000000E+00  0.00000000000E+00  0.35272794736E+03  0.35272794736E+03  0.00000000000E+00 0. -1.
         21   -1    0    0  502  503 -0.00000000000E+00 -0.00000000000E+00 -0.26309494468E+03  0.26309494468E+03  0.00000000000E+00 0.  1.
          6    1    1    2  501    0  0.20852212620E+03  0.12036167304E+03  0.11559544550E+03  0.31821331913E+03  0.17300000000E+03 0. -1.
         -6    1    1    2    0  503 -0.20852212620E+03 -0.12036167304E+03 -0.25962442812E+02  0.29760957291E+03  0.17300000000E+03 0.  1.
<mgrwt>
<rscale>  2 0.29647497E+03</rscale>
<asrwt>0</asrwt>
<pdfrwt beam="1">  1       21 0.54265838E-01 0.29647497E+03</pdfrwt>
<pdfrwt beam="2">  1       21 0.40476145E-01 0.29647497E+03</pdfrwt>
<totfact> 0.17904499E+04</totfact>
</mgrwt>
</event>
<event>
 4    1  0.4025504E+000  0.2428322E+03  0.7546771E-02  0.1117920E+00
         21   -1    0    0  501  502  0.00000000000E+00  0.00000000000E+00  0.11363742989E+03  0.11363742989E+03  0.00000000000E+00 0.  1.
         21   -1    0    0  502  503 -0.00000000000E+00 -0.00000000000E+00 -0.59460450028E+03  0.59460450028E+03  0.00000000000E+00 0.  1.
          6    1    1    2  501    0 -0.11731428151E+03  0.12359553550E+03 -0.36683267038E+03  0.43992465843E+03  0.17300000000E+03 0.  1.
         -6    1    1    2    0  503  0.11731428151E+03 -0.12359553550E+03 -0.11413440002E+03  0.26831727173E+03  0.17300000000E+03 0.  1.
<mgrwt>
<rscale>  2 0.24283224E+03</rscale>
<asrwt>0</asrwt>
<pdfrwt beam="1">  1       21 0.17482682E-01 0.24283224E+03</pdfrwt>
<pdfrwt beam="2">  1       21 0.91477615E-01 0.24283224E+03</pdfrwt>
<totfact> 0.29192732E+04</totfact>
</mgrwt>
</event>
<event>
 4    1  0.4025504E+000  0.1747020E+03  0.7546771E-02  0.1173031E+00
         21   -1    0    0  501  502  0.00000000000E+00  0.00000000000E+00  0.60699386193E+02  0.60699386193E+02  0.00000000000E+00 0. -1.
         21   -1    0    0  502  503 -0.00000000000E+00 -0.00000000000E+00 -0.53992577740E+03  0.53992577740E+03  0.00000000000E+00 0. -1.
          6    1    1    2  501    0  0.16218791060E+02  0.18131459647E+02 -0.16088439031E+03  0.23749649694E+03  0.17300000000E+03 0.  1.
         -6    1    1    2    0  503 -0.16218791060E+02 -0.18131459647E+02 -0.31834200090E+03  0.36312866666E+03  0.17300000000E+03 0.  1.
<mgrwt>
<rscale>  2 0.17470203E+03</rscale>
<asrwt>0</asrwt>
<pdfrwt beam="1">  1       21 0.93383672E-02 0.17470203E+03</pdfrwt>
<pdfrwt beam="2">  1       21 0.83065503E-01 0.17470203E+03</pdfrwt>
<totfact> 0.11641274E+05</totfact>
</mgrwt>
</event>
<event>
 4    1  0.4025504E+000  0.1928559E+03  0.7546771E-02  0.1155910E+00
         21   -1    0    0  503  502  0.00000000000E+00  0.00000000000E+00  0.20910060810E+03  0.20910060810E+03  0.00000000000E+00 0.  1.
         21   -1    0    0  501  503 -0.00000000000E+00 -0.00000000000E+00 -0.30902651537E+03  0.30902651537E+03  0.00000000000E+00 0. -1.
          6    1    1    2  501    0 -0.83060314541E+02  0.19114976153E+02 -0.21873404770E+03  0.29161272569E+03  0.17300000000E+03 0. -1.
         -6    1    1    2    0  502  0.83060314541E+02 -0.19114976153E+02  0.11880814043E+03  0.22651439777E+03  0.17300000000E+03 0. -1.
<mgrwt>
<rscale>  2 0.19285590E+03</rscale>
<asrwt>0</asrwt>
<pdfrwt beam="1">  1       21 0.32169324E-01 0.19285590E+03</pdfrwt>
<pdfrwt beam="2">  1       21 0.47542541E-01 0.19285590E+03</pdfrwt>
<totfact> 0.39327653E+04</totfact>
</mgrwt>
</event>
<event>
 4    1  0.4025504E+000  0.2561949E+03  0.7546771E-02  0.1109451E+00
         21   -1    0    0  501  502  0.00000000000E+00  0.00000000000E+00  0.60473776778E+02  0.60473776778E+02  0.00000000000E+00 0.  1.
         21   -1    0    0  502  503 -0.00000000000E+00 -0.00000000000E+00 -0.13289125290E+04  0.13289125290E+04  0.00000000000E+00 0. -1.
          6    1    1    2  501    0  0.15384866531E+02  0.18833522768E+03 -0.33681959489E+03  0.42318233849E+03  0.17300000000E+03 0.  1.
         -6    1    1    2    0  503 -0.15384866531E+02 -0.18833522768E+03 -0.93161915734E+03  0.96620396730E+03  0.17300000000E+03 0. -1.
<mgrwt>
<rscale>  2 0.25619495E+03</rscale>
<asrwt>0</asrwt>
<pdfrwt beam="1">  1       21 0.93036577E-02 0.25619495E+03</pdfrwt>
<pdfrwt beam="2">  1       21 0.20444809E+00 0.25619495E+03</pdfrwt>
<totfact> 0.11055447E+04</totfact>
</mgrwt>
</event>
<event>
 4    1  0.4025504E+000  0.1761061E+03  0.7546771E-02  0.1171626E+00
         21   -1    0    0  501  502  0.00000000000E+00  0.00000000000E+00  0.61217344582E+03  0.61217344582E+03  0.00000000000E+00 0.  1.
         21   -1    0    0  502  503 -0.00000000000E+00 -0.00000000000E+00 -0.74802506007E+02  0.74802506007E+02  0.00000000000E+00 0.  1.
          6    1    1    2  501    0  0.95295828395E-01 -0.32929609972E+02  0.46382035602E+03  0.49612769621E+03  0.17300000000E+03 0.  1.
         -6    1    1    2    0  503 -0.95295828395E-01  0.32929609972E+02  0.73550583795E+02  0.19084825561E+03  0.17300000000E+03 0.  1.
<mgrwt>
<rscale>  2 0.17610613E+03</rscale>
<asrwt>0</asrwt>
<pdfrwt beam="1">  1       21 0.94180527E-01 0.17610613E+03</pdfrwt>
<pdfrwt beam="2">  1       21 0.11508078E-01 0.17610613E+03</pdfrwt>
<totfact> 0.60250276E+04</totfact>
</mgrwt>
</event>
<event>
 4    1  0.4025504E+000  0.1737190E+03  0.7546771E-02  0.1174024E+00
         21   -1    0    0  501  502  0.00000000000E+00  0.00000000000E+00  0.11620356495E+03  0.11620356495E+03  0.00000000000E+00 0. -1.
         21   -1    0    0  502  503 -0.00000000000E+00 -0.00000000000E+00 -0.93440800625E+03  0.93440800625E+03  0.00000000000E+00 0. -1.
          6    1    1    2  501    0 -0.12050997683E+02  0.10200886649E+02  0.37274188662E+02  0.17767287293E+03  0.17300000000E+03 0. -1.
         -6    1    1    2    0  503  0.12050997683E+02 -0.10200886649E+02 -0.85547862996E+03  0.87293869828E+03  0.17300000000E+03 0. -1.
<mgrwt>
<rscale>  2 0.17371898E+03</rscale>
<asrwt>0</asrwt>
<pdfrwt beam="1">  1       21 0.17877471E-01 0.17371898E+03</pdfrwt>
<pdfrwt beam="2">  1       21 0.14375508E+00 0.17371898E+03</pdfrwt>
<totfact> 0.96393381E+03</totfact>
</mgrwt>
</event>
<event>
 4    1  0.4025504E+000  0.1827930E+03  0.7546771E-02  0.1165127E+00
         21   -1    0    0  501  502  0.00000000000E+00  0.00000000000E+00  0.19734725979E+03  0.19734725979E+03  0.00000000000E+00 0.  1.
         21   -1    0    0  502  503 -0.00000000000E+00 -0.00000000000E+00 -0.21834737693E+03  0.21834737693E+03  0.00000000000E+00 0.  1.
          6    1    1    2  501    0  0.39416849896E+02 -0.43938714141E+02  0.87997238042E+02  0.20287141878E+03  0.17300000000E+03 0.  1.
         -6    1    1    2    0  503 -0.39416849896E+02  0.43938714141E+02 -0.10899735518E+03  0.21282321793E+03  0.17300000000E+03 0.  1.
<mgrwt>
<rscale>  2 0.18279305E+03</rscale>
<asrwt>0</asrwt>
<pdfrwt beam="1">  1       21 0.30361117E-01 0.18279305E+03</pdfrwt>
<pdfrwt beam="2">  1       21 0.33591904E-01 0.18279305E+03</pdfrwt>
<totfact> 0.89203937E+04</totfact>
</mgrwt>
</event>
<event>
 4    1  0.4025504E+000  0.1749108E+03  0.7546771E-02  0.1172821E+00
         21   -1    0    0  501  502  0.00000000000E+00  0.00000000000E+00  0.10942528597E+03  0.10942528597E+03  0.00000000000E+00 0.  1.
         21   -1    0    0  502  503 -0.00000000000E+00 -0.00000000000E+00 -0.36866406336E+03  0.36866406336E+03  0.00000000000E+00 0.  1.
          6    1    1    2  501    0  0.85056068995E+01 -0.24340403901E+02 -0.12116498233E+02  0.17533000354E+03  0.17300000000E+03 0. -1.
         -6    1    1    2    0  503 -0.85056068995E+01  0.24340403901E+02 -0.24712227916E+03  0.30275934580E+03  0.17300000000E+03 0. -1.
<mgrwt>
<rscale>  2 0.17491084E+03</rscale>
<asrwt>0</asrwt>
<pdfrwt beam="1">  1       21 0.16834659E-01 0.17491084E+03</pdfrwt>
<pdfrwt beam="2">  1       21 0.56717549E-01 0.17491084E+03</pdfrwt>
<totfact> 0.93470521E+04</totfact>
</mgrwt>
</event>
<event>
 4    1  0.4025504E+000  0.2936316E+03  0.7546771E-02  0.1088468E+00
         21   -1    0    0  501  502  0.00000000000E+00  0.00000000000E+00  0.23438303836E+03  0.23438303836E+03  0.00000000000E+00 0.  1.
         21   -1    0    0  502  503 -0.00000000000E+00 -0.00000000000E+00 -0.37344431301E+03  0.37344431301E+03  0.00000000000E+00 0. -1.
          6    1    1    2  501    0 -0.14803341386E+03  0.18540932321E+03 -0.32357634878E+02  0.29540908126E+03  0.17300000000E+03 0.  1.
         -6    1    1    2    0  503  0.14803341386E+03 -0.18540932321E+03 -0.10670363977E+03  0.31241827010E+03  0.17300000000E+03 0.  1.
<mgrwt>
<rscale>  2 0.29363159E+03</rscale>
<asrwt>0</asrwt>
<pdfrwt beam="1">  1       21 0.36058929E-01 0.29363159E+03</pdfrwt>
<pdfrwt beam="2">  1       21 0.57452971E-01 0.29363159E+03</pdfrwt>
<totfact> 0.20050041E+04</totfact>
</mgrwt>
</event>
<event>
 4    1  0.4025504E+000  0.3447742E+03  0.7546771E-02  0.1064781E+00
         21   -1    0    0  501  502  0.00000000000E+00  0.00000000000E+00  0.30329132277E+03  0.30329132277E+03  0.00000000000E+00 0. -1.
         21   -1    0    0  502  503 -0.00000000000E+00 -0.00000000000E+00 -0.61766830342E+03  0.61766830342E+03  0.00000000000E+00 0.  1.
          6    1    1    2  501    0 -0.29773241732E+03 -0.17195524584E+02  0.12118929958E+03  0.36545331401E+03  0.17300000000E+03 0. -1.
         -6    1    1    2    0  503  0.29773241732E+03  0.17195524584E+02 -0.43556628023E+03  0.55550631217E+03  0.17300000000E+03 0.  1.
<mgrwt>
<rscale>  2 0.34477424E+03</rscale>
<asrwt>0</asrwt>
<pdfrwt beam="1">  1       21 0.46660203E-01 0.34477424E+03</pdfrwt>
<pdfrwt beam="2">  1       21 0.95025893E-01 0.34477424E+03</pdfrwt>
<totfact> 0.37061296E+03</totfact>
</mgrwt>
</event>
<event>
 4    1  0.4025504E+000  0.1862795E+03  0.7546771E-02  0.1161860E+00
         21   -1    0    0  503  502  0.00000000000E+00  0.00000000000E+00  0.91818856505E+03  0.91818856505E+03  0.00000000000E+00 0.  1.
         21   -1    0    0  501  503 -0.00000000000E+00 -0.00000000000E+00 -0.39850039717E+02  0.39850039717E+02  0.00000000000E+00 0.  1.
          6    1    1    2  501    0 -0.45258370389E+02 -0.52179828167E+02  0.33030629141E+03  0.37921273805E+03  0.17300000000E+03 0.  1.
         -6    1    1    2    0  502  0.45258370389E+02  0.52179828167E+02  0.54803223393E+03  0.57882586672E+03  0.17300000000E+03 0.  1.
<mgrwt>
<rscale>  2 0.18627951E+03</rscale>
<asrwt>0</asrwt>
<pdfrwt beam="1">  1       21 0.14125976E+00 0.18627951E+03</pdfrwt>
<pdfrwt beam="2">  1       21 0.61307761E-02 0.18627951E+03</pdfrwt>
<totfact> 0.66656267E+04</totfact>
</mgrwt>
</event>
<event>
 4    1  0.4025504E+000  0.2718111E+03  0.7546771E-02  0.1100248E+00
         21   -1    0    0  501  502  0.00000000000E+00  0.00000000000E+00  0.14137729692E+03  0.14137729692E+03  0.00000000000E+00 0. -1.
         21   -1    0    0  502  503 -0.00000000000E+00 -0.00000000000E+00 -0.53236026144E+03  0.53236026144E+03  0.00000000000E+00 0. -1.
          6    1    1    2  501    0  0.16417641270E+03  0.13037781414E+03 -0.24114589388E+03  0.36336291919E+03  0.17300000000E+03 0. -1.
         -6    1    1    2    0  503 -0.16417641270E+03 -0.13037781414E+03 -0.14983707064E+03  0.31037463918E+03  0.17300000000E+03 0. -1.
<mgrwt>
<rscale>  2 0.27181109E+03</rscale>
<asrwt>0</asrwt>
<pdfrwt beam="1">  1       21 0.21750353E-01 0.27181109E+03</pdfrwt>
<pdfrwt beam="2">  1       21 0.81901579E-01 0.27181109E+03</pdfrwt>
<totfact> 0.24707052E+04</totfact>
</mgrwt>
</event>
<event>
 4    1  0.4025504E+000  0.3017528E+03  0.7546771E-02  0.1084368E+00
         21   -1    0    0  503  502  0.00000000000E+00  0.00000000000E+00  0.73589187091E+03  0.73589187091E+03  0.00000000000E+00 0. -1.
         21   -1    0    0  501  503 -0.00000000000E+00 -0.00000000000E+00 -0.13105463941E+03  0.13105463941E+03  0.00000000000E+00 0. -1.
          6    1    1    2  501    0  0.24076963592E+03  0.56175680203E+02  0.19996779145E+03  0.36199701966E+03  0.17300000000E+03 0. -1.
         -6    1    1    2    0  502 -0.24076963592E+03 -0.56175680203E+02  0.40486944006E+03  0.50494949066E+03  0.17300000000E+03 0. -1.
<mgrwt>
<rscale>  2 0.30175275E+03</rscale>
<asrwt>0</asrwt>
<pdfrwt beam="1">  1       21 0.11321413E+00 0.30175275E+03</pdfrwt>
<pdfrwt beam="2">  1       21 0.20162253E-01 0.30175275E+03</pdfrwt>
<totfact> 0.13030746E+04</totfact>
</mgrwt>
</event>
<event>
 4    1  0.4025504E+000  0.2654226E+03  0.7546771E-02  0.1103928E+00
         21   -1    0    0  501  502  0.00000000000E+00  0.00000000000E+00  0.66483569227E+02  0.66483569227E+02  0.00000000000E+00 0. -1.
         21   -1    0    0  502  503 -0.00000000000E+00 -0.00000000000E+00 -0.12552388965E+04  0.12552388965E+04  0.00000000000E+00 0.  1.
          6    1    1    2  501    0 -0.18468926480E+03  0.80062572115E+02 -0.33350889495E+03  0.42623622910E+03  0.17300000000E+03 0. -1.
         -6    1    1    2    0  503  0.18468926480E+03 -0.80062572115E+02 -0.85524643231E+03  0.89548623661E+03  0.17300000000E+03 0.  1.
<mgrwt>
<rscale>  2 0.26542257E+03</rscale>
<asrwt>0</asrwt>
<pdfrwt beam="1">  1       21 0.10228244E-01 0.26542257E+03</pdfrwt>
<pdfrwt beam="2">  1       21 0.19311363E+00 0.26542257E+03</pdfrwt>
<totfact> 0.11016846E+04</totfact>
</mgrwt>
</event>
<event>
 4    1  0.4025504E+000  0.2116174E+03  0.7546771E-02  0.1140292E+00
         21   -1    0    0  501  502  0.00000000000E+00  0.00000000000E+00  0.45652685593E+02  0.45652685593E+02  0.00000000000E+00 0.  1.
         21   -1    0    0  502  503 -0.00000000000E+00 -0.00000000000E+00 -0.11598298407E+04  0.11598298407E+04  0.00000000000E+00 0. -1.
          6    1    1    2  501    0  0.10116290409E+02  0.12145200405E+03 -0.32036417859E+03  0.38394678739E+03  0.17300000000E+03 0. -1.
         -6    1    1    2    0  503 -0.10116290409E+02 -0.12145200405E+03 -0.79381297654E+03  0.82153573893E+03  0.17300000000E+03 0. -1.
<mgrwt>
<rscale>  2 0.21161741E+03</rscale>
<asrwt>0</asrwt>
<pdfrwt beam="1">  1       21 0.70234899E-02 0.21161741E+03</pdfrwt>
<pdfrwt beam="2">  1       21 0.17843537E+00 0.21161741E+03</pdfrwt>
<totfact> 0.27692329E+04</totfact>
</mgrwt>
</event>
<event>
 4    1  0.4025504E+000  0.3447087E+03  0.7546771E-02  0.1064808E+00
         21   -1    0    0  501  502  0.00000000000E+00  0.00000000000E+00  0.25289008481E+03  0.25289008481E+03  0.00000000000E+00 0.  1.
         21   -1    0    0  502  503 -0.00000000000E+00 -0.00000000000E+00 -0.14476638037E+04  0.14476638037E+04  0.00000000000E+00 0. -1.
          6    1    1    2  501    0  0.62974165767E+02 -0.29142639630E+03  0.10141072058E+03  0.35931632897E+03  0.17300000000E+03 0.  1.
         -6    1    1    2    0  503 -0.62974165767E+02  0.29142639630E+03 -0.12961844395E+04  0.13412375595E+04  0.17300000000E+03 0. -1.
<mgrwt>
<rscale>  2 0.34470870E+03</rscale>
<asrwt>0</asrwt>
<pdfrwt beam="1">  1       21 0.38906168E-01 0.34470870E+03</pdfrwt>
<pdfrwt beam="2">  1       21 0.22271750E+00 0.34470870E+03</pdfrwt>
<totfact> 0.53648178E+02</totfact>
</mgrwt>
</event>
<event>
 4    1  0.4025504E+000  0.1764702E+03  0.7546771E-02  0.1171264E+00
         21   -1    0    0  501  502  0.00000000000E+00  0.00000000000E+00  0.28411126732E+03  0.28411126732E+03  0.00000000000E+00 0. -1.
         21   -1    0    0  502  503 -0.00000000000E+00 -0.00000000000E+00 -0.18746857788E+03  0.18746857788E+03  0.00000000000E+00 0.  1.
          6    1    1    2  501    0  0.34320018520E+02 -0.59054469915E+01  0.20027504024E+03  0.26693038366E+03  0.17300000000E+03 0. -1.
         -6    1    1    2    0  503 -0.34320018520E+02  0.59054469915E+01 -0.10363235080E+03  0.20464946154E+03  0.17300000000E+03 0.  1.
<mgrwt>
<rscale>  2 0.17647022E+03</rscale>
<asrwt>0</asrwt>
<pdfrwt beam="1">  1       21 0.43709425E-01 0.17647022E+03</pdfrwt>
<pdfrwt beam="2">  1       21 0.28841320E-01 0.17647022E+03</pdfrwt>
<totfact> 0.58291160E+04</totfact>
</mgrwt>
</event>
<event>
 4    1  0.4025504E+000  0.2180782E+03  0.7546771E-02  0.1135324E+00
         21   -1    0    0  503  502  0.00000000000E+00  0.00000000000E+00  0.49065233119E+03  0.49065233119E+03  0.00000000000E+00 0.  1.
         21   -1    0    0  501  503 -0.00000000000E+00 -0.00000000000E+00 -0.10171415372E+03  0.10171415372E+03  0.00000000000E+00 0.  1.
          6    1    1    2  501    0  0.50600148934E+02  0.12275473927E+03  0.13022264974E+03  0.25400007793E+03  0.17300000000E+03 0.  1.
         -6    1    1    2    0  502 -0.50600148934E+02 -0.12275473927E+03  0.25871552772E+03  0.33836640698E+03  0.17300000000E+03 0.  1.
<mgrwt>
<rscale>  2 0.21807820E+03</rscale>
<asrwt>0</asrwt>
<pdfrwt beam="1">  1       21 0.75484973E-01 0.21807820E+03</pdfrwt>
<pdfrwt beam="2">  1       21 0.15648332E-01 0.21807820E+03</pdfrwt>
<totfact> 0.56233604E+04</totfact>
</mgrwt>
</event>
<event>
 4    1  0.4025504E+000  0.2319105E+03  0.7546771E-02  0.1125302E+00
         21   -1    0    0  501  502  0.00000000000E+00  0.00000000000E+00  0.10462080905E+04  0.10462080905E+04  0.00000000000E+00 0. -1.
         21   -1    0    0  502  503 -0.00000000000E+00 -0.00000000000E+00 -0.18692512443E+03  0.18692512443E+03  0.00000000000E+00 0.  1.
          6    1    1    2  501    0  0.76450178561E+02 -0.13419709952E+03  0.95462388048E+03  0.98238955842E+03  0.17300000000E+03 0. -1.
         -6    1    1    2    0  503 -0.76450178561E+02  0.13419709952E+03 -0.95340914394E+02  0.25074365651E+03  0.17300000000E+03 0.  1.
<mgrwt>
<rscale>  2 0.23191052E+03</rscale>
<asrwt>0</asrwt>
<pdfrwt beam="1">  1       21 0.16095509E+00 0.23191052E+03</pdfrwt>
<pdfrwt beam="2">  1       21 0.28757712E-01 0.23191052E+03</pdfrwt>
<totfact> 0.27691155E+03</totfact>
</mgrwt>
</event>
<event>
 4    1  0.4025504E+000  0.1983892E+03  0.7546771E-02  0.1151105E+00
         21   -1    0    0  503  502  0.00000000000E+00  0.00000000000E+00  0.21896500019E+04  0.21896500019E+04  0.00000000000E+00 0.  1.
         21   -1    0    0  501  503 -0.00000000000E+00 -0.00000000000E+00 -0.48534346499E+02  0.48534346499E+02  0.00000000000E+00 0. -1.
          6    1    1    2  501    0 -0.14433799817E+02 -0.96025787170E+02  0.18255268893E+03  0.26959927784E+03  0.17300000000E+03 0. -1.
         -6    1    1    2    0  502  0.14433799817E+02  0.96025787170E+02  0.19585629665E+04  0.19685850706E+04  0.17300000000E+03 0.  1.
<mgrwt>
<rscale>  2 0.19838923E+03</rscale>
<asrwt>0</asrwt>
<pdfrwt beam="1">  1       21 0.33686915E+00 0.19838923E+03</pdfrwt>
<pdfrwt beam="2">  1       21 0.74668242E-02 0.19838923E+03</pdfrwt>
<totfact> 0.28041836E+03</totfact>
</mgrwt>
</event>
<event>
 4    1  0.4025504E+000  0.2193896E+03  0.7546771E-02  0.1134339E+00
         21   -1    0    0  501  502  0.00000000000E+00  0.00000000000E+00  0.49692893237E+02  0.49692893237E+02  0.00000000000E+00 0. -1.
         21   -1    0    0  502  503 -0.00000000000E+00 -0.00000000000E+00 -0.17716381599E+04  0.17716381599E+04  0.00000000000E+00 0.  1.
          6    1    1    2  501    0 -0.54299510626E+02 -0.12350855471E+03 -0.24785545763E+03  0.33100472476E+03  0.17300000000E+03 0. -1.
         -6    1    1    2    0  503  0.54299510626E+02  0.12350855471E+03 -0.14740898091E+04  0.14903263284E+04  0.17300000000E+03 0.  1.
<mgrwt>
<rscale>  2 0.21938961E+03</rscale>
<asrwt>0</asrwt>
<pdfrwt beam="1">  1       21 0.76450610E-02 0.21938961E+03</pdfrwt>
<pdfrwt beam="2">  1       21 0.27255970E+00 0.21938961E+03</pdfrwt>
<totfact> 0.62089780E+03</totfact>
</mgrwt>
</event>
<event>
 4    1  0.4025504E+000  0.1973899E+03  0.7546771E-02  0.1151960E+00
         21   -1    0    0  503  502  0.00000000000E+00  0.00000000000E+00  0.45024079390E+03  0.45024079390E+03  0.00000000000E+00 0.  1.
         21   -1    0    0  501  503 -0.00000000000E+00 -0.00000000000E+00 -0.19084128924E+03  0.19084128924E+03  0.00000000000E+00 0. -1.
          6    1    1    2  501    0 -0.90590961912E+02  0.28758485755E+02 -0.10727235886E+03  0.22465558497E+03  0.17300000000E+03 0. -1.
         -6    1    1    2    0  502  0.90590961912E+02 -0.28758485755E+02  0.36667186352E+03  0.41642649817E+03  0.17300000000E+03 0.  1.
<mgrwt>
<rscale>  2 0.19738990E+03</rscale>
<asrwt>0</asrwt>
<pdfrwt beam="1">  1       21 0.69267814E-01 0.19738990E+03</pdfrwt>
<pdfrwt beam="2">  1       21 0.29360199E-01 0.19738990E+03</pdfrwt>
<totfact> 0.21014101E+04</totfact>
</mgrwt>
</event>
<event>
 4    1  0.4025504E+000  0.2521749E+03  0.7546771E-02  0.1111938E+00
         21   -1    0    0  503  502  0.00000000000E+00  0.00000000000E+00  0.37584688640E+03  0.37584688640E+03  0.00000000000E+00 0. -1.
         21   -1    0    0  501  503 -0.00000000000E+00 -0.00000000000E+00 -0.27626895026E+03  0.27626895026E+03  0.00000000000E+00 0. -1.
          6    1    1    2  501    0 -0.19341752986E+02 -0.18245298907E+03 -0.15319717991E+03  0.29506198088E+03  0.17300000000E+03 0. -1.
         -6    1    1    2    0  502  0.19341752986E+02  0.18245298907E+03  0.25277511605E+03  0.35705385578E+03  0.17300000000E+03 0. -1.
<mgrwt>
<rscale>  2 0.25217493E+03</rscale>
<asrwt>0</asrwt>
<pdfrwt beam="1">  1       21 0.57822598E-01 0.25217493E+03</pdfrwt>
<pdfrwt beam="2">  1       21 0.42502916E-01 0.25217493E+03</pdfrwt>
<totfact> 0.14430207E+04</totfact>
</mgrwt>
</event>
<event>
 4    1  0.4025504E+000  0.2055308E+03  0.7546771E-02  0.1145155E+00
         21   -1    0    0  503  502  0.00000000000E+00  0.00000000000E+00  0.21520353256E+04  0.21520353256E+04  0.00000000000E+00 0.  1.
         21   -1    0    0  501  503 -0.00000000000E+00 -0.00000000000E+00 -0.20589053281E+02  0.20589053281E+02  0.00000000000E+00 0. -1.
          6    1    1    2  501    0 -0.87190838531E+02  0.68641492937E+02  0.83118064259E+03  0.85621501826E+03  0.17300000000E+03 0.  1.
         -6    1    1    2    0  502  0.87190838531E+02 -0.68641492937E+02  0.13002656297E+04  0.13164093606E+04  0.17300000000E+03 0. -1.
<mgrwt>
<rscale>  2 0.20553077E+03</rscale>
<asrwt>0</asrwt>
<pdfrwt beam="1">  1       21 0.33108218E+00 0.20553077E+03</pdfrwt>
<pdfrwt beam="2">  1       21 0.31675484E-02 0.20553077E+03</pdfrwt>
<totfact> 0.12869528E+04</totfact>
</mgrwt>
</event>
<event>
 4    1  0.4025504E+000  0.2059089E+03  0.7546771E-02  0.1144847E+00
         21   -1    0    0  501  502  0.00000000000E+00  0.00000000000E+00  0.71214816501E+03  0.71214816501E+03  0.00000000000E+00 0.  1.
         21   -1    0    0  502  503 -0.00000000000E+00 -0.00000000000E+00 -0.66698281631E+02  0.66698281631E+02  0.00000000000E+00 0. -1.
          6    1    1    2  501    0  0.10988151417E+03  0.19887938855E+02  0.45033625991E+03  0.49517797231E+03  0.17300000000E+03 0. -1.
         -6    1    1    2    0  503 -0.10988151417E+03 -0.19887938855E+02  0.19511362346E+03  0.28366847433E+03  0.17300000000E+03 0.  1.
<mgrwt>
<rscale>  2 0.20590891E+03</rscale>
<asrwt>0</asrwt>
<pdfrwt beam="1">  1       21 0.10956125E+00 0.20590891E+03</pdfrwt>
<pdfrwt beam="2">  1       21 0.10261275E-01 0.20590891E+03</pdfrwt>
<totfact> 0.50775709E+04</totfact>
</mgrwt>
</event>
<event>
 4    1  0.4025504E+000  0.2211261E+03  0.7546771E-02  0.1133046E+00
         21   -1    0    0  503  502  0.00000000000E+00  0.00000000000E+00  0.14108362735E+03  0.14108362735E+03  0.00000000000E+00 0.  1.
         21   -1    0    0  501  503 -0.00000000000E+00 -0.00000000000E+00 -0.35447276007E+03  0.35447276007E+03  0.00000000000E+00 0.  1.
          6    1    1    2  501    0  0.95363924144E+02  0.99365250720E+02 -0.69720907076E+02  0.23185714559E+03  0.17300000000E+03 0.  1.
         -6    1    1    2    0  502 -0.95363924144E+02 -0.99365250720E+02 -0.14366822565E+03  0.26369924183E+03  0.17300000000E+03 0.  1.
<mgrwt>
<rscale>  2 0.22112605E+03</rscale>
<asrwt>0</asrwt>
<pdfrwt beam="1">  1       21 0.21705174E-01 0.22112605E+03</pdfrwt>
<pdfrwt beam="2">  1       21 0.54534270E-01 0.22112605E+03</pdfrwt>
<totfact> 0.62080578E+04</totfact>
</mgrwt>
</event>
<event>
 4    1  0.4025504E+000  0.1947115E+03  0.7546771E-02  0.1154279E+00
         21   -1    0    0  503  502  0.00000000000E+00  0.00000000000E+00  0.43772582218E+03  0.43772582218E+03  0.00000000000E+00 0.  1.
         21   -1    0    0  501  503 -0.00000000000E+00 -0.00000000000E+00 -0.89461935532E+02  0.89461935532E+02  0.00000000000E+00 0.  1.
          6    1    1    2  501    0 -0.86399962354E+02  0.22772969097E+02  0.22117436837E+03  0.29467043089E+03  0.17300000000E+03 0.  1.
         -6    1    1    2    0  502  0.86399962354E+02 -0.22772969097E+02  0.12708951828E+03  0.23251732682E+03  0.17300000000E+03 0.  1.
<mgrwt>
<rscale>  2 0.19471148E+03</rscale>
<asrwt>0</asrwt>
<pdfrwt beam="1">  1       21 0.67342433E-01 0.19471148E+03</pdfrwt>
<pdfrwt beam="2">  1       21 0.13763375E-01 0.19471148E+03</pdfrwt>
<totfact> 0.92436315E+04</totfact>
</mgrwt>
</event>
<event>
 4    1  0.4025504E+000  0.2307631E+03  0.7546771E-02  0.1126104E+00
         21   -1    0    0  503  502  0.00000000000E+00  0.00000000000E+00  0.39917089140E+03  0.39917089140E+03  0.00000000000E+00 0.  1.
         21   -1    0    0  501  503 -0.00000000000E+00 -0.00000000000E+00 -0.18219329372E+03  0.18219329372E+03  0.00000000000E+00 0. -1.
          6    1    1    2  501    0 -0.73832295254E+01 -0.15253881178E+03 -0.41931890767E+02  0.23454186117E+03  0.17300000000E+03 0. -1.
         -6    1    1    2    0  502  0.73832295254E+01  0.15253881178E+03  0.25890948845E+03  0.34682232395E+03  0.17300000000E+03 0. -1.
<mgrwt>
<rscale>  2 0.23076308E+03</rscale>
<asrwt>0</asrwt>
<pdfrwt beam="1">  1       21 0.61410906E-01 0.23076308E+03</pdfrwt>
<pdfrwt beam="2">  1       21 0.28029738E-01 0.23076308E+03</pdfrwt>
<totfact> 0.29372665E+04</totfact>
</mgrwt>
</event>
<event>
 4    1  0.4025504E+000  0.1979756E+03  0.7546771E-02  0.1151458E+00
         21   -1    0    0  501  502  0.00000000000E+00  0.00000000000E+00  0.41602358940E+02  0.41602358940E+02  0.00000000000E+00 0.  1.
         21   -1    0    0  502  503 -0.00000000000E+00 -0.00000000000E+00 -0.10015706340E+04  0.10015706340E+04  0.00000000000E+00 0.  1.
          6    1    1    2  501    0 -0.35517899697E+02 -0.89463980977E+02 -0.60706250721E+03  0.63852894433E+03  0.17300000000E+03 0.  1.
         -6    1    1    2    0  503  0.35517899697E+02  0.89463980977E+02 -0.35290576785E+03  0.40464404861E+03  0.17300000000E+03 0.  1.
<mgrwt>
<rscale>  2 0.19797557E+03</rscale>
<asrwt>0</asrwt>
<pdfrwt beam="1">  1       21 0.64003622E-02 0.19797557E+03</pdfrwt>
<pdfrwt beam="2">  1       21 0.15408781E+00 0.19797557E+03</pdfrwt>
<totfact> 0.48987747E+04</totfact>
</mgrwt>
</event>
<event>
 4    1  0.4025504E+000  0.1780560E+03  0.7546771E-02  0.1169698E+00
         21   -1    0    0  503  502  0.00000000000E+00  0.00000000000E+00  0.15924307811E+03  0.15924307811E+03  0.00000000000E+00 0. -1.
         21   -1    0    0  501  503 -0.00000000000E+00 -0.00000000000E+00 -0.21280777627E+03  0.21280777627E+03  0.00000000000E+00 0.  1.
          6    1    1    2  501    0 -0.39676880437E+01  0.41942780478E+02 -0.74010078221E+02  0.19282487148E+03  0.17300000000E+03 0.  1.
         -6    1    1    2    0  502  0.39676880437E+01 -0.41942780478E+02  0.20445380063E+02  0.17922598291E+03  0.17300000000E+03 0. -1.
<mgrwt>
<rscale>  2 0.17805600E+03</rscale>
<asrwt>0</asrwt>
<pdfrwt beam="1">  1       21 0.24498935E-01 0.17805600E+03</pdfrwt>
<pdfrwt beam="2">  1       21 0.32739658E-01 0.17805600E+03</pdfrwt>
<totfact> 0.14204731E+05</totfact>
</mgrwt>
</event>
<event>
 4    1  0.4025504E+000  0.1758448E+03  0.7546771E-02  0.1171886E+00
         21   -1    0    0  503  502  0.00000000000E+00  0.00000000000E+00  0.35590350875E+03  0.35590350875E+03  0.00000000000E+00 0.  1.
         21   -1    0    0  501  503 -0.00000000000E+00 -0.00000000000E+00 -0.88335769116E+02  0.88335769116E+02  0.00000000000E+00 0.  1.
          6    1    1    2  501    0  0.31488141295E+02 -0.94807653565E+00  0.16228441296E+03  0.23928567149E+03  0.17300000000E+03 0. -1.
         -6    1    1    2    0  502 -0.31488141295E+02  0.94807653565E+00  0.10528332668E+03  0.20495360638E+03  0.17300000000E+03 0. -1.
<mgrwt>
<rscale>  2 0.17584482E+03</rscale>
<asrwt>0</asrwt>
<pdfrwt beam="1">  1       21 0.54754385E-01 0.17584482E+03</pdfrwt>
<pdfrwt beam="2">  1       21 0.13590118E-01 0.17584482E+03</pdfrwt>
<totfact> 0.14856708E+05</totfact>
</mgrwt>
</event>
<event>
 4    1  0.4025504E+000  0.1885771E+03  0.7546771E-02  0.1159751E+00
         21   -1    0    0  501  502  0.00000000000E+00  0.00000000000E+00  0.60808944193E+02  0.60808944193E+02  0.00000000000E+00 0.  1.
         21   -1    0    0  502  503 -0.00000000000E+00 -0.00000000000E+00 -0.70832358278E+03  0.70832358278E+03  0.00000000000E+00 0. -1.
          6    1    1    2  501    0 -0.25387407759E+02 -0.70624389936E+02 -0.16316568483E+03  0.24936793225E+03  0.17300000000E+03 0.  1.
         -6    1    1    2    0  503  0.25387407759E+02  0.70624389936E+02 -0.48434895376E+03  0.51976459473E+03  0.17300000000E+03 0. -1.
<mgrwt>
<rscale>  2 0.18857711E+03</rscale>
<asrwt>0</asrwt>
<pdfrwt beam="1">  1       21 0.93552225E-02 0.18857711E+03</pdfrwt>
<pdfrwt beam="2">  1       21 0.10897285E+00 0.18857711E+03</pdfrwt>
<totfact> 0.61090422E+04</totfact>
</mgrwt>
</event>
<event>
 4    1  0.4025504E+000  0.1974248E+03  0.7546771E-02  0.1151930E+00
         21   -1    0    0  503  502  0.00000000000E+00  0.00000000000E+00  0.23142280723E+03  0.23142280723E+03  0.00000000000E+00 0.  1.
         21   -1    0    0  501  503 -0.00000000000E+00 -0.00000000000E+00 -0.16959590378E+03  0.16959590378E+03  0.00000000000E+00 0. -1.
          6    1    1    2  501    0  0.88234157165E+02  0.35528405849E+02  0.47600111321E+02  0.20308201474E+03  0.17300000000E+03 0.  1.
         -6    1    1    2    0  502 -0.88234157165E+02 -0.35528405849E+02  0.14226792129E+02  0.19793669626E+03  0.17300000000E+03 0. -1.
<mgrwt>
<rscale>  2 0.19742476E+03</rscale>
<asrwt>0</asrwt>
<pdfrwt beam="1">  1       21 0.35603509E-01 0.19742476E+03</pdfrwt>
<pdfrwt beam="2">  1       21 0.26091677E-01 0.19742476E+03</pdfrwt>
<totfact> 0.10596962E+05</totfact>
</mgrwt>
</event>
<event>
 4    1  0.4025504E+000  0.2000470E+03  0.7546771E-02  0.1149699E+00
         21   -1    0    0  501  502  0.00000000000E+00  0.00000000000E+00  0.55947454863E+02  0.55947454863E+02  0.00000000000E+00 0. -1.
         21   -1    0    0  502  503 -0.00000000000E+00 -0.00000000000E+00 -0.18309176374E+04  0.18309176374E+04  0.00000000000E+00 0. -1.
          6    1    1    2  501    0 -0.72377486192E+02 -0.69651381379E+02 -0.15104822012E+03  0.25066786838E+03  0.17300000000E+03 0. -1.
         -6    1    1    2    0  503  0.72377486192E+02  0.69651381379E+02 -0.16239219624E+04  0.16361972239E+04  0.17300000000E+03 0. -1.
<mgrwt>
<rscale>  2 0.20004703E+03</rscale>
<asrwt>0</asrwt>
<pdfrwt beam="1">  1       21 0.86073013E-02 0.20004703E+03</pdfrwt>
<pdfrwt beam="2">  1       21 0.28167962E+00 0.20004703E+03</pdfrwt>
<totfact> 0.45590846E+03</totfact>
</mgrwt>
</event>
<event>
 4    1  0.4025504E+000  0.1812356E+03  0.7546771E-02  0.1166613E+00
         21   -1    0    0  501  502  0.00000000000E+00  0.00000000000E+00  0.15110110045E+04  0.15110110045E+04  0.00000000000E+00 0. -1.
         21   -1    0    0  502  503 -0.00000000000E+00 -0.00000000000E+00 -0.30442432993E+02  0.30442432993E+02  0.00000000000E+00 0. -1.
          6    1    1    2  501    0 -0.18664317612E+02  0.50685283368E+02  0.11524112407E+04  0.11665753394E+04  0.17300000000E+03 0. -1.
         -6    1    1    2    0  503  0.18664317612E+02 -0.50685283368E+02  0.32815733081E+03  0.37487809815E+03  0.17300000000E+03 0. -1.
<mgrwt>
<rscale>  2 0.18123563E+03</rscale>
<asrwt>0</asrwt>
<pdfrwt beam="1">  1       21 0.23246317E+00 0.18123563E+03</pdfrwt>
<pdfrwt beam="2">  1       21 0.46834524E-02 0.18123563E+03</pdfrwt>
<totfact> 0.25633529E+04</totfact>
</mgrwt>
</event>
<event>
 4    1  0.4025504E+000  0.2526309E+03  0.7546771E-02  0.1111653E+00
         21   -1    0    0  503  502  0.00000000000E+00  0.00000000000E+00  0.45148240567E+02  0.45148240567E+02  0.00000000000E+00 0.  1.
         21   -1    0    0  501  503 -0.00000000000E+00 -0.00000000000E+00 -0.18636856073E+04  0.18636856073E+04  0.00000000000E+00 0.  1.
          6    1    1    2  501    0  0.16552151571E+03  0.80597808119E+02 -0.44024956906E+03  0.50758453669E+03  0.17300000000E+03 0.  1.
         -6    1    1    2    0  502 -0.16552151571E+03 -0.80597808119E+02 -0.13782877977E+04  0.14012493112E+04  0.17300000000E+03 0.  1.
<mgrwt>
<rscale>  2 0.25263091E+03</rscale>
<asrwt>0</asrwt>
<pdfrwt beam="1">  1       21 0.69458829E-02 0.25263091E+03</pdfrwt>
<pdfrwt beam="2">  1       21 0.28672087E+00 0.25263091E+03</pdfrwt>
<totfact> 0.58865717E+03</totfact>
</mgrwt>
</event>
<event>
 4    1  0.4025504E+000  0.1748999E+03  0.7546771E-02  0.1172832E+00
         21   -1    0    0  501  502  0.00000000000E+00  0.00000000000E+00  0.51475660457E+02  0.51475660457E+02  0.00000000000E+00 0.  1.
         21   -1    0    0  502  503 -0.00000000000E+00 -0.00000000000E+00 -0.11374889906E+04  0.11374889906E+04  0.00000000000E+00 0.  1.
          6    1    1    2  501    0 -0.83146893550E+01  0.24327427426E+02 -0.13218194429E+03  0.21923052748E+03  0.17300000000E+03 0.  1.
         -6    1    1    2    0  503  0.83146893550E+01 -0.24327427426E+02 -0.95383138585E+03  0.96973412357E+03  0.17300000000E+03 0.  1.
<mgrwt>
<rscale>  2 0.17489985E+03</rscale>
<asrwt>0</asrwt>
<pdfrwt beam="1">  1       21 0.79193334E-02 0.17489985E+03</pdfrwt>
<pdfrwt beam="2">  1       21 0.17499828E+00 0.17489985E+03</pdfrwt>
<totfact> 0.24354936E+04</totfact>
</mgrwt>
</event>
<event>
 4    1  0.4025504E+000  0.1992958E+03  0.7546771E-02  0.1150334E+00
         21   -1    0    0  501  502  0.00000000000E+00  0.00000000000E+00  0.19322685111E+02  0.19322685111E+02  0.00000000000E+00 0.  1.
         21   -1    0    0  502  503 -0.00000000000E+00 -0.00000000000E+00 -0.20691821813E+04  0.20691821813E+04  0.00000000000E+00 0.  1.
          6    1    1    2  501    0 -0.55070779700E+01 -0.98790139902E+02 -0.94018211578E+03  0.96107295794E+03  0.17300000000E+03 0.  1.
         -6    1    1    2    0  503  0.55070779700E+01  0.98790139902E+02 -0.11096773804E+04  0.11274319085E+04  0.17300000000E+03 0.  1.
<mgrwt>
<rscale>  2 0.19929581E+03</rscale>
<asrwt>0</asrwt>
<pdfrwt beam="1">  1       21 0.29727211E-02 0.19929581E+03</pdfrwt>
<pdfrwt beam="2">  1       21 0.31833568E+00 0.19929581E+03</pdfrwt>
<totfact> 0.17070612E+04</totfact>
</mgrwt>
</event>
<event>
 4    1  0.4025504E+000  0.2364360E+03  0.7546771E-02  0.1122190E+00
         21   -1    0    0  503  502  0.00000000000E+00  0.00000000000E+00  0.47211869245E+02  0.47211869245E+02  0.00000000000E+00 0. -1.
         21   -1    0    0  501  503 -0.00000000000E+00 -0.00000000000E+00 -0.22916942904E+04  0.22916942904E+04  0.00000000000E+00 0. -1.
          6    1    1    2  501    0  0.16026006772E+03  0.17020115125E+02 -0.19352616463E+04  0.19496511517E+04  0.17300000000E+03 0. -1.
         -6    1    1    2    0  502 -0.16026006772E+03 -0.17020115125E+02 -0.30922077488E+03  0.38925500799E+03  0.17300000000E+03 0. -1.
<mgrwt>
<rscale>  2 0.23643598E+03</rscale>
<asrwt>0</asrwt>
<pdfrwt beam="1">  1       21 0.72633659E-02 0.23643598E+03</pdfrwt>
<pdfrwt beam="2">  1       21 0.35256829E+00 0.23643598E+03</pdfrwt>
<totfact> 0.22691600E+03</totfact>
</mgrwt>
</event>
<event>
 4    1  0.4025504E+000  0.2319822E+03  0.7546771E-02  0.1125252E+00
         21   -1    0    0  503  502  0.00000000000E+00  0.00000000000E+00  0.16434746884E+04  0.16434746884E+04  0.00000000000E+00 0.  1.
         21   -1    0    0  501  503 -0.00000000000E+00 -0.00000000000E+00 -0.32760716301E+02  0.32760716301E+02  0.00000000000E+00 0. -1.
          6    1    1    2  501    0  0.12216553243E+03 -0.94669554887E+02  0.82365595270E+03  0.85570139088E+03  0.17300000000E+03 0.  1.
         -6    1    1    2    0  502 -0.12216553243E+03  0.94669554887E+02  0.78705801940E+03  0.82053401382E+03  0.17300000000E+03 0. -1.
<mgrwt>
<rscale>  2 0.23198220E+03</rscale>
<asrwt>0</asrwt>
<pdfrwt beam="1">  1       21 0.25284220E+00 0.23198220E+03</pdfrwt>
<pdfrwt beam="2">  1       21 0.50401115E-02 0.23198220E+03</pdfrwt>
<totfact> 0.16424461E+04</totfact>
</mgrwt>
</event>
<event>
 4    1  0.4025504E+000  0.2331285E+03  0.7546771E-02  0.1124457E+00
         21   -1    0    0  501  502  0.00000000000E+00  0.00000000000E+00  0.12754139254E+04  0.12754139254E+04  0.00000000000E+00 0. -1.
         21   -1    0    0  502  503 -0.00000000000E+00 -0.00000000000E+00 -0.18726107651E+03  0.18726107651E+03  0.00000000000E+00 0.  1.
          6    1    1    2  501    0  0.78968688297E+01 -0.15606902852E+03  0.11868392979E+04  0.12095190867E+04  0.17300000000E+03 0.  1.
         -6    1    1    2    0  503 -0.78968688297E+01  0.15606902852E+03 -0.98686448948E+02  0.25315591521E+03  0.17300000000E+03 0.  1.
<mgrwt>
<rscale>  2 0.23312851E+03</rscale>
<asrwt>0</asrwt>
<pdfrwt beam="1">  1       21 0.19621752E+00 0.23312851E+03</pdfrwt>
<pdfrwt beam="2">  1       21 0.28809397E-01 0.23312851E+03</pdfrwt>
<totfact> 0.15733654E+03</totfact>
</mgrwt>
</event>
<event>
 4    1  0.4025504E+000  0.1983507E+03  0.7546771E-02  0.1151138E+00
         21   -1    0    0  503  502  0.00000000000E+00  0.00000000000E+00  0.21349218309E+04  0.21349218309E+04  0.00000000000E+00 0.  1.
         21   -1    0    0  501  503 -0.00000000000E+00 -0.00000000000E+00 -0.13709002227E+03  0.13709002227E+03  0.00000000000E+00 0.  1.
          6    1    1    2  501    0 -0.90016705953E+02 -0.36207394345E+02 -0.57981898294E+02  0.20665159880E+03  0.17300000000E+03 0.  1.
         -6    1    1    2    0  502  0.90016705953E+02  0.36207394345E+02  0.20558137070E+04  0.20653602544E+04  0.17300000000E+03 0.  1.
<mgrwt>
<rscale>  2 0.19835066E+03</rscale>
<asrwt>0</asrwt>
<pdfrwt beam="1">  1       21 0.32844949E+00 0.19835066E+03</pdfrwt>
<pdfrwt beam="2">  1       21 0.21090774E-01 0.19835066E+03</pdfrwt>
<totfact> 0.48449137E+02</totfact>
</mgrwt>
</event>
<event>
 4    1  0.4025504E+000  0.1732725E+03  0.7546771E-02  0.1174478E+00
         21   -1    0    0  501  502  0.00000000000E+00  0.00000000000E+00  0.14287651634E+04  0.14287651634E+04  0.00000000000E+00 0. -1.
         21   -1    0    0  502  503 -0.00000000000E+00 -0.00000000000E+00 -0.21044094240E+02  0.21044094240E+02  0.00000000000E+00 0. -1.
          6    1    1    2  501    0  0.17967516097E-02  0.97133428666E+01  0.73150282191E+03  0.75174445625E+03  0.17300000000E+03 0. -1.
         -6    1    1    2    0  503 -0.17967516097E-02 -0.97133428666E+01  0.67621824725E+03  0.69806480139E+03  0.17300000000E+03 0. -1.
<mgrwt>
<rscale>  2 0.17327247E+03</rscale>
<asrwt>0</asrwt>
<pdfrwt beam="1">  1       21 0.21980995E+00 0.17327247E+03</pdfrwt>
<pdfrwt beam="2">  1       21 0.32375541E-02 0.17327247E+03</pdfrwt>
<totfact> 0.57017265E+04</totfact>
</mgrwt>
</event>
<event>
 4    1  0.4025504E+000  0.1951532E+03  0.7546771E-02  0.1153894E+00
         21   -1    0    0  503  502  0.00000000000E+00  0.00000000000E+00  0.58112669408E+02  0.58112669408E+02  0.00000000000E+00 0. -1.
         21   -1    0    0  501  503 -0.00000000000E+00 -0.00000000000E+00 -0.84321980164E+03  0.84321980164E+03  0.00000000000E+00 0. -1.
          6    1    1    2  501    0 -0.42627271289E+02 -0.79615940740E+02 -0.60526963315E+03  0.63595291578E+03  0.17300000000E+03 0. -1.
         -6    1    1    2    0  502  0.42627271289E+02  0.79615940740E+02 -0.17983749908E+03  0.26537955527E+03  0.17300000000E+03 0. -1.
<mgrwt>
<rscale>  2 0.19515323E+03</rscale>
<asrwt>0</asrwt>
<pdfrwt beam="1">  1       21 0.89404118E-02 0.19515323E+03</pdfrwt>
<pdfrwt beam="2">  1       21 0.12972611E+00 0.19515323E+03</pdfrwt>
<totfact> 0.42887376E+04</totfact>
</mgrwt>
</event>
<event>
 4    1  0.4025504E+000  0.1749475E+03  0.7546771E-02  0.1172784E+00
         21   -1    0    0  503  502  0.00000000000E+00  0.00000000000E+00  0.20851047147E+03  0.20851047147E+03  0.00000000000E+00 0. -1.
         21   -1    0    0  501  503 -0.00000000000E+00 -0.00000000000E+00 -0.19019098605E+03  0.19019098605E+03  0.00000000000E+00 0. -1.
          6    1    1    2  501    0  0.25169725474E+02 -0.66404836124E+01 -0.86073383584E+02  0.19497496882E+03  0.17300000000E+03 0. -1.
         -6    1    1    2    0  502 -0.25169725474E+02  0.66404836124E+01  0.10439286900E+03  0.20372648871E+03  0.17300000000E+03 0. -1.
<mgrwt>
<rscale>  2 0.17494745E+03</rscale>
<asrwt>0</asrwt>
<pdfrwt beam="1">  1       21 0.32078534E-01 0.17494745E+03</pdfrwt>
<pdfrwt beam="2">  1       21 0.29260152E-01 0.17494745E+03</pdfrwt>
<totfact> 0.10525675E+05</totfact>
</mgrwt>
</event>
<event>
 4    1  0.4025504E+000  0.2119029E+03  0.7546771E-02  0.1140068E+00
         21   -1    0    0  503  502  0.00000000000E+00  0.00000000000E+00  0.34827179932E+03  0.34827179932E+03  0.00000000000E+00 0.  1.
         21   -1    0    0  501  503 -0.00000000000E+00 -0.00000000000E+00 -0.13248897618E+03  0.13248897618E+03  0.00000000000E+00 0. -1.
          6    1    1    2  501    0 -0.10999223400E+03  0.53624189113E+02  0.68496212630E+02  0.22269839771E+03  0.17300000000E+03 0. -1.
         -6    1    1    2    0  502  0.10999223400E+03 -0.53624189113E+02  0.14728661050E+03  0.25806237779E+03  0.17300000000E+03 0.  1.
<mgrwt>
<rscale>  2 0.21190291E+03</rscale>
<asrwt>0</asrwt>
<pdfrwt beam="1">  1       21 0.53580276E-01 0.21190291E+03</pdfrwt>
<pdfrwt beam="2">  1       21 0.20382920E-01 0.21190291E+03</pdfrwt>
<totfact> 0.72819398E+04</totfact>
</mgrwt>
</event>
<event>
 4    1  0.4025504E+000  0.2986464E+03  0.7546771E-02  0.1085919E+00
         21   -1    0    0  501  502  0.00000000000E+00  0.00000000000E+00  0.25127452439E+03  0.25127452439E+03  0.00000000000E+00 0. -1.
         21   -1    0    0  502  503 -0.00000000000E+00 -0.00000000000E+00 -0.35983588476E+03  0.35983588476E+03  0.00000000000E+00 0. -1.
          6    1    1    2  501    0  0.18431591614E+03  0.15902296589E+03 -0.18672477236E+02  0.29922954739E+03  0.17300000000E+03 0. -1.
         -6    1    1    2    0  503 -0.18431591614E+03 -0.15902296589E+03 -0.89888883133E+02  0.31188086177E+03  0.17300000000E+03 0. -1.
<mgrwt>
<rscale>  2 0.29864638E+03</rscale>
<asrwt>0</asrwt>
<pdfrwt beam="1">  1       21 0.38657619E-01 0.29864638E+03</pdfrwt>
<pdfrwt beam="2">  1       21 0.55359367E-01 0.29864638E+03</pdfrwt>
<totfact> 0.18825627E+04</totfact>
</mgrwt>
</event>
<event>
 4    1  0.4025504E+000  0.2177023E+03  0.7546771E-02  0.1135608E+00
         21   -1    0    0  501  502  0.00000000000E+00  0.00000000000E+00  0.19512381366E+04  0.19512381366E+04  0.00000000000E+00 0.  1.
         21   -1    0    0  502  503 -0.00000000000E+00 -0.00000000000E+00 -0.24320467258E+02  0.24320467258E+02  0.00000000000E+00 0. -1.
          6    1    1    2  501    0 -0.40869677566E+02  0.12567794806E+03  0.99879975212E+03  0.10222500780E+04  0.17300000000E+03 0.  1.
         -6    1    1    2    0  503  0.40869677566E+02 -0.12567794806E+03  0.92811791724E+03  0.95330852585E+03  0.17300000000E+03 0.  1.
<mgrwt>
<rscale>  2 0.21770227E+03</rscale>
<asrwt>0</asrwt>
<pdfrwt beam="1">  1       21 0.30019036E+00 0.21770227E+03</pdfrwt>
<pdfrwt beam="2">  1       21 0.37416119E-02 0.21770227E+03</pdfrwt>
<totfact> 0.14556474E+04</totfact>
</mgrwt>
</event>
<event>
 4    1  0.4025504E+000  0.1839003E+03  0.7546771E-02  0.1164081E+00
         21   -1    0    0  501  502  0.00000000000E+00  0.00000000000E+00  0.65339554890E+03  0.65339554890E+03  0.00000000000E+00 0.  1.
         21   -1    0    0  502  503 -0.00000000000E+00 -0.00000000000E+00 -0.73031683557E+02  0.73031683557E+02  0.00000000000E+00 0.  1.
          6    1    1    2  501    0  0.24175456788E+02  0.57496824733E+02  0.48620803139E+03  0.51982457363E+03  0.17300000000E+03 0.  1.
         -6    1    1    2    0  503 -0.24175456788E+02 -0.57496824733E+02  0.94155833952E+02  0.20660265882E+03  0.17300000000E+03 0.  1.
<mgrwt>
<rscale>  2 0.18390035E+03</rscale>
<asrwt>0</asrwt>
<pdfrwt beam="1">  1       21 0.10052239E+00 0.18390035E+03</pdfrwt>
<pdfrwt beam="2">  1       21 0.11235644E-01 0.18390035E+03</pdfrwt>
<totfact> 0.53742810E+04</totfact>
</mgrwt>
</event>
<event>
 4    1  0.4025504E+000  0.2417961E+03  0.7546771E-02  0.1118602E+00
         21   -1    0    0  501  502  0.00000000000E+00  0.00000000000E+00  0.34774360268E+03  0.34774360268E+03  0.00000000000E+00 0.  1.
         21   -1    0    0  502  503 -0.00000000000E+00 -0.00000000000E+00 -0.17450120387E+03  0.17450120387E+03  0.00000000000E+00 0.  1.
          6    1    1    2  501    0  0.16702123662E+03 -0.25303299801E+02  0.13652484222E+03  0.27767675993E+03  0.17300000000E+03 0.  1.
         -6    1    1    2    0  503 -0.16702123662E+03  0.25303299801E+02  0.36717556591E+02  0.24456804661E+03  0.17300000000E+03 0.  1.
<mgrwt>
<rscale>  2 0.24179609E+03</rscale>
<asrwt>0</asrwt>
<pdfrwt beam="1">  1       21 0.53499016E-01 0.24179609E+03</pdfrwt>
<pdfrwt beam="2">  1       21 0.26846339E-01 0.24179609E+03</pdfrwt>
<totfact> 0.42695251E+04</totfact>
</mgrwt>
</event>
<event>
 4    1  0.4025504E+000  0.1884372E+03  0.7546771E-02  0.1159879E+00
         21   -1    0    0  501  502  0.00000000000E+00  0.00000000000E+00  0.11606666792E+04  0.11606666792E+04  0.00000000000E+00 0.  1.
         21   -1    0    0  502  503 -0.00000000000E+00 -0.00000000000E+00 -0.33302737675E+02  0.33302737675E+02  0.00000000000E+00 0. -1.
          6    1    1    2  501    0 -0.58322651851E+02 -0.46669411170E+02  0.73396322649E+03  0.75776683980E+03  0.17300000000E+03 0.  1.
         -6    1    1    2    0  503  0.58322651851E+02  0.46669411170E+02  0.39340071503E+03  0.43620257707E+03  0.17300000000E+03 0. -1.
<mgrwt>
<rscale>  2 0.18843717E+03</rscale>
<asrwt>0</asrwt>
<pdfrwt beam="1">  1       21 0.17856407E+00 0.18843717E+03</pdfrwt>
<pdfrwt beam="2">  1       21 0.51234990E-02 0.18843717E+03</pdfrwt>
<totfact> 0.48156329E+04</totfact>
</mgrwt>
</event>
<event>
 4    1  0.4025504E+000  0.2134505E+03  0.7546771E-02  0.1138862E+00
         21   -1    0    0  501  502  0.00000000000E+00  0.00000000000E+00  0.24525845951E+03  0.24525845951E+03  0.00000000000E+00 0. -1.
         21   -1    0    0  502  503 -0.00000000000E+00 -0.00000000000E+00 -0.18637346538E+03  0.18637346538E+03  0.00000000000E+00 0. -1.
          6    1    1    2  501    0 -0.10221305566E+03 -0.72004253774E+02  0.41745538775E+02  0.21749439376E+03  0.17300000000E+03 0. -1.
         -6    1    1    2    0  503  0.10221305566E+03  0.72004253774E+02  0.17139455359E+02  0.21413753113E+03  0.17300000000E+03 0. -1.
<mgrwt>
<rscale>  2 0.21345051E+03</rscale>
<asrwt>0</asrwt>
<pdfrwt beam="1">  1       21 0.37732071E-01 0.21345051E+03</pdfrwt>
<pdfrwt beam="2">  1       21 0.28672841E-01 0.21345051E+03</pdfrwt>
<totfact> 0.78126664E+04</totfact>
</mgrwt>
</event>
<event>
 4    1  0.4025504E+000  0.1902284E+03  0.7546771E-02  0.1158256E+00
         21   -1    0    0  501  502  0.00000000000E+00  0.00000000000E+00  0.15465918726E+04  0.15465918726E+04  0.00000000000E+00 0. -1.
         21   -1    0    0  502  503 -0.00000000000E+00 -0.00000000000E+00 -0.39287139306E+02  0.39287139306E+02  0.00000000000E+00 0.  1.
          6    1    1    2  501    0 -0.74403179663E+02  0.26870009075E+02  0.12579279267E+04  0.12722301282E+04  0.17300000000E+03 0. -1.
         -6    1    1    2    0  503  0.74403179663E+02 -0.26870009075E+02  0.24937680658E+03  0.31364888362E+03  0.17300000000E+03 0.  1.
<mgrwt>
<rscale>  2 0.19022836E+03</rscale>
<asrwt>0</asrwt>
<pdfrwt beam="1">  1       21 0.23793716E+00 0.19022836E+03</pdfrwt>
<pdfrwt beam="2">  1       21 0.60441765E-02 0.19022836E+03</pdfrwt>
<totfact> 0.15293297E+04</totfact>
</mgrwt>
</event>
<event>
 4    1  0.4025504E+000  0.2045634E+03  0.7546771E-02  0.1145945E+00
         21   -1    0    0  501  502  0.00000000000E+00  0.00000000000E+00  0.69860795020E+02  0.69860795020E+02  0.00000000000E+00 0.  1.
         21   -1    0    0  502  503 -0.00000000000E+00 -0.00000000000E+00 -0.60177104568E+03  0.60177104568E+03  0.00000000000E+00 0. -1.
          6    1    1    2  501    0 -0.10356470055E+03  0.34518707042E+02 -0.24314188871E+03  0.31774858990E+03  0.17300000000E+03 0.  1.
         -6    1    1    2    0  503  0.10356470055E+03 -0.34518707042E+02 -0.28876836196E+03  0.35388325081E+03  0.17300000000E+03 0. -1.
<mgrwt>
<rscale>  2 0.20456341E+03</rscale>
<asrwt>0</asrwt>
<pdfrwt beam="1">  1       21 0.10747815E-01 0.20456341E+03</pdfrwt>
<pdfrwt beam="2">  1       21 0.92580160E-01 0.20456341E+03</pdfrwt>
<totfact> 0.69873258E+04</totfact>
</mgrwt>
</event>
<event>
 4    1  0.4025504E+000  0.2008737E+03  0.7546771E-02  0.1149004E+00
         21   -1    0    0  501  502  0.00000000000E+00  0.00000000000E+00  0.81297755518E+03  0.81297755518E+03  0.00000000000E+00 0.  1.
         21   -1    0    0  502  503 -0.00000000000E+00 -0.00000000000E+00 -0.10479713806E+03  0.10479713806E+03  0.00000000000E+00 0. -1.
          6    1    1    2  501    0 -0.56999033020E+02 -0.84689756320E+02  0.68702647037E+03  0.71579020361E+03  0.17300000000E+03 0.  1.
         -6    1    1    2    0  503  0.56999033020E+02  0.84689756320E+02  0.21153946747E+02  0.20198448964E+03  0.17300000000E+03 0. -1.
<mgrwt>
<rscale>  2 0.20087370E+03</rscale>
<asrwt>0</asrwt>
<pdfrwt beam="1">  1       21 0.12507347E+00 0.20087370E+03</pdfrwt>
<pdfrwt beam="2">  1       21 0.16122637E-01 0.20087370E+03</pdfrwt>
<totfact> 0.16288065E+04</totfact>
</mgrwt>
</event>
<event>
 4    1  0.4025504E+000  0.2814941E+03  0.7546771E-02  0.1094876E+00
         21   -1    0    0  503  502  0.00000000000E+00  0.00000000000E+00  0.47479804575E+02  0.47479804575E+02  0.00000000000E+00 0. -1.
         21   -1    0    0  501  503 -0.00000000000E+00 -0.00000000000E+00 -0.16757359566E+04  0.16757359566E+04  0.00000000000E+00 0.  1.
          6    1    1    2  501    0  0.21859859478E+03 -0.39046000854E+02 -0.75908786108E+03  0.80960071434E+03  0.17300000000E+03 0. -1.
         -6    1    1    2    0  502 -0.21859859478E+03  0.39046000854E+02 -0.86916829094E+03  0.91361504683E+03  0.17300000000E+03 0.  1.
<mgrwt>
<rscale>  2 0.28149411E+03</rscale>
<asrwt>0</asrwt>
<pdfrwt beam="1">  1       21 0.73045862E-02 0.28149411E+03</pdfrwt>
<pdfrwt beam="2">  1       21 0.25780550E+00 0.28149411E+03</pdfrwt>
<totfact> 0.78077599E+03</totfact>
</mgrwt>
</event>
<event>
 4    1  0.4025504E+000  0.2475930E+03  0.7546771E-02  0.1114835E+00
         21   -1    0    0  501  502  0.00000000000E+00  0.00000000000E+00  0.47731861322E+03  0.47731861322E+03  0.00000000000E+00 0.  1.
         21   -1    0    0  502  503 -0.00000000000E+00 -0.00000000000E+00 -0.13048442942E+03  0.13048442942E+03  0.00000000000E+00 0. -1.
          6    1    1    2  501    0 -0.13870368761E+03 -0.11015713687E+03  0.13528966346E+03  0.28214464517E+03  0.17300000000E+03 0. -1.
         -6    1    1    2    0  503  0.13870368761E+03  0.11015713687E+03  0.21154452034E+03  0.32565839748E+03  0.17300000000E+03 0. -1.
<mgrwt>
<rscale>  2 0.24759303E+03</rscale>
<asrwt>0</asrwt>
<pdfrwt beam="1">  1       21 0.73433632E-01 0.24759303E+03</pdfrwt>
<pdfrwt beam="2">  1       21 0.20074528E-01 0.24759303E+03</pdfrwt>
<totfact> 0.37194588E+04</totfact>
</mgrwt>
</event>
<event>
 4    1  0.4025504E+000  0.1903522E+03  0.7546771E-02  0.1158144E+00
         21   -1    0    0  503  502  0.00000000000E+00  0.00000000000E+00  0.17117905528E+03  0.17117905528E+03  0.00000000000E+00 0. -1.
         21   -1    0    0  501  503 -0.00000000000E+00 -0.00000000000E+00 -0.21168460432E+03  0.21168460432E+03  0.00000000000E+00 0. -1.
          6    1    1    2  501    0  0.79403832099E+02  0.37307392038E-01 -0.21675197429E+02  0.19158231684E+03  0.17300000000E+03 0. -1.
         -6    1    1    2    0  502 -0.79403832099E+02 -0.37307392038E-01 -0.18830351609E+02  0.19128134275E+03  0.17300000000E+03 0. -1.
<mgrwt>
<rscale>  2 0.19035223E+03</rscale>
<asrwt>0</asrwt>
<pdfrwt beam="1">  1       21 0.26335239E-01 0.19035223E+03</pdfrwt>
<pdfrwt beam="2">  1       21 0.32566862E-01 0.19035223E+03</pdfrwt>
<totfact> 0.12450918E+05</totfact>
</mgrwt>
</event>
<event>
 4    1  0.4025504E+000  0.2139770E+03  0.7546771E-02  0.1138455E+00
         21   -1    0    0  503  502  0.00000000000E+00  0.00000000000E+00  0.18198885864E+03  0.18198885864E+03  0.00000000000E+00 0. -1.
         21   -1    0    0  501  503 -0.00000000000E+00 -0.00000000000E+00 -0.28424861115E+03  0.28424861115E+03  0.00000000000E+00 0. -1.
          6    1    1    2  501    0  0.11044889675E+03  0.60483166485E+02  0.27890964112E+02  0.21578711292E+03  0.17300000000E+03 0. -1.
         -6    1    1    2    0  502 -0.11044889675E+03 -0.60483166485E+02 -0.13015071662E+03  0.25045035687E+03  0.17300000000E+03 0. -1.
<mgrwt>
<rscale>  2 0.21397704E+03</rscale>
<asrwt>0</asrwt>
<pdfrwt beam="1">  1       21 0.27998286E-01 0.21397704E+03</pdfrwt>
<pdfrwt beam="2">  1       21 0.43730555E-01 0.21397704E+03</pdfrwt>
<totfact> 0.60634880E+04</totfact>
</mgrwt>
</event>
<event>
 4    1  0.4025504E+000  0.1837727E+03  0.7546771E-02  0.1164201E+00
         21   -1    0    0  501  502  0.00000000000E+00  0.00000000000E+00  0.21038641012E+04  0.21038641012E+04  0.00000000000E+00 0. -1.
         21   -1    0    0  502  503 -0.00000000000E+00 -0.00000000000E+00 -0.10552042414E+03  0.10552042414E+03  0.00000000000E+00 0. -1.
          6    1    1    2  501    0  0.18244263434E+02  0.59249788415E+02  0.20163724187E+04  0.20247296416E+04  0.17300000000E+03 0. -1.
         -6    1    1    2    0  503 -0.18244263434E+02 -0.59249788415E+02 -0.18028741634E+02  0.18465488377E+03  0.17300000000E+03 0. -1.
<mgrwt>
<rscale>  2 0.18377266E+03</rscale>
<asrwt>0</asrwt>
<pdfrwt beam="1">  1       21 0.32367137E+00 0.18377266E+03</pdfrwt>
<pdfrwt beam="2">  1       21 0.16233913E-01 0.18377266E+03</pdfrwt>
<totfact> 0.85732003E+02</totfact>
</mgrwt>
</event>
<event>
 4    1  0.4025504E+000  0.1960360E+03  0.7546771E-02  0.1153127E+00
         21   -1    0    0  501  502  0.00000000000E+00  0.00000000000E+00  0.18026718666E+03  0.18026718666E+03  0.00000000000E+00 0.  1.
         21   -1    0    0  502  503 -0.00000000000E+00 -0.00000000000E+00 -0.54329868466E+03  0.54329868466E+03  0.00000000000E+00 0.  1.
          6    1    1    2  501    0  0.91827866804E+02  0.82922835949E+01  0.10049199259E+03  0.22029244123E+03  0.17300000000E+03 0.  1.
         -6    1    1    2    0  503 -0.91827866804E+02 -0.82922835949E+01 -0.46352349060E+03  0.50327343008E+03  0.17300000000E+03 0.  1.
<mgrwt>
<rscale>  2 0.19603601E+03</rscale>
<asrwt>0</asrwt>
<pdfrwt beam="1">  1       21 0.27733413E-01 0.19603601E+03</pdfrwt>
<pdfrwt beam="2">  1       21 0.83584414E-01 0.19603601E+03</pdfrwt>
<totfact> 0.15419621E+04</totfact>
</mgrwt>
</event>
<event>
 4    1  0.4025504E+000  0.1736164E+03  0.7546771E-02  0.1174128E+00
         21   -1    0    0  503  502  0.00000000000E+00  0.00000000000E+00  0.34114784701E+03  0.34114784701E+03  0.00000000000E+00 0.  1.
         21   -1    0    0  501  503 -0.00000000000E+00 -0.00000000000E+00 -0.88531724797E+02  0.88531724797E+02  0.00000000000E+00 0.  1.
          6    1    1    2  501    0  0.40103787433E+00 -0.14611704915E+02  0.13586333404E+03  0.22045749769E+03  0.17300000000E+03 0.  1.
         -6    1    1    2    0  502 -0.40103787433E+00  0.14611704915E+02  0.11675278818E+03  0.20922207412E+03  0.17300000000E+03 0.  1.
<mgrwt>
<rscale>  2 0.17361642E+03</rscale>
<asrwt>0</asrwt>
<pdfrwt beam="1">  1       21 0.52484283E-01 0.17361642E+03</pdfrwt>
<pdfrwt beam="2">  1       21 0.13620266E-01 0.17361642E+03</pdfrwt>
<totfact> 0.16187011E+05</totfact>
</mgrwt>
</event>
<event>
 4    1  0.4025504E+000  0.1992301E+03  0.7546771E-02  0.1150390E+00
         21   -1    0    0  501  502  0.00000000000E+00  0.00000000000E+00  0.29289423075E+02  0.29289423075E+02  0.00000000000E+00 0.  1.
         21   -1    0    0  502  503 -0.00000000000E+00 -0.00000000000E+00 -0.16938985196E+04  0.16938985196E+04  0.00000000000E+00 0.  1.
          6    1    1    2  501    0 -0.29364551859E+02 -0.94347078477E+02 -0.44702684080E+03  0.48941357207E+03  0.17300000000E+03 0.  1.
         -6    1    1    2    0  503  0.29364551859E+02  0.94347078477E+02 -0.12175822557E+04  0.12337743706E+04  0.17300000000E+03 0.  1.
<mgrwt>
<rscale>  2 0.19923014E+03</rscale>
<asrwt>0</asrwt>
<pdfrwt beam="1">  1       21 0.45060663E-02 0.19923014E+03</pdfrwt>
<pdfrwt beam="2">  1       21 0.26059970E+00 0.19923014E+03</pdfrwt>
<totfact> 0.18377648E+04</totfact>
</mgrwt>
</event>
<event>
 4    1  0.4025504E+000  0.2042933E+03  0.7546771E-02  0.1146166E+00
         21   -1    0    0  503  502  0.00000000000E+00  0.00000000000E+00  0.10675730500E+04  0.10675730500E+04  0.00000000000E+00 0.  1.
         21   -1    0    0  501  503 -0.00000000000E+00 -0.00000000000E+00 -0.90072731021E+02  0.90072731021E+02  0.00000000000E+00 0.  1.
          6    1    1    2  501    0 -0.10855668127E+03 -0.47136515897E+01  0.53295180791E+02  0.21113064168E+03  0.17300000000E+03 0.  1.
         -6    1    1    2    0  502  0.10855668127E+03  0.47136515897E+01  0.92420513822E+03  0.94651513938E+03  0.17300000000E+03 0.  1.
<mgrwt>
<rscale>  2 0.20429335E+03</rscale>
<asrwt>0</asrwt>
<pdfrwt beam="1">  1       21 0.16424200E+00 0.20429335E+03</pdfrwt>
<pdfrwt beam="2">  1       21 0.13857344E-01 0.20429335E+03</pdfrwt>
<totfact> 0.10526219E+04</totfact>
</mgrwt>
</event>
<event>
 4    1  0.4025504E+000  0.2644099E+03  0.7546771E-02  0.1104522E+00
         21   -1    0    0  503  502  0.00000000000E+00  0.00000000000E+00  0.16083424560E+03  0.16083424560E+03  0.00000000000E+00 0. -1.
         21   -1    0    0  501  503 -0.00000000000E+00 -0.00000000000E+00 -0.46286430543E+03  0.46286430543E+03  0.00000000000E+00 0. -1.
          6    1    1    2  501    0  0.19894841625E+03  0.20077765481E+02 -0.22795748316E+03  0.34910915646E+03  0.17300000000E+03 0. -1.
         -6    1    1    2    0  502 -0.19894841625E+03 -0.20077765481E+02 -0.74072576665E+02  0.27458939457E+03  0.17300000000E+03 0. -1.
<mgrwt>
<rscale>  2 0.26440989E+03</rscale>
<asrwt>0</asrwt>
<pdfrwt beam="1">  1       21 0.24743730E-01 0.26440989E+03</pdfrwt>
<pdfrwt beam="2">  1       21 0.71209894E-01 0.26440989E+03</pdfrwt>
<totfact> 0.26582431E+04</totfact>
</mgrwt>
</event>
<event>
 4    1  0.4025504E+000  0.1999722E+03  0.7546771E-02  0.1149762E+00
         21   -1    0    0  501  502  0.00000000000E+00  0.00000000000E+00  0.44135370137E+03  0.44135370137E+03  0.00000000000E+00 0. -1.
         21   -1    0    0  502  503 -0.00000000000E+00 -0.00000000000E+00 -0.12499363398E+03  0.12499363398E+03  0.00000000000E+00 0. -1.
          6    1    1    2  501    0 -0.30361132029E+01  0.10025293791E+03  0.30671070074E+03  0.36614249070E+03  0.17300000000E+03 0. -1.
         -6    1    1    2    0  503  0.30361132029E+01 -0.10025293791E+03  0.96493666465E+01  0.20020484465E+03  0.17300000000E+03 0. -1.
<mgrwt>
<rscale>  2 0.19997217E+03</rscale>
<asrwt>0</asrwt>
<pdfrwt beam="1">  1       21 0.67900569E-01 0.19997217E+03</pdfrwt>
<pdfrwt beam="2">  1       21 0.19229790E-01 0.19997217E+03</pdfrwt>
<totfact> 0.49028471E+04</totfact>
</mgrwt>
</event>
<event>
 4    1  0.4025504E+000  0.1919618E+03  0.7546771E-02  0.1156704E+00
         21   -1    0    0  501  502  0.00000000000E+00  0.00000000000E+00  0.14174070505E+04  0.14174070505E+04  0.00000000000E+00 0. -1.
         21   -1    0    0  502  503 -0.00000000000E+00 -0.00000000000E+00 -0.25998925918E+02  0.25998925918E+02  0.00000000000E+00 0. -1.
          6    1    1    2  501    0  0.86629327099E+01 -0.82736156834E+02  0.69074084245E+03  0.71691856544E+03  0.17300000000E+03 0. -1.
         -6    1    1    2    0  503 -0.86629327099E+01  0.82736156834E+02  0.70066728208E+03  0.72648741093E+03  0.17300000000E+03 0. -1.
<mgrwt>
<rscale>  2 0.19196176E+03</rscale>
<asrwt>0</asrwt>
<pdfrwt beam="1">  1       21 0.21806256E+00 0.19196176E+03</pdfrwt>
<pdfrwt beam="2">  1       21 0.39998359E-02 0.19196176E+03</pdfrwt>
<totfact> 0.40539062E+04</totfact>
</mgrwt>
</event>
<event>
 4    1  0.4025504E+000  0.2207344E+03  0.7546771E-02  0.1133337E+00
         21   -1    0    0  501  502  0.00000000000E+00  0.00000000000E+00  0.71361739953E+03  0.71361739953E+03  0.00000000000E+00 0.  1.
         21   -1    0    0  502  503 -0.00000000000E+00 -0.00000000000E+00 -0.16650939583E+03  0.16650939583E+03  0.00000000000E+00 0.  1.
          6    1    1    2  501    0  0.90076673854E+02  0.10334828233E+03  0.61155904723E+03  0.65017547084E+03  0.17300000000E+03 0.  1.
         -6    1    1    2    0  503 -0.90076673854E+02 -0.10334828233E+03 -0.64451043530E+02  0.22995132451E+03  0.17300000000E+03 0.  1.
<mgrwt>
<rscale>  2 0.22073440E+03</rscale>
<asrwt>0</asrwt>
<pdfrwt beam="1">  1       21 0.10978729E+00 0.22073440E+03</pdfrwt>
<pdfrwt beam="2">  1       21 0.25616831E-01 0.22073440E+03</pdfrwt>
<totfact> 0.93025593E+03</totfact>
</mgrwt>
</event>
<event>
 4    1  0.4025504E+000  0.2316630E+03  0.7546771E-02  0.1125475E+00
         21   -1    0    0  503  502  0.00000000000E+00  0.00000000000E+00  0.46562598171E+02  0.46562598171E+02  0.00000000000E+00 0.  1.
         21   -1    0    0  501  503 -0.00000000000E+00 -0.00000000000E+00 -0.15033509544E+04  0.15033509544E+04  0.00000000000E+00 0.  1.
          6    1    1    2  501    0  0.11639519081E+03  0.10094998516E+03 -0.11027209190E+04  0.11267924233E+04  0.17300000000E+03 0.  1.
         -6    1    1    2    0  502 -0.11639519081E+03 -0.10094998516E+03 -0.35406743721E+03  0.42312112928E+03  0.17300000000E+03 0.  1.
<mgrwt>
<rscale>  2 0.23166299E+03</rscale>
<asrwt>0</asrwt>
<pdfrwt beam="1">  1       21 0.71634767E-02 0.23166299E+03</pdfrwt>
<pdfrwt beam="2">  1       21 0.23128476E+00 0.23166299E+03</pdfrwt>
<totfact> 0.12087869E+04</totfact>
</mgrwt>
</event>
<event>
 4    1  0.4025504E+000  0.2121867E+03  0.7546771E-02  0.1139846E+00
         21   -1    0    0  501  502  0.00000000000E+00  0.00000000000E+00  0.25563900736E+03  0.25563900736E+03  0.00000000000E+00 0.  1.
         21   -1    0    0  502  503 -0.00000000000E+00 -0.00000000000E+00 -0.22236132426E+03  0.22236132426E+03  0.00000000000E+00 0. -1.
          6    1    1    2  501    0 -0.85758150256E+02 -0.87975862843E+02  0.12562777614E+03  0.24658781583E+03  0.17300000000E+03 0.  1.
         -6    1    1    2    0  503  0.85758150256E+02  0.87975862843E+02 -0.92350093045E+02  0.23141251579E+03  0.17300000000E+03 0. -1.
<mgrwt>
<rscale>  2 0.21218674E+03</rscale>
<asrwt>0</asrwt>
<pdfrwt beam="1">  1       21 0.39329078E-01 0.21218674E+03</pdfrwt>
<pdfrwt beam="2">  1       21 0.34209435E-01 0.21218674E+03</pdfrwt>
<totfact> 0.50842204E+04</totfact>
</mgrwt>
</event>
<event>
 4    1  0.4025504E+000  0.2869246E+03  0.7546771E-02  0.1091966E+00
         21   -1    0    0  501  502  0.00000000000E+00  0.00000000000E+00  0.41911045138E+03  0.41911045138E+03  0.00000000000E+00 0. -1.
         21   -1    0    0  502  503 -0.00000000000E+00 -0.00000000000E+00 -0.19649551551E+03  0.19649551551E+03  0.00000000000E+00 0. -1.
          6    1    1    2  501    0  0.74373399323E+02 -0.21648397636E+03  0.10567157482E+03  0.30576493630E+03  0.17300000000E+03 0. -1.
         -6    1    1    2    0  503 -0.74373399323E+02  0.21648397636E+03  0.11694336104E+03  0.30984103059E+03  0.17300000000E+03 0. -1.
<mgrwt>
<rscale>  2 0.28692458E+03</rscale>
<asrwt>0</asrwt>
<pdfrwt beam="1">  1       21 0.64478531E-01 0.28692458E+03</pdfrwt>
<pdfrwt beam="2">  1       21 0.30230079E-01 0.28692458E+03</pdfrwt>
<totfact> 0.22219896E+04</totfact>
</mgrwt>
</event>
<event>
 4    1  0.4025504E+000  0.2626381E+03  0.7546771E-02  0.1105569E+00
         21   -1    0    0  501  502  0.00000000000E+00  0.00000000000E+00  0.24448705620E+03  0.24448705620E+03  0.00000000000E+00 0. -1.
         21   -1    0    0  502  503 -0.00000000000E+00 -0.00000000000E+00 -0.31044514580E+03  0.31044514580E+03  0.00000000000E+00 0.  1.
          6    1    1    2  501    0  0.11347241156E+03 -0.16178305731E+03  0.50807890442E+02  0.26750735980E+03  0.17300000000E+03 0. -1.
         -6    1    1    2    0  503 -0.11347241156E+03  0.16178305731E+03 -0.11676598005E+03  0.28742484220E+03  0.17300000000E+03 0.  1.
<mgrwt>
<rscale>  2 0.26263805E+03</rscale>
<asrwt>0</asrwt>
<pdfrwt beam="1">  1       21 0.37613393E-01 0.26263805E+03</pdfrwt>
<pdfrwt beam="2">  1       21 0.47760792E-01 0.26263805E+03</pdfrwt>
<totfact> 0.27595519E+04</totfact>
</mgrwt>
</event>
<event>
 4    1  0.4025504E+000  0.1913586E+03  0.7546771E-02  0.1157242E+00
         21   -1    0    0  503  502  0.00000000000E+00  0.00000000000E+00  0.66884158857E+03  0.66884158857E+03  0.00000000000E+00 0.  1.
         21   -1    0    0  501  503 -0.00000000000E+00 -0.00000000000E+00 -0.56898978488E+02  0.56898978488E+02  0.00000000000E+00 0.  1.
          6    1    1    2  501    0  0.80542248214E+02  0.14215059871E+02  0.37651520725E+03  0.42235272340E+03  0.17300000000E+03 0.  1.
         -6    1    1    2    0  502 -0.80542248214E+02 -0.14215059871E+02  0.23542740283E+03  0.30338784366E+03  0.17300000000E+03 0.  1.
<mgrwt>
<rscale>  2 0.19135862E+03</rscale>
<asrwt>0</asrwt>
<pdfrwt beam="1">  1       21 0.10289870E+00 0.19135862E+03</pdfrwt>
<pdfrwt beam="2">  1       21 0.87536895E-02 0.19135862E+03</pdfrwt>
<totfact> 0.78691332E+04</totfact>
</mgrwt>
</event>
<event>
 4    1  0.4025504E+000  0.2253744E+03  0.7546771E-02  0.1129938E+00
         21   -1    0    0  501  502  0.00000000000E+00  0.00000000000E+00  0.21042197464E+03  0.21042197464E+03  0.00000000000E+00 0. -1.
         21   -1    0    0  502  503 -0.00000000000E+00 -0.00000000000E+00 -0.24495889451E+03  0.24495889451E+03  0.00000000000E+00 0. -1.
          6    1    1    2  501    0  0.12331619297E+03  0.75218031329E+02  0.10216879857E+02  0.22560589602E+03  0.17300000000E+03 0. -1.
         -6    1    1    2    0  503 -0.12331619297E+03 -0.75218031329E+02 -0.44753799720E+02  0.22977497313E+03  0.17300000000E+03 0. -1.
<mgrwt>
<rscale>  2 0.22537443E+03</rscale>
<asrwt>0</asrwt>
<pdfrwt beam="1">  1       21 0.32372612E-01 0.22537443E+03</pdfrwt>
<pdfrwt beam="2">  1       21 0.37685983E-01 0.22537443E+03</pdfrwt>
<totfact> 0.61446210E+04</totfact>
</mgrwt>
</event>
<event>
 4    1  0.4025504E+000  0.2694275E+03  0.7546771E-02  0.1101608E+00
         21   -1    0    0  503  502  0.00000000000E+00  0.00000000000E+00  0.13553209298E+03  0.13553209298E+03  0.00000000000E+00 0.  1.
         21   -1    0    0  501  503 -0.00000000000E+00 -0.00000000000E+00 -0.79693840458E+03  0.79693840458E+03  0.00000000000E+00 0. -1.
          6    1    1    2  501    0  0.87234718620E+02  0.18722257956E+03 -0.59769199627E+03  0.65561186142E+03  0.17300000000E+03 0. -1.
         -6    1    1    2    0  502 -0.87234718620E+02 -0.18722257956E+03 -0.63714315336E+02  0.27685863615E+03  0.17300000000E+03 0.  1.
<mgrwt>
<rscale>  2 0.26942752E+03</rscale>
<asrwt>0</asrwt>
<pdfrwt beam="1">  1       21 0.20851091E-01 0.26942752E+03</pdfrwt>
<pdfrwt beam="2">  1       21 0.12260591E+00 0.26942752E+03</pdfrwt>
<totfact> 0.10186971E+04</totfact>
</mgrwt>
</event>
<event>
 4    1  0.4025504E+000  0.2251678E+03  0.7546771E-02  0.1130088E+00
         21   -1    0    0  503  502  0.00000000000E+00  0.00000000000E+00  0.41031322076E+02  0.41031322076E+02  0.00000000000E+00 0.  1.
         21   -1    0    0  501  503 -0.00000000000E+00 -0.00000000000E+00 -0.12359090683E+04  0.12359090683E+04  0.00000000000E+00 0. -1.
          6    1    1    2  501    0  0.56945883803E+01  0.14401082631E+03 -0.58827942595E+03  0.62989938040E+03  0.17300000000E+03 0.  1.
         -6    1    1    2    0  502 -0.56945883803E+01 -0.14401082631E+03 -0.60659832029E+03  0.64704100999E+03  0.17300000000E+03 0.  1.
<mgrwt>
<rscale>  2 0.22516782E+03</rscale>
<asrwt>0</asrwt>
<pdfrwt beam="1">  1       21 0.63125104E-02 0.22516782E+03</pdfrwt>
<pdfrwt beam="2">  1       21 0.19013988E+00 0.22516782E+03</pdfrwt>
<totfact> 0.27520599E+04</totfact>
</mgrwt>
</event>
<event>
 4    1  0.4025504E+000  0.2071750E+03  0.7546771E-02  0.1143823E+00
         21   -1    0    0  503  502  0.00000000000E+00  0.00000000000E+00  0.18449437350E+03  0.18449437350E+03  0.00000000000E+00 0. -1.
         21   -1    0    0  501  503 -0.00000000000E+00 -0.00000000000E+00 -0.36212431972E+03  0.36212431972E+03  0.00000000000E+00 0. -1.
          6    1    1    2  501    0 -0.60286651499E+02  0.96736808157E+02 -0.25224343321E+03  0.32641727896E+03  0.17300000000E+03 0. -1.
         -6    1    1    2    0  502  0.60286651499E+02 -0.96736808157E+02  0.74613487002E+02  0.22020141426E+03  0.17300000000E+03 0. -1.
<mgrwt>
<rscale>  2 0.20717502E+03</rscale>
<asrwt>0</asrwt>
<pdfrwt beam="1">  1       21 0.28383750E-01 0.20717502E+03</pdfrwt>
<pdfrwt beam="2">  1       21 0.55711433E-01 0.20717502E+03</pdfrwt>
<totfact> 0.35745645E+04</totfact>
</mgrwt>
</event>
<event>
 4    1  0.4025504E+000  0.1988478E+03  0.7546771E-02  0.1150715E+00
         21   -1    0    0  503  502  0.00000000000E+00  0.00000000000E+00  0.59391964201E+03  0.59391964201E+03  0.00000000000E+00 0. -1.
         21   -1    0    0  501  503 -0.00000000000E+00 -0.00000000000E+00 -0.66807523616E+02  0.66807523616E+02  0.00000000000E+00 0. -1.
          6    1    1    2  501    0  0.88035066303E+02 -0.43142275924E+02  0.28302996676E+03  0.34589939427E+03  0.17300000000E+03 0. -1.
         -6    1    1    2    0  502 -0.88035066303E+02  0.43142275924E+02  0.24408215163E+03  0.31482777135E+03  0.17300000000E+03 0. -1.
<mgrwt>
<rscale>  2 0.19884775E+03</rscale>
<asrwt>0</asrwt>
<pdfrwt beam="1">  1       21 0.91372249E-01 0.19884775E+03</pdfrwt>
<pdfrwt beam="2">  1       21 0.10278081E-01 0.19884775E+03</pdfrwt>
<totfact> 0.78193953E+04</totfact>
</mgrwt>
</event>
<event>
 4    1  0.4025504E+000  0.1782625E+03  0.7546771E-02  0.1169495E+00
         21   -1    0    0  503  502  0.00000000000E+00  0.00000000000E+00  0.86240300898E+02  0.86240300898E+02  0.00000000000E+00 0.  1.
         21   -1    0    0  501  503 -0.00000000000E+00 -0.00000000000E+00 -0.80769692663E+03  0.80769692663E+03  0.00000000000E+00 0.  1.
          6    1    1    2  501    0 -0.29051839134E+02 -0.31693897422E+02 -0.69033358125E+03  0.71297823662E+03  0.17300000000E+03 0.  1.
         -6    1    1    2    0  502  0.29051839134E+02  0.31693897422E+02 -0.31123044474E+02  0.18095899090E+03  0.17300000000E+03 0.  1.
<mgrwt>
<rscale>  2 0.17826248E+03</rscale>
<asrwt>0</asrwt>
<pdfrwt beam="1">  1       21 0.13267739E-01 0.17826248E+03</pdfrwt>
<pdfrwt beam="2">  1       21 0.12426106E+00 0.17826248E+03</pdfrwt>
<totfact> 0.23935412E+04</totfact>
</mgrwt>
</event>
<event>
 4    1  0.4025504E+000  0.2077057E+03  0.7546771E-02  0.1143396E+00
         21   -1    0    0  503  502  0.00000000000E+00  0.00000000000E+00  0.72577579608E+03  0.72577579608E+03  0.00000000000E+00 0.  1.
         21   -1    0    0  501  503 -0.00000000000E+00 -0.00000000000E+00 -0.93580577901E+02  0.93580577901E+02  0.00000000000E+00 0.  1.
          6    1    1    2  501    0  0.89556696945E+00 -0.11494281371E+03  0.68656459470E+02  0.21875868415E+03  0.17300000000E+03 0.  1.
         -6    1    1    2    0  502 -0.89556696945E+00  0.11494281371E+03  0.56353875871E+03  0.60059768984E+03  0.17300000000E+03 0.  1.
<mgrwt>
<rscale>  2 0.20770569E+03</rscale>
<asrwt>0</asrwt>
<pdfrwt beam="1">  1       21 0.11165781E+00 0.20770569E+03</pdfrwt>
<pdfrwt beam="2">  1       21 0.14397012E-01 0.20770569E+03</pdfrwt>
<totfact> 0.26384615E+04</totfact>
</mgrwt>
</event>
<event>
 4    1  0.4025504E+000  0.2302194E+03  0.7546771E-02  0.1126485E+00
         21   -1    0    0  503  502  0.00000000000E+00  0.00000000000E+00  0.36257956475E+03  0.36257956475E+03  0.00000000000E+00 0. -1.
         21   -1    0    0  501  503 -0.00000000000E+00 -0.00000000000E+00 -0.22663571415E+03  0.22663571415E+03  0.00000000000E+00 0. -1.
          6    1    1    2  501    0  0.11368198767E+03  0.10073916519E+03  0.24350745283E+03  0.33510722659E+03  0.17300000000E+03 0. -1.
         -6    1    1    2    0  502 -0.11368198767E+03 -0.10073916519E+03 -0.10756360224E+03  0.25410805231E+03  0.17300000000E+03 0. -1.
<mgrwt>
<rscale>  2 0.23021940E+03</rscale>
<asrwt>0</asrwt>
<pdfrwt beam="1">  1       21 0.55781472E-01 0.23021940E+03</pdfrwt>
<pdfrwt beam="2">  1       21 0.34867033E-01 0.23021940E+03</pdfrwt>
<totfact> 0.23511559E+04</totfact>
</mgrwt>
</event>
<event>
 4    1  0.4025504E+000  0.2549012E+03  0.7546771E-02  0.1110246E+00
         21   -1    0    0  501  502  0.00000000000E+00  0.00000000000E+00  0.78629818645E+03  0.78629818645E+03  0.00000000000E+00 0.  1.
         21   -1    0    0  502  503 -0.00000000000E+00 -0.00000000000E+00 -0.97163847033E+02  0.97163847033E+02  0.00000000000E+00 0.  1.
          6    1    1    2  501    0 -0.18717773121E+03 -0.31825170216E+01  0.51538861488E+03  0.57497830900E+03  0.17300000000E+03 0.  1.
         -6    1    1    2    0  503  0.18717773121E+03  0.31825170216E+01  0.17374572454E+03  0.30848372448E+03  0.17300000000E+03 0.  1.
<mgrwt>
<rscale>  2 0.25490122E+03</rscale>
<asrwt>0</asrwt>
<pdfrwt beam="1">  1       21 0.12096895E+00 0.25490122E+03</pdfrwt>
<pdfrwt beam="2">  1       21 0.14948285E-01 0.25490122E+03</pdfrwt>
<totfact> 0.19716060E+04</totfact>
</mgrwt>
</event>
<event>
 4    1  0.4025504E+000  0.2724511E+03  0.7546771E-02  0.1099885E+00
         21   -1    0    0  503  502  0.00000000000E+00  0.00000000000E+00  0.21579950648E+03  0.21579950648E+03  0.00000000000E+00 0. -1.
         21   -1    0    0  501  503 -0.00000000000E+00 -0.00000000000E+00 -0.34917369482E+03  0.34917369482E+03  0.00000000000E+00 0.  1.
          6    1    1    2  501    0  0.20597732298E+03 -0.43289036574E+02 -0.32217877702E+02  0.27434939386E+03  0.17300000000E+03 0. -1.
         -6    1    1    2    0  502 -0.20597732298E+03  0.43289036574E+02 -0.10115631063E+03  0.29062380744E+03  0.17300000000E+03 0.  1.
<mgrwt>
<rscale>  2 0.27245109E+03</rscale>
<asrwt>0</asrwt>
<pdfrwt beam="1">  1       21 0.33199924E-01 0.27245109E+03</pdfrwt>
<pdfrwt beam="2">  1       21 0.53719030E-01 0.27245109E+03</pdfrwt>
<totfact> 0.27547342E+04</totfact>
</mgrwt>
</event>
<event>
 4    1  0.4025504E+000  0.1877725E+03  0.7546771E-02  0.1160486E+00
         21   -1    0    0  501  502  0.00000000000E+00  0.00000000000E+00  0.34512023190E+03  0.34512023190E+03  0.00000000000E+00 0.  1.
         21   -1    0    0  502  503 -0.00000000000E+00 -0.00000000000E+00 -0.33006500563E+03  0.33006500563E+03  0.00000000000E+00 0.  1.
          6    1    1    2  501    0  0.64269528276E+02  0.34625836054E+02  0.28804983382E+03  0.34384768074E+03  0.17300000000E+03 0.  1.
         -6    1    1    2    0  503 -0.64269528276E+02 -0.34625836054E+02 -0.27299460755E+03  0.33133755678E+03  0.17300000000E+03 0.  1.
<mgrwt>
<rscale>  2 0.18777252E+03</rscale>
<asrwt>0</asrwt>
<pdfrwt beam="1">  1       21 0.53095420E-01 0.18777252E+03</pdfrwt>
<pdfrwt beam="2">  1       21 0.50779232E-01 0.18777252E+03</pdfrwt>
<totfact> 0.12435948E+04</totfact>
</mgrwt>
</event>
<event>
 4    1  0.4025504E+000  0.3018107E+03  0.7546771E-02  0.1084339E+00
         21   -1    0    0  501  502  0.00000000000E+00  0.00000000000E+00  0.12137882732E+04  0.12137882732E+04  0.00000000000E+00 0.  1.
         21   -1    0    0  502  503 -0.00000000000E+00 -0.00000000000E+00 -0.91515788103E+02  0.91515788103E+02  0.00000000000E+00 0.  1.
          6    1    1    2  501    0 -0.23753742448E+03  0.68823353558E+02  0.83800927018E+03  0.89070153190E+03  0.17300000000E+03 0.  1.
         -6    1    1    2    0  503  0.23753742448E+03 -0.68823353558E+02  0.28426321488E+03  0.41460252937E+03  0.17300000000E+03 0.  1.
<mgrwt>
<rscale>  2 0.30181067E+03</rscale>
<asrwt>0</asrwt>
<pdfrwt beam="1">  1       21 0.18673665E+00 0.30181067E+03</pdfrwt>
<pdfrwt beam="2">  1       21 0.14079353E-01 0.30181067E+03</pdfrwt>
<totfact> 0.66851269E+03</totfact>
</mgrwt>
</event>
<event>
 4    1  0.4025504E+000  0.2002419E+03  0.7546771E-02  0.1149535E+00
         21   -1    0    0  503  502  0.00000000000E+00  0.00000000000E+00  0.45621068486E+03  0.45621068486E+03  0.00000000000E+00 0. -1.
         21   -1    0    0  501  503 -0.00000000000E+00 -0.00000000000E+00 -0.11033843488E+03  0.11033843488E+03  0.00000000000E+00 0. -1.
          6    1    1    2  501    0 -0.20562819249E+02  0.98716645288E+02  0.45166480182E+02  0.20527254206E+03  0.17300000000E+03 0. -1.
         -6    1    1    2    0  502  0.20562819249E+02 -0.98716645288E+02  0.30070576980E+03  0.36127657768E+03  0.17300000000E+03 0. -1.
<mgrwt>
<rscale>  2 0.20024187E+03</rscale>
<asrwt>0</asrwt>
<pdfrwt beam="1">  1       21 0.70186258E-01 0.20024187E+03</pdfrwt>
<pdfrwt beam="2">  1       21 0.16975144E-01 0.20024187E+03</pdfrwt>
<totfact> 0.57413291E+04</totfact>
</mgrwt>
</event>
<event>
 4    1  0.4025504E+000  0.2058550E+03  0.7546771E-02  0.1144891E+00
         21   -1    0    0  503  502  0.00000000000E+00  0.00000000000E+00  0.85366572214E+03  0.85366572214E+03  0.00000000000E+00 0.  1.
         21   -1    0    0  501  503 -0.00000000000E+00 -0.00000000000E+00 -0.50607385884E+02  0.50607385884E+02  0.00000000000E+00 0.  1.
          6    1    1    2  501    0 -0.53888534510E+02 -0.97689922677E+02  0.33902973275E+03  0.39663264469E+03  0.17300000000E+03 0.  1.
         -6    1    1    2    0  502  0.53888534510E+02  0.97689922677E+02  0.46402860351E+03  0.50764046334E+03  0.17300000000E+03 0.  1.
<mgrwt>
<rscale>  2 0.20585503E+03</rscale>
<asrwt>0</asrwt>
<pdfrwt beam="1">  1       21 0.13133318E+00 0.20585503E+03</pdfrwt>
<pdfrwt beam="2">  1       21 0.77857523E-02 0.20585503E+03</pdfrwt>
<totfact> 0.52621748E+04</totfact>
</mgrwt>
</event>
<event>
 4    1  0.4025504E+000  0.2261951E+03  0.7546771E-02  0.1129347E+00
         21   -1    0    0  503  502  0.00000000000E+00  0.00000000000E+00  0.47935351569E+02  0.47935351569E+02  0.00000000000E+00 0.  1.
         21   -1    0    0  501  503 -0.00000000000E+00 -0.00000000000E+00 -0.13657228415E+04  0.13657228415E+04  0.00000000000E+00 0. -1.
          6    1    1    2  501    0 -0.56797569158E+02  0.13419859262E+03 -0.98926805550E+03  0.10147982616E+04  0.17300000000E+03 0. -1.
         -6    1    1    2    0  502  0.56797569158E+02 -0.13419859262E+03 -0.32851943439E+03  0.39885993142E+03  0.17300000000E+03 0.  1.
<mgrwt>
<rscale>  2 0.22619511E+03</rscale>
<asrwt>0</asrwt>
<pdfrwt beam="1">  1       21 0.73746695E-02 0.22619511E+03</pdfrwt>
<pdfrwt beam="2">  1       21 0.21011121E+00 0.22619511E+03</pdfrwt>
<totfact> 0.15605034E+04</totfact>
</mgrwt>
</event>
<event>
 4    1  0.4025504E+000  0.2476805E+03  0.7546771E-02  0.1114780E+00
         21   -1    0    0  501  502  0.00000000000E+00  0.00000000000E+00  0.22799747752E+03  0.22799747752E+03  0.00000000000E+00 0. -1.
         21   -1    0    0  502  503 -0.00000000000E+00 -0.00000000000E+00 -0.26908334449E+03  0.26908334449E+03  0.00000000000E+00 0. -1.
          6    1    1    2  501    0 -0.87708722043E+02 -0.15402536497E+03 -0.18369669784E+02  0.24836078141E+03  0.17300000000E+03 0. -1.
         -6    1    1    2    0  503  0.87708722043E+02  0.15402536497E+03 -0.22716197185E+02  0.24872004059E+03  0.17300000000E+03 0. -1.
<mgrwt>
<rscale>  2 0.24768051E+03</rscale>
<asrwt>0</asrwt>
<pdfrwt beam="1">  1       21 0.35076535E-01 0.24768051E+03</pdfrwt>
<pdfrwt beam="2">  1       21 0.41397437E-01 0.24768051E+03</pdfrwt>
<totfact> 0.42918738E+04</totfact>
</mgrwt>
</event>
<event>
 4    1  0.4025504E+000  0.2164664E+03  0.7546771E-02  0.1136545E+00
         21   -1    0    0  503  502  0.00000000000E+00  0.00000000000E+00  0.48761157005E+03  0.48761157005E+03  0.00000000000E+00 0. -1.
         21   -1    0    0  501  503 -0.00000000000E+00 -0.00000000000E+00 -0.11498601337E+03  0.11498601337E+03  0.00000000000E+00 0. -1.
          6    1    1    2  501    0  0.10359298442E+03  0.78722180589E+02  0.64192697190E+02  0.22578394653E+03  0.17300000000E+03 0. -1.
         -6    1    1    2    0  502 -0.10359298442E+03 -0.78722180589E+02  0.30843285949E+03  0.37681363690E+03  0.17300000000E+03 0. -1.
<mgrwt>
<rscale>  2 0.21646637E+03</rscale>
<asrwt>0</asrwt>
<pdfrwt beam="1">  1       21 0.75017163E-01 0.21646637E+03</pdfrwt>
<pdfrwt beam="2">  1       21 0.17690156E-01 0.21646637E+03</pdfrwt>
<totfact> 0.45527711E+04</totfact>
</mgrwt>
</event>
<event>
 4    1  0.4025504E+000  0.1797115E+03  0.7546771E-02  0.1168083E+00
         21   -1    0    0  501  502  0.00000000000E+00  0.00000000000E+00  0.22252418771E+03  0.22252418771E+03  0.00000000000E+00 0.  1.
         21   -1    0    0  502  503 -0.00000000000E+00 -0.00000000000E+00 -0.41171014793E+03  0.41171014793E+03  0.00000000000E+00 0.  1.
          6    1    1    2  501    0 -0.18406638330E+02  0.45037950164E+02  0.16057910552E+03  0.24100180584E+03  0.17300000000E+03 0.  1.
         -6    1    1    2    0  503  0.18406638330E+02 -0.45037950164E+02 -0.34976506573E+03  0.39323252980E+03  0.17300000000E+03 0.  1.
<mgrwt>
<rscale>  2 0.17971149E+03</rscale>
<asrwt>0</asrwt>
<pdfrwt beam="1">  1       21 0.34234491E-01 0.17971149E+03</pdfrwt>
<pdfrwt beam="2">  1       21 0.63340022E-01 0.17971149E+03</pdfrwt>
<totfact> 0.19104449E+04</totfact>
</mgrwt>
</event>
<event>
 4    1  0.4025504E+000  0.1993075E+03  0.7546771E-02  0.1150325E+00
         21   -1    0    0  501  502  0.00000000000E+00  0.00000000000E+00  0.80193691967E+02  0.80193691967E+02  0.00000000000E+00 0. -1.
         21   -1    0    0  502  503 -0.00000000000E+00 -0.00000000000E+00 -0.51367096977E+03  0.51367096977E+03  0.00000000000E+00 0. -1.
          6    1    1    2  501    0  0.78207421003E+02  0.60647320931E+02 -0.16065253498E+03  0.25599362342E+03  0.17300000000E+03 0. -1.
         -6    1    1    2    0  503 -0.78207421003E+02 -0.60647320931E+02 -0.27282474283E+03  0.33787103832E+03  0.17300000000E+03 0. -1.
<mgrwt>
<rscale>  2 0.19930755E+03</rscale>
<asrwt>0</asrwt>
<pdfrwt beam="1">  1       21 0.12337491E-01 0.19930755E+03</pdfrwt>
<pdfrwt beam="2">  1       21 0.79026306E-01 0.19930755E+03</pdfrwt>
<totfact> 0.78716591E+04</totfact>
</mgrwt>
</event>
<event>
 4    1  0.4025504E+000  0.1821541E+03  0.7546771E-02  0.1165734E+00
         21   -1    0    0  501  502  0.00000000000E+00  0.00000000000E+00  0.11207053873E+03  0.11207053873E+03  0.00000000000E+00 0.  1.
         21   -1    0    0  502  503 -0.00000000000E+00 -0.00000000000E+00 -0.47600283137E+03  0.47600283137E+03  0.00000000000E+00 0.  1.
          6    1    1    2  501    0 -0.36318929024E+02  0.43955005162E+02 -0.11827236825E+01  0.18215791479E+03  0.17300000000E+03 0.  1.
         -6    1    1    2    0  503  0.36318929024E+02 -0.43955005162E+02 -0.36274956895E+03  0.40591545531E+03  0.17300000000E+03 0.  1.
<mgrwt>
<rscale>  2 0.18215408E+03</rscale>
<asrwt>0</asrwt>
<pdfrwt beam="1">  1       21 0.17241621E-01 0.18215408E+03</pdfrwt>
<pdfrwt beam="2">  1       21 0.73231206E-01 0.18215408E+03</pdfrwt>
<totfact> 0.51222927E+04</totfact>
</mgrwt>
</event>
<event>
 4    1  0.4025504E+000  0.2066679E+03  0.7546771E-02  0.1144232E+00
         21   -1    0    0  501  502  0.00000000000E+00  0.00000000000E+00  0.39301219400E+03  0.39301219400E+03  0.00000000000E+00 0. -1.
         21   -1    0    0  502  503 -0.00000000000E+00 -0.00000000000E+00 -0.20737782484E+03  0.20737782484E+03  0.00000000000E+00 0. -1.
          6    1    1    2  501    0  0.41421999880E+02  0.10519911426E+03  0.29991775969E+03  0.36422836009E+03  0.17300000000E+03 0. -1.
         -6    1    1    2    0  503 -0.41421999880E+02 -0.10519911426E+03 -0.11428339054E+03  0.23616165876E+03  0.17300000000E+03 0. -1.
<mgrwt>
<rscale>  2 0.20666794E+03</rscale>
<asrwt>0</asrwt>
<pdfrwt beam="1">  1       21 0.60463414E-01 0.20666794E+03</pdfrwt>
<pdfrwt beam="2">  1       21 0.31904281E-01 0.20666794E+03</pdfrwt>
<totfact> 0.23885207E+04</totfact>
</mgrwt>
</event>
<event>
 4    1  0.4025504E+000  0.2660623E+03  0.7546771E-02  0.1103555E+00
         21   -1    0    0  503  502  0.00000000000E+00  0.00000000000E+00  0.49165345731E+03  0.49165345731E+03  0.00000000000E+00 0. -1.
         21   -1    0    0  501  503 -0.00000000000E+00 -0.00000000000E+00 -0.14840698629E+03  0.14840698629E+03  0.00000000000E+00 0. -1.
          6    1    1    2  501    0  0.12504886108E+03 -0.15881732131E+03  0.11636097374E+03  0.29039462016E+03  0.17300000000E+03 0. -1.
         -6    1    1    2    0  502 -0.12504886108E+03  0.15881732131E+03  0.22688549728E+03  0.34966582344E+03  0.17300000000E+03 0. -1.
<mgrwt>
<rscale>  2 0.26606232E+03</rscale>
<asrwt>0</asrwt>
<pdfrwt beam="1">  1       21 0.75638993E-01 0.26606232E+03</pdfrwt>
<pdfrwt beam="2">  1       21 0.22831844E-01 0.26606232E+03</pdfrwt>
<totfact> 0.27061395E+04</totfact>
</mgrwt>
</event>
<event>
 4    1  0.4025504E+000  0.1918455E+03  0.7546771E-02  0.1156807E+00
         21   -1    0    0  501  502  0.00000000000E+00  0.00000000000E+00  0.11565096003E+04  0.11565096003E+04  0.00000000000E+00 0. -1.
         21   -1    0    0  502  503 -0.00000000000E+00 -0.00000000000E+00 -0.69871950088E+02  0.69871950088E+02  0.00000000000E+00 0. -1.
          6    1    1    2  501    0 -0.49542842986E+02 -0.66492214451E+02  0.99580996200E+03  0.10141213874E+04  0.17300000000E+03 0. -1.
         -6    1    1    2    0  503  0.49542842986E+02  0.66492214451E+02  0.90827688249E+02  0.21226016307E+03  0.17300000000E+03 0. -1.
<mgrwt>
<rscale>  2 0.19184553E+03</rscale>
<asrwt>0</asrwt>
<pdfrwt beam="1">  1       21 0.17792454E+00 0.19184553E+03</pdfrwt>
<pdfrwt beam="2">  1       21 0.10749532E-01 0.19184553E+03</pdfrwt>
<totfact> 0.13430904E+04</totfact>
</mgrwt>
</event>
<event>
 4    1  0.4025504E+000  0.2095396E+03  0.7546771E-02  0.1141931E+00
         21   -1    0    0  501  502  0.00000000000E+00  0.00000000000E+00  0.42464287915E+03  0.42464287915E+03  0.00000000000E+00 0. -1.
         21   -1    0    0  502  503 -0.00000000000E+00 -0.00000000000E+00 -0.23637886073E+03  0.23637886073E+03  0.00000000000E+00 0.  1.
          6    1    1    2  501    0 -0.49607198942E+02 -0.10731717267E+03  0.34203253066E+03  0.40111482367E+03  0.17300000000E+03 0. -1.
         -6    1    1    2    0  503  0.49607198942E+02  0.10731717267E+03 -0.15376851223E+03  0.25990691621E+03  0.17300000000E+03 0.  1.
<mgrwt>
<rscale>  2 0.20953961E+03</rscale>
<asrwt>0</asrwt>
<pdfrwt beam="1">  1       21 0.65329674E-01 0.20953961E+03</pdfrwt>
<pdfrwt beam="2">  1       21 0.36365979E-01 0.20953961E+03</pdfrwt>
<totfact> 0.15553423E+04</totfact>
</mgrwt>
</event>
<event>
 4    1  0.4025504E+000  0.2078798E+03  0.7546771E-02  0.1143256E+00
         21   -1    0    0  503  502  0.00000000000E+00  0.00000000000E+00  0.67539260965E+03  0.67539260965E+03  0.00000000000E+00 0. -1.
         21   -1    0    0  501  503 -0.00000000000E+00 -0.00000000000E+00 -0.42585275067E+03  0.42585275067E+03  0.00000000000E+00 0. -1.
          6    1    1    2  501    0  0.79896256250E+02 -0.83075932044E+02 -0.38280501214E+03  0.43560727676E+03  0.17300000000E+03 0. -1.
         -6    1    1    2    0  502 -0.79896256250E+02  0.83075932044E+02  0.63234487112E+03  0.66563808355E+03  0.17300000000E+03 0. -1.
<mgrwt>
<rscale>  2 0.20787983E+03</rscale>
<asrwt>0</asrwt>
<pdfrwt beam="1">  1       21 0.10390656E+00 0.20787983E+03</pdfrwt>
<pdfrwt beam="2">  1       21 0.65515808E-01 0.20787983E+03</pdfrwt>
<totfact> 0.15824347E+03</totfact>
</mgrwt>
</event>
<event>
 4    1  0.4025504E+000  0.2210460E+03  0.7546771E-02  0.1133106E+00
         21   -1    0    0  501  502  0.00000000000E+00  0.00000000000E+00  0.27907412226E+04  0.27907412226E+04  0.00000000000E+00 0. -1.
         21   -1    0    0  502  503 -0.00000000000E+00 -0.00000000000E+00 -0.19200701800E+02  0.19200701800E+02  0.00000000000E+00 0. -1.
          6    1    1    2  501    0  0.95148536445E+02  0.99393578434E+02  0.18028812848E+04  0.18163816379E+04  0.17300000000E+03 0. -1.
         -6    1    1    2    0  503 -0.95148536445E+02 -0.99393578434E+02  0.96865923602E+03  0.99356028652E+03  0.17300000000E+03 0. -1.
<mgrwt>
<rscale>  2 0.22104598E+03</rscale>
<asrwt>0</asrwt>
<pdfrwt beam="1">  1       21 0.42934448E+00 0.22104598E+03</pdfrwt>
<pdfrwt beam="2">  1       21 0.29539563E-02 0.22104598E+03</pdfrwt>
<totfact> 0.35483184E+03</totfact>
</mgrwt>
</event>
<event>
 4    1  0.4025504E+000  0.1746333E+03  0.7546771E-02  0.1173100E+00
         21   -1    0    0  501  502  0.00000000000E+00  0.00000000000E+00  0.34855301516E+03  0.34855301516E+03  0.00000000000E+00 0. -1.
         21   -1    0    0  502  503 -0.00000000000E+00 -0.00000000000E+00 -0.11699908271E+03  0.11699908271E+03  0.00000000000E+00 0. -1.
          6    1    1    2  501    0  0.60285829825E+01  0.23053018163E+02 -0.11151386017E+01  0.17463684890E+03  0.17300000000E+03 0.  1.
         -6    1    1    2    0  503 -0.60285829825E+01 -0.23053018163E+02  0.23266907105E+03  0.29091524897E+03  0.17300000000E+03 0.  1.
<mgrwt>
<rscale>  2 0.17463329E+03</rscale>
<asrwt>0</asrwt>
<pdfrwt beam="1">  1       21 0.53623540E-01 0.17463329E+03</pdfrwt>
<pdfrwt beam="2">  1       21 0.17999859E-01 0.17463329E+03</pdfrwt>
<totfact> 0.93046679E+04</totfact>
</mgrwt>
</event>
<event>
 4    1  0.4025504E+000  0.1953454E+03  0.7546771E-02  0.1153727E+00
         21   -1    0    0  503  502  0.00000000000E+00  0.00000000000E+00  0.91823957959E+03  0.91823957959E+03  0.00000000000E+00 0.  1.
         21   -1    0    0  501  503 -0.00000000000E+00 -0.00000000000E+00 -0.53388168367E+02  0.53388168367E+02  0.00000000000E+00 0. -1.
          6    1    1    2  501    0 -0.27117460701E+02 -0.86576412329E+02  0.20373409478E+03  0.28225416422E+03  0.17300000000E+03 0. -1.
         -6    1    1    2    0  502  0.27117460701E+02  0.86576412329E+02  0.66111731644E+03  0.68937358373E+03  0.17300000000E+03 0.  1.
<mgrwt>
<rscale>  2 0.19534542E+03</rscale>
<asrwt>0</asrwt>
<pdfrwt beam="1">  1       21 0.14126762E+00 0.19534542E+03</pdfrwt>
<pdfrwt beam="2">  1       21 0.82135650E-02 0.19534542E+03</pdfrwt>
<totfact> 0.40006585E+04</totfact>
</mgrwt>
</event>
<event>
 4    1  0.4025504E+000  0.2114481E+03  0.7546771E-02  0.1140424E+00
         21   -1    0    0  501  502  0.00000000000E+00  0.00000000000E+00  0.67822560428E+02  0.67822560428E+02  0.00000000000E+00 0.  1.
         21   -1    0    0  502  503 -0.00000000000E+00 -0.00000000000E+00 -0.71196945619E+03  0.71196945619E+03  0.00000000000E+00 0.  1.
          6    1    1    2  501    0  0.11876696113E+03 -0.25994218242E+02 -0.42819626269E+03  0.47755871871E+03  0.17300000000E+03 0.  1.
         -6    1    1    2    0  503 -0.11876696113E+03  0.25994218242E+02 -0.21595063308E+03  0.30223329791E+03  0.17300000000E+03 0.  1.
<mgrwt>
<rscale>  2 0.21144808E+03</rscale>
<asrwt>0</asrwt>
<pdfrwt beam="1">  1       21 0.10434240E-01 0.21144808E+03</pdfrwt>
<pdfrwt beam="2">  1       21 0.10953377E+00 0.21144808E+03</pdfrwt>
<totfact> 0.49184578E+04</totfact>
</mgrwt>
</event>
<event>
 4    1  0.4025504E+000  0.3192730E+03  0.7546771E-02  0.1075984E+00
         21   -1    0    0  503  502  0.00000000000E+00  0.00000000000E+00  0.33702217126E+03  0.33702217126E+03  0.00000000000E+00 0. -1.
         21   -1    0    0  501  503 -0.00000000000E+00 -0.00000000000E+00 -0.31553421065E+03  0.31553421065E+03  0.00000000000E+00 0.  1.
          6    1    1    2  501    0  0.22467465080E+03  0.14672272153E+03  0.77163499692E+02  0.32846531234E+03  0.17300000000E+03 0. -1.
         -6    1    1    2    0  502 -0.22467465080E+03 -0.14672272153E+03 -0.55675539079E+02  0.32409106957E+03  0.17300000000E+03 0.  1.
<mgrwt>
<rscale>  2 0.31927301E+03</rscale>
<asrwt>0</asrwt>
<pdfrwt beam="1">  1       21 0.51849564E-01 0.31927301E+03</pdfrwt>
<pdfrwt beam="2">  1       21 0.48543725E-01 0.31927301E+03</pdfrwt>
<totfact> 0.13409795E+04</totfact>
</mgrwt>
</event>
<event>
 4    1  0.4025504E+000  0.1776300E+03  0.7546771E-02  0.1170117E+00
         21   -1    0    0  503  502  0.00000000000E+00  0.00000000000E+00  0.33692015681E+03  0.33692015681E+03  0.00000000000E+00 0. -1.
         21   -1    0    0  501  503 -0.00000000000E+00 -0.00000000000E+00 -0.12207051808E+03  0.12207051808E+03  0.00000000000E+00 0. -1.
          6    1    1    2  501    0 -0.33325633215E+02 -0.22645397969E+02 -0.33109977388E+01  0.17766084145E+03  0.17300000000E+03 0. -1.
         -6    1    1    2    0  502  0.33325633215E+02  0.22645397969E+02  0.21816063647E+03  0.28132983344E+03  0.17300000000E+03 0. -1.
<mgrwt>
<rscale>  2 0.17762999E+03</rscale>
<asrwt>0</asrwt>
<pdfrwt beam="1">  1       21 0.51833870E-01 0.17762999E+03</pdfrwt>
<pdfrwt beam="2">  1       21 0.18780080E-01 0.17762999E+03</pdfrwt>
<totfact> 0.92261940E+04</totfact>
</mgrwt>
</event>
<event>
 4    1  0.4025504E+000  0.1975459E+03  0.7546771E-02  0.1151826E+00
         21   -1    0    0  501  502  0.00000000000E+00  0.00000000000E+00  0.36381182593E+02  0.36381182593E+02  0.00000000000E+00 0.  1.
         21   -1    0    0  502  503 -0.00000000000E+00 -0.00000000000E+00 -0.10825627935E+04  0.10825627935E+04  0.00000000000E+00 0.  1.
          6    1    1    2  501    0 -0.31702944762E+02 -0.89946204874E+02 -0.57661830760E+03  0.60951871926E+03  0.17300000000E+03 0.  1.
         -6    1    1    2    0  503  0.31702944762E+02  0.89946204874E+02 -0.46956330329E+03  0.50942525681E+03  0.17300000000E+03 0.  1.
<mgrwt>
<rscale>  2 0.19754594E+03</rscale>
<asrwt>0</asrwt>
<pdfrwt beam="1">  1       21 0.55971052E-02 0.19754594E+03</pdfrwt>
<pdfrwt beam="2">  1       21 0.16654812E+00 0.19754594E+03</pdfrwt>
<totfact> 0.49974813E+04</totfact>
</mgrwt>
</event>
<event>
 4    1  0.4025504E+000  0.2084623E+03  0.7546771E-02  0.1142790E+00
         21   -1    0    0  503  502  0.00000000000E+00  0.00000000000E+00  0.68798256458E+02  0.68798256458E+02  0.00000000000E+00 0.  1.
         21   -1    0    0  501  503 -0.00000000000E+00 -0.00000000000E+00 -0.82771210958E+03  0.82771210958E+03  0.00000000000E+00 0.  1.
          6    1    1    2  501    0  0.10161695167E+03 -0.56581936206E+02 -0.59761980953E+03  0.63293440190E+03  0.17300000000E+03 0.  1.
         -6    1    1    2    0  502 -0.10161695167E+03  0.56581936206E+02 -0.16129404359E+03  0.26357596414E+03  0.17300000000E+03 0.  1.
<mgrwt>
<rscale>  2 0.20846228E+03</rscale>
<asrwt>0</asrwt>
<pdfrwt beam="1">  1       21 0.10584347E-01 0.20846228E+03</pdfrwt>
<pdfrwt beam="2">  1       21 0.12734032E+00 0.20846228E+03</pdfrwt>
<totfact> 0.33109309E+04</totfact>
</mgrwt>
</event>
<event>
 4    1  0.4025504E+000  0.3349403E+03  0.7546771E-02  0.1068972E+00
         21   -1    0    0  501  502  0.00000000000E+00  0.00000000000E+00  0.11541183339E+04  0.11541183339E+04  0.00000000000E+00 0.  1.
         21   -1    0    0  502  503 -0.00000000000E+00 -0.00000000000E+00 -0.18771170432E+03  0.18771170432E+03  0.00000000000E+00 0. -1.
          6    1    1    2  501    0  0.16622268019E+03  0.23372205767E+03  0.94907303657E+03  0.10064415574E+04  0.17300000000E+03 0.  1.
         -6    1    1    2    0  503 -0.16622268019E+03 -0.23372205767E+03  0.17333593031E+02  0.33538848087E+03  0.17300000000E+03 0. -1.
<mgrwt>
<rscale>  2 0.33494026E+03</rscale>
<asrwt>0</asrwt>
<pdfrwt beam="1">  1       21 0.17755666E+00 0.33494026E+03</pdfrwt>
<pdfrwt beam="2">  1       21 0.28878724E-01 0.33494026E+03</pdfrwt>
<totfact> 0.19488588E+03</totfact>
</mgrwt>
</event>
<event>
 4    1  0.4025504E+000  0.1884843E+03  0.7546771E-02  0.1159836E+00
         21   -1    0    0  501  502  0.00000000000E+00  0.00000000000E+00  0.67131812511E+03  0.67131812511E+03  0.00000000000E+00 0.  1.
         21   -1    0    0  502  503 -0.00000000000E+00 -0.00000000000E+00 -0.60931165184E+02  0.60931165184E+02  0.00000000000E+00 0. -1.
          6    1    1    2  501    0  0.45421928540E+01 -0.74677367190E+02  0.17243888095E+03  0.25546332095E+03  0.17300000000E+03 0. -1.
         -6    1    1    2    0  503 -0.45421928540E+01  0.74677367190E+02  0.43794807898E+03  0.47678596935E+03  0.17300000000E+03 0.  1.
<mgrwt>
<rscale>  2 0.18848432E+03</rscale>
<asrwt>0</asrwt>
<pdfrwt beam="1">  1       21 0.10327971E+00 0.18848432E+03</pdfrwt>
<pdfrwt beam="2">  1       21 0.93740259E-02 0.18848432E+03</pdfrwt>
<totfact> 0.69258215E+04</totfact>
</mgrwt>
</event>
<event>
 4    1  0.4025504E+000  0.1909611E+03  0.7546771E-02  0.1157597E+00
         21   -1    0    0  501  502  0.00000000000E+00  0.00000000000E+00  0.52031916865E+02  0.52031916865E+02  0.00000000000E+00 0. -1.
         21   -1    0    0  502  503 -0.00000000000E+00 -0.00000000000E+00 -0.70179139099E+03  0.70179139099E+03  0.00000000000E+00 0. -1.
          6    1    1    2  501    0 -0.19754047065E+02 -0.78402213633E+02 -0.31101345384E+03  0.36495958399E+03  0.17300000000E+03 0. -1.
         -6    1    1    2    0  503  0.19754047065E+02  0.78402213633E+02 -0.33874602028E+03  0.38886372386E+03  0.17300000000E+03 0. -1.
<mgrwt>
<rscale>  2 0.19096107E+03</rscale>
<asrwt>0</asrwt>
<pdfrwt beam="1">  1       21 0.80049103E-02 0.19096107E+03</pdfrwt>
<pdfrwt beam="2">  1       21 0.10796791E+00 0.19096107E+03</pdfrwt>
<totfact> 0.81962269E+04</totfact>
</mgrwt>
</event>
<event>
 4    1  0.4025504E+000  0.2026193E+03  0.7546771E-02  0.1147548E+00
         21   -1    0    0  501  502  0.00000000000E+00  0.00000000000E+00  0.88527995877E+03  0.88527995877E+03  0.00000000000E+00 0.  1.
         21   -1    0    0  502  503 -0.00000000000E+00 -0.00000000000E+00 -0.58398291379E+02  0.58398291379E+02  0.00000000000E+00 0.  1.
          6    1    1    2  501    0 -0.23692944435E+02 -0.10278249900E+03  0.62753797940E+03  0.65943802840E+03  0.17300000000E+03 0.  1.
         -6    1    1    2    0  503  0.23692944435E+02  0.10278249900E+03  0.19934368799E+03  0.28424022175E+03  0.17300000000E+03 0.  1.
<mgrwt>
<rscale>  2 0.20261934E+03</rscale>
<asrwt>0</asrwt>
<pdfrwt beam="1">  1       21 0.13619691E+00 0.20261934E+03</pdfrwt>
<pdfrwt beam="2">  1       21 0.89843532E-02 0.20261934E+03</pdfrwt>
<totfact> 0.37416735E+04</totfact>
</mgrwt>
</event>
<event>
 4    1  0.4025504E+000  0.1960774E+03  0.7546771E-02  0.1153091E+00
         21   -1    0    0  501  502  0.00000000000E+00  0.00000000000E+00  0.15850167457E+03  0.15850167457E+03  0.00000000000E+00 0.  1.
         21   -1    0    0  502  503 -0.00000000000E+00 -0.00000000000E+00 -0.32205049530E+03  0.32205049530E+03  0.00000000000E+00 0.  1.
          6    1    1    2  501    0  0.82270516807E+02  0.41820089405E+02  0.37597696761E+02  0.19964955451E+03  0.17300000000E+03 0.  1.
         -6    1    1    2    0  503 -0.82270516807E+02 -0.41820089405E+02 -0.20114651749E+03  0.28090261536E+03  0.17300000000E+03 0.  1.
<mgrwt>
<rscale>  2 0.19607743E+03</rscale>
<asrwt>0</asrwt>
<pdfrwt beam="1">  1       21 0.24384873E-01 0.19607743E+03</pdfrwt>
<pdfrwt beam="2">  1       21 0.49546230E-01 0.19607743E+03</pdfrwt>
<totfact> 0.61588103E+04</totfact>
</mgrwt>
</event>
<event>
 4    1  0.4025504E+000  0.2693526E+03  0.7546771E-02  0.1101651E+00
         21   -1    0    0  503  502  0.00000000000E+00  0.00000000000E+00  0.16686573695E+03  0.16686573695E+03  0.00000000000E+00 0. -1.
         21   -1    0    0  501  503 -0.00000000000E+00 -0.00000000000E+00 -0.67087969744E+03  0.67087969744E+03  0.00000000000E+00 0.  1.
          6    1    1    2  501    0 -0.12300244369E+03 -0.16580785686E+03 -0.50049311773E+03  0.56836978055E+03  0.17300000000E+03 0.  1.
         -6    1    1    2    0  502  0.12300244369E+03  0.16580785686E+03 -0.35208427650E+01  0.26937565385E+03  0.17300000000E+03 0. -1.
<mgrwt>
<rscale>  2 0.26935264E+03</rscale>
<asrwt>0</asrwt>
<pdfrwt beam="1">  1       21 0.25671651E-01 0.26935264E+03</pdfrwt>
<pdfrwt beam="2">  1       21 0.10321226E+00 0.26935264E+03</pdfrwt>
<totfact> 0.10460694E+04</totfact>
</mgrwt>
</event>
<event>
 4    1  0.4025504E+000  0.1959027E+03  0.7546771E-02  0.1153243E+00
         21   -1    0    0  503  502  0.00000000000E+00  0.00000000000E+00  0.16501433761E+03  0.16501433761E+03  0.00000000000E+00 0.  1.
         21   -1    0    0  501  503 -0.00000000000E+00 -0.00000000000E+00 -0.23644477535E+03  0.23644477535E+03  0.00000000000E+00 0.  1.
          6    1    1    2  501    0  0.25251300594E+01 -0.91882983087E+02 -0.61401933867E+02  0.20529991804E+03  0.17300000000E+03 0.  1.
         -6    1    1    2    0  502 -0.25251300594E+01  0.91882983087E+02 -0.10028503878E+02  0.19615919492E+03  0.17300000000E+03 0.  1.
<mgrwt>
<rscale>  2 0.19590268E+03</rscale>
<asrwt>0</asrwt>
<pdfrwt beam="1">  1       21 0.25386821E-01 0.19590268E+03</pdfrwt>
<pdfrwt beam="2">  1       21 0.36376119E-01 0.19590268E+03</pdfrwt>
<totfact> 0.10706743E+05</totfact>
</mgrwt>
</event>
<event>
 4    1  0.4025504E+000  0.1975168E+03  0.7546771E-02  0.1151851E+00
         21   -1    0    0  503  502  0.00000000000E+00  0.00000000000E+00  0.98151879937E+02  0.98151879937E+02  0.00000000000E+00 0.  1.
         21   -1    0    0  501  503 -0.00000000000E+00 -0.00000000000E+00 -0.66212942551E+03  0.66212942551E+03  0.00000000000E+00 0.  1.
          6    1    1    2  501    0  0.41030719587E+02 -0.86025468769E+02 -0.41656221797E+02  0.20186169038E+03  0.17300000000E+03 0.  1.
         -6    1    1    2    0  502 -0.41030719587E+02  0.86025468769E+02 -0.52232132378E+03  0.55841961507E+03  0.17300000000E+03 0.  1.
<mgrwt>
<rscale>  2 0.19751684E+03</rscale>
<asrwt>0</asrwt>
<pdfrwt beam="1">  1       21 0.15100289E-01 0.19751684E+03</pdfrwt>
<pdfrwt beam="2">  1       21 0.10186607E+00 0.19751684E+03</pdfrwt>
<totfact> 0.30360887E+04</totfact>
</mgrwt>
</event>
<event>
 4    1  0.4025504E+000  0.1736290E+03  0.7546771E-02  0.1174115E+00
         21   -1    0    0  501  502  0.00000000000E+00  0.00000000000E+00  0.72268187874E+03  0.72268187874E+03  0.00000000000E+00 0. -1.
         21   -1    0    0  502  503 -0.00000000000E+00 -0.00000000000E+00 -0.51578727172E+02  0.51578727172E+02  0.00000000000E+00 0. -1.
          6    1    1    2  501    0  0.67962290672E+01  0.13109399056E+02  0.16626165724E+03  0.24039547363E+03  0.17300000000E+03 0. -1.
         -6    1    1    2    0  503 -0.67962290672E+01 -0.13109399056E+02  0.50484149433E+03  0.53386513229E+03  0.17300000000E+03 0. -1.
<mgrwt>
<rscale>  2 0.17362904E+03</rscale>
<asrwt>0</asrwt>
<pdfrwt beam="1">  1       21 0.11118182E+00 0.17362904E+03</pdfrwt>
<pdfrwt beam="2">  1       21 0.79351893E-02 0.17362904E+03</pdfrwt>
<totfact> 0.78140560E+04</totfact>
</mgrwt>
</event>
<event>
 4    1  0.4025504E+000  0.1792661E+03  0.7546771E-02  0.1168515E+00
         21   -1    0    0  503  502  0.00000000000E+00  0.00000000000E+00  0.37682189809E+03  0.37682189809E+03  0.00000000000E+00 0. -1.
         21   -1    0    0  501  503 -0.00000000000E+00 -0.00000000000E+00 -0.21759163853E+03  0.21759163853E+03  0.00000000000E+00 0. -1.
          6    1    1    2  501    0 -0.46944673279E+02 -0.18805726848E+01 -0.15214162688E+03  0.23512425126E+03  0.17300000000E+03 0.  1.
         -6    1    1    2    0  502  0.46944673279E+02  0.18805726848E+01  0.31137188644E+03  0.35928928535E+03  0.17300000000E+03 0.  1.
<mgrwt>
<rscale>  2 0.17926611E+03</rscale>
<asrwt>0</asrwt>
<pdfrwt beam="1">  1       21 0.57972600E-01 0.17926611E+03</pdfrwt>
<pdfrwt beam="2">  1       21 0.33475637E-01 0.17926611E+03</pdfrwt>
<totfact> 0.24155529E+04</totfact>
</mgrwt>
</event>
<event>
 4    1  0.4025504E+000  0.2207815E+03  0.7546771E-02  0.1133302E+00
         21   -1    0    0  501  502  0.00000000000E+00  0.00000000000E+00  0.12698804160E+03  0.12698804160E+03  0.00000000000E+00 0. -1.
         21   -1    0    0  502  503 -0.00000000000E+00 -0.00000000000E+00 -0.69035012350E+03  0.69035012350E+03  0.00000000000E+00 0. -1.
          6    1    1    2  501    0 -0.11115585327E+03 -0.80373308245E+02 -0.93785172566E+01  0.22098065296E+03  0.17300000000E+03 0. -1.
         -6    1    1    2    0  503  0.11115585327E+03  0.80373308245E+02 -0.55398356465E+03  0.59635751215E+03  0.17300000000E+03 0. -1.
<mgrwt>
<rscale>  2 0.22078155E+03</rscale>
<asrwt>0</asrwt>
<pdfrwt beam="1">  1       21 0.19536622E-01 0.22078155E+03</pdfrwt>
<pdfrwt beam="2">  1       21 0.10620771E+00 0.22078155E+03</pdfrwt>
<totfact> 0.16842035E+04</totfact>
</mgrwt>
</event>
<event>
 4    1  0.4025504E+000  0.2354876E+03  0.7546771E-02  0.1122836E+00
         21   -1    0    0  503  502  0.00000000000E+00  0.00000000000E+00  0.49604374013E+03  0.49604374013E+03  0.00000000000E+00 0.  1.
         21   -1    0    0  501  503 -0.00000000000E+00 -0.00000000000E+00 -0.16056442896E+03  0.16056442896E+03  0.00000000000E+00 0.  1.
          6    1    1    2  501    0 -0.11397162572E+03  0.11196375172E+03 -0.13199518388E+02  0.23585724592E+03  0.17300000000E+03 0.  1.
         -6    1    1    2    0  502  0.11397162572E+03 -0.11196375172E+03  0.34867882955E+03  0.42075092317E+03  0.17300000000E+03 0.  1.
<mgrwt>
<rscale>  2 0.23548761E+03</rscale>
<asrwt>0</asrwt>
<pdfrwt beam="1">  1       21 0.76314421E-01 0.23548761E+03</pdfrwt>
<pdfrwt beam="2">  1       21 0.24702220E-01 0.23548761E+03</pdfrwt>
<totfact> 0.23145024E+04</totfact>
</mgrwt>
</event>
<event>
 4    1  0.4025504E+000  0.1775092E+03  0.7546771E-02  0.1170236E+00
         21   -1    0    0  503  502  0.00000000000E+00  0.00000000000E+00  0.10340232092E+03  0.10340232092E+03  0.00000000000E+00 0.  1.
         21   -1    0    0  501  503 -0.00000000000E+00 -0.00000000000E+00 -0.10037202481E+04  0.10037202481E+04  0.00000000000E+00 0.  1.
          6    1    1    2  501    0 -0.11075442712E+02  0.38181679192E+02 -0.91210981829E+03  0.92922216217E+03  0.17300000000E+03 0.  1.
         -6    1    1    2    0  502  0.11075442712E+02 -0.38181679192E+02  0.11791891117E+02  0.17790040684E+03  0.17300000000E+03 0.  1.
<mgrwt>
<rscale>  2 0.17750917E+03</rscale>
<asrwt>0</asrwt>
<pdfrwt beam="1">  1       21 0.15908049E-01 0.17750917E+03</pdfrwt>
<pdfrwt beam="2">  1       21 0.15441850E+00 0.17750917E+03</pdfrwt>
<totfact> 0.98707777E+03</totfact>
</mgrwt>
</event>
<event>
 4    1  0.4025504E+000  0.1763641E+03  0.7546771E-02  0.1171369E+00
         21   -1    0    0  501  502  0.00000000000E+00  0.00000000000E+00  0.82846961608E+03  0.82846961608E+03  0.00000000000E+00 0.  1.
         21   -1    0    0  502  503 -0.00000000000E+00 -0.00000000000E+00 -0.10555266942E+03  0.10555266942E+03  0.00000000000E+00 0.  1.
          6    1    1    2  501    0 -0.31648490854E+02  0.13178294542E+02  0.73632259884E+03  0.75714943306E+03  0.17300000000E+03 0.  1.
         -6    1    1    2    0  503  0.31648490854E+02 -0.13178294542E+02 -0.13405652174E+02  0.17687285244E+03  0.17300000000E+03 0.  1.
<mgrwt>
<rscale>  2 0.17636410E+03</rscale>
<asrwt>0</asrwt>
<pdfrwt beam="1">  1       21 0.12745686E+00 0.17636410E+03</pdfrwt>
<pdfrwt beam="2">  1       21 0.16238873E-01 0.17636410E+03</pdfrwt>
<totfact> 0.15589338E+04</totfact>
</mgrwt>
</event>
<event>
 4    1  0.4025504E+000  0.1829058E+03  0.7546771E-02  0.1165020E+00
         21   -1    0    0  501  502  0.00000000000E+00  0.00000000000E+00  0.25308881035E+03  0.25308881035E+03  0.00000000000E+00 0.  1.
         21   -1    0    0  502  503 -0.00000000000E+00 -0.00000000000E+00 -0.13967035711E+03  0.13967035711E+03  0.00000000000E+00 0.  1.
          6    1    1    2  501    0 -0.32617539475E+02  0.49614693097E+02  0.11246750869E+02  0.18325122389E+03  0.17300000000E+03 0. -1.
         -6    1    1    2    0  503  0.32617539475E+02 -0.49614693097E+02  0.10217170237E+03  0.20950794357E+03  0.17300000000E+03 0. -1.
<mgrwt>
<rscale>  2 0.18290577E+03</rscale>
<asrwt>0</asrwt>
<pdfrwt beam="1">  1       21 0.38936740E-01 0.18290577E+03</pdfrwt>
<pdfrwt beam="2">  1       21 0.21487747E-01 0.18290577E+03</pdfrwt>
<totfact> 0.12875876E+05</totfact>
</mgrwt>
</event>
<event>
 4    1  0.4025504E+000  0.1922181E+03  0.7546771E-02  0.1156476E+00
         21   -1    0    0  503  502  0.00000000000E+00  0.00000000000E+00  0.16839524664E+03  0.16839524664E+03  0.00000000000E+00 0. -1.
         21   -1    0    0  501  503 -0.00000000000E+00 -0.00000000000E+00 -0.22723817120E+03  0.22723817120E+03  0.00000000000E+00 0.  1.
          6    1    1    2  501    0 -0.82265276223E+02 -0.15849501280E+02 -0.66134694427E+02  0.20327710193E+03  0.17300000000E+03 0.  1.
         -6    1    1    2    0  502  0.82265276223E+02  0.15849501280E+02  0.72917698661E+01  0.19235631591E+03  0.17300000000E+03 0. -1.
<mgrwt>
<rscale>  2 0.19221806E+03</rscale>
<asrwt>0</asrwt>
<pdfrwt beam="1">  1       21 0.25906961E-01 0.19221806E+03</pdfrwt>
<pdfrwt beam="2">  1       21 0.34959719E-01 0.19221806E+03</pdfrwt>
<totfact> 0.11162077E+05</totfact>
</mgrwt>
</event>
<event>
 4    1  0.4025504E+000  0.1752999E+03  0.7546771E-02  0.1172431E+00
         21   -1    0    0  501  502  0.00000000000E+00  0.00000000000E+00  0.60789820746E+03  0.60789820746E+03  0.00000000000E+00 0.  1.
         21   -1    0    0  502  503 -0.00000000000E+00 -0.00000000000E+00 -0.34551248131E+03  0.34551248131E+03  0.00000000000E+00 0.  1.
          6    1    1    2  501    0  0.27394601471E+02  0.71138297491E+01  0.57164685555E+03  0.59792156528E+03  0.17300000000E+03 0.  1.
         -6    1    1    2    0  503 -0.27394601471E+02 -0.71138297491E+01 -0.30926112940E+03  0.35548912349E+03  0.17300000000E+03 0.  1.
<mgrwt>
<rscale>  2 0.17529995E+03</rscale>
<asrwt>0</asrwt>
<pdfrwt beam="1">  1       21 0.93522801E-01 0.17529995E+03</pdfrwt>
<pdfrwt beam="2">  1       21 0.53155767E-01 0.17529995E+03</pdfrwt>
<totfact> 0.32699346E+03</totfact>
</mgrwt>
</event>
<event>
 4    1  0.4025504E+000  0.2107165E+03  0.7546771E-02  0.1141000E+00
         21   -1    0    0  501  502  0.00000000000E+00  0.00000000000E+00  0.18601209600E+03  0.18601209600E+03  0.00000000000E+00 0. -1.
         21   -1    0    0  502  503 -0.00000000000E+00 -0.00000000000E+00 -0.24672394196E+03  0.24672394196E+03  0.00000000000E+00 0. -1.
          6    1    1    2  501    0  0.50219708213E+02 -0.10931806861E+03  0.86586804117E+01  0.21089436210E+03  0.17300000000E+03 0. -1.
         -6    1    1    2    0  503 -0.50219708213E+02  0.10931806861E+03 -0.69370526373E+02  0.22184167586E+03  0.17300000000E+03 0. -1.
<mgrwt>
<rscale>  2 0.21071654E+03</rscale>
<asrwt>0</asrwt>
<pdfrwt beam="1">  1       21 0.28617246E-01 0.21071654E+03</pdfrwt>
<pdfrwt beam="2">  1       21 0.37957529E-01 0.21071654E+03</pdfrwt>
<totfact> 0.77576394E+04</totfact>
</mgrwt>
</event>
<event>
 4    1  0.4025504E+000  0.2119817E+03  0.7546771E-02  0.1140006E+00
         21   -1    0    0  503  502  0.00000000000E+00  0.00000000000E+00  0.52858067033E+02  0.52858067033E+02  0.00000000000E+00 0. -1.
         21   -1    0    0  501  503 -0.00000000000E+00 -0.00000000000E+00 -0.18795827001E+04  0.18795827001E+04  0.00000000000E+00 0. -1.
          6    1    1    2  501    0 -0.10247646879E+03 -0.67125378178E+02 -0.16284324123E+04  0.16421718438E+04  0.17300000000E+03 0. -1.
         -6    1    1    2    0  502  0.10247646879E+03  0.67125378178E+02 -0.19829222077E+03  0.29026892336E+03  0.17300000000E+03 0. -1.
<mgrwt>
<rscale>  2 0.21198170E+03</rscale>
<asrwt>0</asrwt>
<pdfrwt beam="1">  1       21 0.81320107E-02 0.21198170E+03</pdfrwt>
<pdfrwt beam="2">  1       21 0.28916655E+00 0.21198170E+03</pdfrwt>
<totfact> 0.44991445E+03</totfact>
</mgrwt>
</event>
<event>
 4    1  0.4025504E+000  0.3503500E+03  0.7546771E-02  0.1062471E+00
         21   -1    0    0  501  502  0.00000000000E+00  0.00000000000E+00  0.24992038941E+03  0.24992038941E+03  0.00000000000E+00 0. -1.
         21   -1    0    0  502  503 -0.00000000000E+00 -0.00000000000E+00 -0.49125625060E+03  0.49125625060E+03  0.00000000000E+00 0.  1.
          6    1    1    2  501    0 -0.10517901524E+03 -0.28592567525E+03 -0.11489082515E+03  0.36870722629E+03  0.17300000000E+03 0.  1.
         -6    1    1    2    0  503  0.10517901524E+03  0.28592567525E+03 -0.12644503603E+03  0.37246941371E+03  0.17300000000E+03 0. -1.
<mgrwt>
<rscale>  2 0.35034999E+03</rscale>
<asrwt>0</asrwt>
<pdfrwt beam="1">  1       21 0.38449291E-01 0.35034999E+03</pdfrwt>
<pdfrwt beam="2">  1       21 0.75577885E-01 0.35034999E+03</pdfrwt>
<totfact> 0.93885860E+03</totfact>
</mgrwt>
</event>
<event>
 4    1  0.4025504E+000  0.2627340E+03  0.7546771E-02  0.1105512E+00
         21   -1    0    0  501  502  0.00000000000E+00  0.00000000000E+00  0.16051098521E+03  0.16051098521E+03  0.00000000000E+00 0.  1.
         21   -1    0    0  502  503 -0.00000000000E+00 -0.00000000000E+00 -0.44108576743E+03  0.44108576743E+03  0.00000000000E+00 0. -1.
          6    1    1    2  501    0  0.19720534962E+03  0.14498506556E+02 -0.92727304805E+02  0.27861713814E+03  0.17300000000E+03 0. -1.
         -6    1    1    2    0  503 -0.19720534962E+03 -0.14498506556E+02 -0.18784747742E+03  0.32297961450E+03  0.17300000000E+03 0.  1.
<mgrwt>
<rscale>  2 0.26273400E+03</rscale>
<asrwt>0</asrwt>
<pdfrwt beam="1">  1       21 0.24693998E-01 0.26273400E+03</pdfrwt>
<pdfrwt beam="2">  1       21 0.67859349E-01 0.26273400E+03</pdfrwt>
<totfact> 0.29720399E+04</totfact>
</mgrwt>
</event>
<event>
 4    1  0.4025504E+000  0.2002569E+03  0.7546771E-02  0.1149522E+00
         21   -1    0    0  501  502  0.00000000000E+00  0.00000000000E+00  0.90918574067E+03  0.90918574067E+03  0.00000000000E+00 0. -1.
         21   -1    0    0  502  503 -0.00000000000E+00 -0.00000000000E+00 -0.44574606957E+02  0.44574606957E+02  0.00000000000E+00 0. -1.
          6    1    1    2  501    0  0.97251835975E+02 -0.26756427479E+02  0.48107018517E+03  0.52108670015E+03  0.17300000000E+03 0. -1.
         -6    1    1    2    0  503 -0.97251835975E+02  0.26756427479E+02  0.38354094853E+03  0.43267364747E+03  0.17300000000E+03 0. -1.
<mgrwt>
<rscale>  2 0.20025690E+03</rscale>
<asrwt>0</asrwt>
<pdfrwt beam="1">  1       21 0.13987472E+00 0.20025690E+03</pdfrwt>
<pdfrwt beam="2">  1       21 0.68576325E-02 0.20025690E+03</pdfrwt>
<totfact> 0.55980135E+04</totfact>
</mgrwt>
</event>
<event>
 4    1  0.4025504E+000  0.2030031E+03  0.7546771E-02  0.1147230E+00
         21   -1    0    0  503  502  0.00000000000E+00  0.00000000000E+00  0.23880480847E+04  0.23880480847E+04  0.00000000000E+00 0. -1.
         21   -1    0    0  501  503 -0.00000000000E+00 -0.00000000000E+00 -0.26463092572E+02  0.26463092572E+02  0.00000000000E+00 0. -1.
          6    1    1    2  501    0 -0.53504213357E+02 -0.91752630374E+02  0.46872763264E+03  0.51079921655E+03  0.17300000000E+03 0. -1.
         -6    1    1    2    0  502  0.53504213357E+02  0.91752630374E+02  0.18928573594E+04  0.19037119607E+04  0.17300000000E+03 0. -1.
<mgrwt>
<rscale>  2 0.20300307E+03</rscale>
<asrwt>0</asrwt>
<pdfrwt beam="1">  1       21 0.36739184E+00 0.20300307E+03</pdfrwt>
<pdfrwt beam="2">  1       21 0.40712469E-02 0.20300307E+03</pdfrwt>
<totfact> 0.51738470E+03</totfact>
</mgrwt>
</event>
<event>
 4    1  0.4025504E+000  0.1800863E+03  0.7546771E-02  0.1167720E+00
         21   -1    0    0  501  502  0.00000000000E+00  0.00000000000E+00  0.36031739809E+02  0.36031739809E+02  0.00000000000E+00 0.  1.
         21   -1    0    0  502  503 -0.00000000000E+00 -0.00000000000E+00 -0.99145717937E+03  0.99145717937E+03  0.00000000000E+00 0.  1.
          6    1    1    2  501    0 -0.17200615930E+02 -0.46970210514E+02 -0.32173788518E+03  0.36870900263E+03  0.17300000000E+03 0.  1.
         -6    1    1    2    0  503  0.17200615930E+02  0.46970210514E+02 -0.63368755438E+03  0.65877991654E+03  0.17300000000E+03 0.  1.
<mgrwt>
<rscale>  2 0.18008626E+03</rscale>
<asrwt>0</asrwt>
<pdfrwt beam="1">  1       21 0.55433448E-02 0.18008626E+03</pdfrwt>
<pdfrwt beam="2">  1       21 0.15253187E+00 0.18008626E+03</pdfrwt>
<totfact> 0.64989345E+04</totfact>
</mgrwt>
</event>
<event>
 4    1  0.4025504E+000  0.2355333E+03  0.7546771E-02  0.1122805E+00
         21   -1    0    0  501  502  0.00000000000E+00  0.00000000000E+00  0.16673575002E+03  0.16673575002E+03  0.00000000000E+00 0.  1.
         21   -1    0    0  502  503 -0.00000000000E+00 -0.00000000000E+00 -0.33329319419E+03  0.33329319419E+03  0.00000000000E+00 0.  1.
          6    1    1    2  501    0  0.13105696254E+03 -0.91493189203E+02 -0.72889529385E+02  0.24655387767E+03  0.17300000000E+03 0.  1.
         -6    1    1    2    0  503 -0.13105696254E+03  0.91493189203E+02 -0.93667914783E+02  0.25347506654E+03  0.17300000000E+03 0.  1.
<mgrwt>
<rscale>  2 0.23553329E+03</rscale>
<asrwt>0</asrwt>
<pdfrwt beam="1">  1       21 0.25651654E-01 0.23553329E+03</pdfrwt>
<pdfrwt beam="2">  1       21 0.51275876E-01 0.23553329E+03</pdfrwt>
<totfact> 0.51116338E+04</totfact>
</mgrwt>
</event>
<event>
 4    1  0.4025504E+000  0.1857093E+03  0.7546771E-02  0.1162389E+00
         21   -1    0    0  501  502  0.00000000000E+00  0.00000000000E+00  0.15494559585E+03  0.15494559585E+03  0.00000000000E+00 0.  1.
         21   -1    0    0  502  503 -0.00000000000E+00 -0.00000000000E+00 -0.34094417919E+03  0.34094417919E+03  0.00000000000E+00 0.  1.
          6    1    1    2  501    0  0.47899127635E+02 -0.47587891201E+02  0.53091206096E+02  0.19314919099E+03  0.17300000000E+03 0.  1.
         -6    1    1    2    0  503 -0.47899127635E+02  0.47587891201E+02 -0.23908978943E+03  0.30274058405E+03  0.17300000000E+03 0.  1.
<mgrwt>
<rscale>  2 0.18570927E+03</rscale>
<asrwt>0</asrwt>
<pdfrwt beam="1">  1       21 0.23837784E-01 0.18570927E+03</pdfrwt>
<pdfrwt beam="2">  1       21 0.52452950E-01 0.18570927E+03</pdfrwt>
<totfact> 0.57345548E+04</totfact>
</mgrwt>
</event>
<event>
 4    1  0.4025504E+000  0.2384192E+03  0.7546771E-02  0.1120850E+00
         21   -1    0    0  501  502  0.00000000000E+00  0.00000000000E+00  0.36663298015E+03  0.36663298015E+03  0.00000000000E+00 0. -1.
         21   -1    0    0  502  503 -0.00000000000E+00 -0.00000000000E+00 -0.16050211499E+03  0.16050211499E+03  0.00000000000E+00 0. -1.
          6    1    1    2  501    0  0.29536439248E+02 -0.16137630409E+03  0.15167597978E+03  0.28257621204E+03  0.17300000000E+03 0. -1.
         -6    1    1    2    0  503 -0.29536439248E+02  0.16137630409E+03  0.54454885371E+02  0.24455888311E+03  0.17300000000E+03 0. -1.
<mgrwt>
<rscale>  2 0.23841920E+03</rscale>
<asrwt>0</asrwt>
<pdfrwt beam="1">  1       21 0.56405074E-01 0.23841920E+03</pdfrwt>
<pdfrwt beam="2">  1       21 0.24692633E-01 0.23841920E+03</pdfrwt>
<totfact> 0.44880094E+04</totfact>
</mgrwt>
</event>
<event>
 4    1  0.4025504E+000  0.2029788E+03  0.7546771E-02  0.1147250E+00
         21   -1    0    0  501  502  0.00000000000E+00  0.00000000000E+00  0.41507580093E+02  0.41507580093E+02  0.00000000000E+00 0. -1.
         21   -1    0    0  502  503 -0.00000000000E+00 -0.00000000000E+00 -0.10059098657E+04  0.10059098657E+04  0.00000000000E+00 0. -1.
          6    1    1    2  501    0 -0.10572266529E+03 -0.97011909617E+01 -0.42195788006E+03  0.46824016018E+03  0.17300000000E+03 0. -1.
         -6    1    1    2    0  503  0.10572266529E+03  0.97011909617E+01 -0.54244440558E+03  0.57917728564E+03  0.17300000000E+03 0. -1.
<mgrwt>
<rscale>  2 0.20297880E+03</rscale>
<asrwt>0</asrwt>
<pdfrwt beam="1">  1       21 0.63857823E-02 0.20297880E+03</pdfrwt>
<pdfrwt beam="2">  1       21 0.15475535E+00 0.20297880E+03</pdfrwt>
<totfact> 0.48478105E+04</totfact>
</mgrwt>
</event>
<event>
 4    1  0.4025504E+000  0.2500745E+03  0.7546771E-02  0.1113258E+00
         21   -1    0    0  503  502  0.00000000000E+00  0.00000000000E+00  0.30023097362E+03  0.30023097362E+03  0.00000000000E+00 0.  1.
         21   -1    0    0  501  503 -0.00000000000E+00 -0.00000000000E+00 -0.38528528760E+03  0.38528528760E+03  0.00000000000E+00 0.  1.
          6    1    1    2  501    0 -0.45426142316E+01 -0.18052034878E+03 -0.27483759973E+03  0.37158167056E+03  0.17300000000E+03 0.  1.
         -6    1    1    2    0  502  0.45426142316E+01  0.18052034878E+03  0.18978328575E+03  0.31393459067E+03  0.17300000000E+03 0.  1.
<mgrwt>
<rscale>  2 0.25007445E+03</rscale>
<asrwt>0</asrwt>
<pdfrwt beam="1">  1       21 0.46189381E-01 0.25007445E+03</pdfrwt>
<pdfrwt beam="2">  1       21 0.59274659E-01 0.25007445E+03</pdfrwt>
<totfact> 0.11535809E+04</totfact>
</mgrwt>
</event>
<event>
 4    1  0.4025504E+000  0.1835152E+03  0.7546771E-02  0.1164444E+00
         21   -1    0    0  501  502  0.00000000000E+00  0.00000000000E+00  0.67703285723E+02  0.67703285723E+02  0.00000000000E+00 0. -1.
         21   -1    0    0  502  503 -0.00000000000E+00 -0.00000000000E+00 -0.54842855032E+03  0.54842855032E+03  0.00000000000E+00 0. -1.
          6    1    1    2  501    0  0.61114519587E+02  0.37216314145E+01 -0.14642261934E+03  0.23477099160E+03  0.17300000000E+03 0. -1.
         -6    1    1    2    0  503 -0.61114519587E+02 -0.37216314145E+01 -0.33430264526E+03  0.38136084444E+03  0.17300000000E+03 0. -1.
<mgrwt>
<rscale>  2 0.18351522E+03</rscale>
<asrwt>0</asrwt>
<pdfrwt beam="1">  1       21 0.10415890E-01 0.18351522E+03</pdfrwt>
<pdfrwt beam="2">  1       21 0.84373624E-01 0.18351522E+03</pdfrwt>
<totfact> 0.92354677E+04</totfact>
</mgrwt>
</event>
<event>
 4    1  0.4025504E+000  0.1921475E+03  0.7546771E-02  0.1156539E+00
         21   -1    0    0  503  502  0.00000000000E+00  0.00000000000E+00  0.17363489118E+03  0.17363489118E+03  0.00000000000E+00 0. -1.
         21   -1    0    0  501  503 -0.00000000000E+00 -0.00000000000E+00 -0.81815632787E+03  0.81815632787E+03  0.00000000000E+00 0. -1.
          6    1    1    2  501    0  0.18738116442E+01 -0.83595227345E+02 -0.74887679195E+03  0.77313460841E+03  0.17300000000E+03 0. -1.
         -6    1    1    2    0  502 -0.18738116442E+01  0.83595227345E+02  0.10435535526E+03  0.21865661064E+03  0.17300000000E+03 0. -1.
<mgrwt>
<rscale>  2 0.19214753E+03</rscale>
<asrwt>0</asrwt>
<pdfrwt beam="1">  1       21 0.26713060E-01 0.19214753E+03</pdfrwt>
<pdfrwt beam="2">  1       21 0.12587021E+00 0.19214753E+03</pdfrwt>
<totfact> 0.62569935E+03</totfact>
</mgrwt>
</event>
<event>
 4    1  0.4025504E+000  0.4419383E+03  0.7546771E-02  0.1030154E+00
         21   -1    0    0  503  502  0.00000000000E+00  0.00000000000E+00  0.82475664413E+03  0.82475664413E+03  0.00000000000E+00 0. -1.
         21   -1    0    0  501  503 -0.00000000000E+00 -0.00000000000E+00 -0.25968259244E+03  0.25968259244E+03  0.00000000000E+00 0. -1.
          6    1    1    2  501    0 -0.39707029968E+03  0.87838771740E+02  0.12161158038E+03  0.45836541012E+03  0.17300000000E+03 0. -1.
         -6    1    1    2    0  502  0.39707029968E+03 -0.87838771740E+02  0.44346247131E+03  0.62607382646E+03  0.17300000000E+03 0. -1.
<mgrwt>
<rscale>  2 0.44193831E+03</rscale>
<asrwt>0</asrwt>
<pdfrwt beam="1">  1       21 0.12688564E+00 0.44193831E+03</pdfrwt>
<pdfrwt beam="2">  1       21 0.39951168E-01 0.44193831E+03</pdfrwt>
<totfact> 0.24009082E+03</totfact>
</mgrwt>
</event>
<event>
 4    1  0.4025504E+000  0.2260475E+03  0.7546771E-02  0.1129453E+00
         21   -1    0    0  503  502  0.00000000000E+00  0.00000000000E+00  0.17776658801E+02  0.17776658801E+02  0.00000000000E+00 0.  1.
         21   -1    0    0  501  503 -0.00000000000E+00 -0.00000000000E+00 -0.30517417685E+04  0.30517417685E+04  0.00000000000E+00 0.  1.
          6    1    1    2  501    0  0.19273769503E+02 -0.14421163948E+03 -0.18869426270E+04  0.19004341485E+04  0.17300000000E+03 0.  1.
         -6    1    1    2    0  502 -0.19273769503E+02  0.14421163948E+03 -0.11470224827E+04  0.11690842788E+04  0.17300000000E+03 0.  1.
<mgrwt>
<rscale>  2 0.22604751E+03</rscale>
<asrwt>0</asrwt>
<pdfrwt beam="1">  1       21 0.27348710E-02 0.22604751E+03</pdfrwt>
<pdfrwt beam="2">  1       21 0.46949866E+00 0.22604751E+03</pdfrwt>
<totfact> 0.21654587E+03</totfact>
</mgrwt>
</event>
<event>
 4    1  0.4025504E+000  0.1782725E+03  0.7546771E-02  0.1169485E+00
         21   -1    0    0  501  502  0.00000000000E+00  0.00000000000E+00  0.31971499663E+02  0.31971499663E+02  0.00000000000E+00 0.  1.
         21   -1    0    0  502  503 -0.00000000000E+00 -0.00000000000E+00 -0.10840520297E+04  0.10840520297E+04  0.00000000000E+00 0.  1.
          6    1    1    2  501    0 -0.33905515460E+02 -0.26504702911E+02 -0.68683005884E+03  0.70958904514E+03  0.17300000000E+03 0. -1.
         -6    1    1    2    0  503  0.33905515460E+02  0.26504702911E+02 -0.36525047118E+03  0.40643448421E+03  0.17300000000E+03 0. -1.
<mgrwt>
<rscale>  2 0.17827250E+03</rscale>
<asrwt>0</asrwt>
<pdfrwt beam="1">  1       21 0.49186916E-02 0.17827250E+03</pdfrwt>
<pdfrwt beam="2">  1       21 0.16677726E+00 0.17827250E+03</pdfrwt>
<totfact> 0.62702700E+04</totfact>
</mgrwt>
</event>
<event>
 4    1  0.4025504E+000  0.1869280E+03  0.7546771E-02  0.1161262E+00
         21   -1    0    0  503  502  0.00000000000E+00  0.00000000000E+00  0.88027324557E+03  0.88027324557E+03  0.00000000000E+00 0.  1.
         21   -1    0    0  501  503 -0.00000000000E+00 -0.00000000000E+00 -0.50595354915E+02  0.50595354915E+02  0.00000000000E+00 0. -1.
          6    1    1    2  501    0  0.69988581557E+02 -0.10709009644E+02  0.19880023565E+03  0.27288022671E+03  0.17300000000E+03 0. -1.
         -6    1    1    2    0  502 -0.69988581557E+02  0.10709009644E+02  0.63087765501E+03  0.65798837378E+03  0.17300000000E+03 0.  1.
<mgrwt>
<rscale>  2 0.18692802E+03</rscale>
<asrwt>0</asrwt>
<pdfrwt beam="1">  1       21 0.13542664E+00 0.18692802E+03</pdfrwt>
<pdfrwt beam="2">  1       21 0.77839014E-02 0.18692802E+03</pdfrwt>
<totfact> 0.49196627E+04</totfact>
</mgrwt>
</event>
<event>
 4    1  0.4025504E+000  0.2113003E+03  0.7546771E-02  0.1140540E+00
         21   -1    0    0  501  502  0.00000000000E+00  0.00000000000E+00  0.18176553314E+04  0.18176553314E+04  0.00000000000E+00 0.  1.
         21   -1    0    0  502  503 -0.00000000000E+00 -0.00000000000E+00 -0.28905235424E+02  0.28905235424E+02  0.00000000000E+00 0. -1.
          6    1    1    2  501    0 -0.12129869103E+03 -0.23297809046E+01  0.12522092409E+04  0.12699117227E+04  0.17300000000E+03 0.  1.
         -6    1    1    2    0  503  0.12129869103E+03  0.23297809046E+01  0.53654085510E+03  0.57664884420E+03  0.17300000000E+03 0. -1.
<mgrwt>
<rscale>  2 0.21130026E+03</rscale>
<asrwt>0</asrwt>
<pdfrwt beam="1">  1       21 0.27963919E+00 0.21130026E+03</pdfrwt>
<pdfrwt beam="2">  1       21 0.44469607E-02 0.21130026E+03</pdfrwt>
<totfact> 0.14405646E+04</totfact>
</mgrwt>
</event>
<event>
 4    1  0.4025504E+000  0.1776174E+03  0.7546771E-02  0.1170129E+00
         21   -1    0    0  503  502  0.00000000000E+00  0.00000000000E+00  0.14937652476E+03  0.14937652476E+03  0.00000000000E+00 0. -1.
         21   -1    0    0  501  503 -0.00000000000E+00 -0.00000000000E+00 -0.28976843514E+03  0.28976843514E+03  0.00000000000E+00 0. -1.
          6    1    1    2  501    0 -0.49121260537E+01  0.39935093479E+02 -0.18453208216E+03  0.25612502810E+03  0.17300000000E+03 0. -1.
         -6    1    1    2    0  502  0.49121260537E+01 -0.39935093479E+02  0.44140171777E+02  0.18301993181E+03  0.17300000000E+03 0. -1.
<mgrwt>
<rscale>  2 0.17761740E+03</rscale>
<asrwt>0</asrwt>
<pdfrwt beam="1">  1       21 0.22981004E-01 0.17761740E+03</pdfrwt>
<pdfrwt beam="2">  1       21 0.44579759E-01 0.17761740E+03</pdfrwt>
<totfact> 0.86389269E+04</totfact>
</mgrwt>
</event>
<event>
 4    1  0.4025504E+000  0.1919056E+03  0.7546771E-02  0.1156754E+00
         21   -1    0    0  501  502  0.00000000000E+00  0.00000000000E+00  0.19358559921E+03  0.19358559921E+03  0.00000000000E+00 0.  1.
         21   -1    0    0  502  503 -0.00000000000E+00 -0.00000000000E+00 -0.24523758231E+03  0.24523758231E+03  0.00000000000E+00 0.  1.
          6    1    1    2  501    0 -0.76673852194E+02  0.31935370311E+02  0.78079232060E+02  0.20718135526E+03  0.17300000000E+03 0.  1.
         -6    1    1    2    0  503  0.76673852194E+02 -0.31935370311E+02 -0.12973121516E+03  0.23164182626E+03  0.17300000000E+03 0.  1.
<mgrwt>
<rscale>  2 0.19190557E+03</rscale>
<asrwt>0</asrwt>
<pdfrwt beam="1">  1       21 0.29782400E-01 0.19190557E+03</pdfrwt>
<pdfrwt beam="2">  1       21 0.37728859E-01 0.19190557E+03</pdfrwt>
<totfact> 0.73255304E+04</totfact>
</mgrwt>
</event>
<event>
 4    1  0.4025504E+000  0.2192899E+03  0.7546771E-02  0.1134414E+00
         21   -1    0    0  503  502  0.00000000000E+00  0.00000000000E+00  0.19150681910E+03  0.19150681910E+03  0.00000000000E+00 0. -1.
         21   -1    0    0  501  503 -0.00000000000E+00 -0.00000000000E+00 -0.26630678006E+03  0.26630678006E+03  0.00000000000E+00 0.  1.
          6    1    1    2  501    0  0.13475494017E+03 -0.41914966969E+00 -0.92093197286E+02  0.23784286109E+03  0.17300000000E+03 0. -1.
         -6    1    1    2    0  502 -0.13475494017E+03  0.41914966969E+00  0.17293236326E+02  0.21997073807E+03  0.17300000000E+03 0.  1.
<mgrwt>
<rscale>  2 0.21928992E+03</rscale>
<asrwt>0</asrwt>
<pdfrwt beam="1">  1       21 0.29462588E-01 0.21928992E+03</pdfrwt>
<pdfrwt beam="2">  1       21 0.40970274E-01 0.21928992E+03</pdfrwt>
<totfact> 0.62588495E+04</totfact>
</mgrwt>
</event>
<event>
 4    1  0.4025504E+000  0.2962712E+03  0.7546771E-02  0.1087120E+00
         21   -1    0    0  501  502  0.00000000000E+00  0.00000000000E+00  0.63847787505E+03  0.63847787505E+03  0.00000000000E+00 0.  1.
         21   -1    0    0  502  503 -0.00000000000E+00 -0.00000000000E+00 -0.13840341344E+03  0.13840341344E+03  0.00000000000E+00 0.  1.
          6    1    1    2  501    0 -0.15981790782E+03  0.17973826917E+03  0.21827299848E+03  0.36799417242E+03  0.17300000000E+03 0.  1.
         -6    1    1    2    0  503  0.15981790782E+03 -0.17973826917E+03  0.28180146313E+03  0.40888711607E+03  0.17300000000E+03 0.  1.
<mgrwt>
<rscale>  2 0.29627117E+03</rscale>
<asrwt>0</asrwt>
<pdfrwt beam="1">  1       21 0.98227364E-01 0.29627117E+03</pdfrwt>
<pdfrwt beam="2">  1       21 0.21292833E-01 0.29627117E+03</pdfrwt>
<totfact> 0.16640169E+04</totfact>
</mgrwt>
</event>
<event>
 4    1  0.4025504E+000  0.2170258E+03  0.7546771E-02  0.1136120E+00
         21   -1    0    0  501  502  0.00000000000E+00  0.00000000000E+00  0.34668685345E+03  0.34668685345E+03  0.00000000000E+00 0.  1.
         21   -1    0    0  502  503 -0.00000000000E+00 -0.00000000000E+00 -0.13678546886E+03  0.13678546886E+03  0.00000000000E+00 0. -1.
          6    1    1    2  501    0 -0.42674495092E+02 -0.12389553897E+03  0.85046344179E+02  0.23309461119E+03  0.17300000000E+03 0.  1.
         -6    1    1    2    0  503  0.42674495092E+02  0.12389553897E+03  0.12485504041E+03  0.25037771112E+03  0.17300000000E+03 0.  1.
<mgrwt>
<rscale>  2 0.21702584E+03</rscale>
<asrwt>0</asrwt>
<pdfrwt beam="1">  1       21 0.53336439E-01 0.21702584E+03</pdfrwt>
<pdfrwt beam="2">  1       21 0.21043918E-01 0.21702584E+03</pdfrwt>
<totfact> 0.69095677E+04</totfact>
</mgrwt>
</event>
<event>
 4    1  0.4025504E+000  0.1866284E+03  0.7546771E-02  0.1161538E+00
         21   -1    0    0  501  502  0.00000000000E+00  0.00000000000E+00  0.67304601889E+03  0.67304601889E+03  0.00000000000E+00 0.  1.
         21   -1    0    0  502  503 -0.00000000000E+00 -0.00000000000E+00 -0.57224491626E+02  0.57224491626E+02  0.00000000000E+00 0.  1.
          6    1    1    2  501    0  0.42743022018E+02 -0.55445498922E+02  0.42084678040E+03  0.46037178656E+03  0.17300000000E+03 0.  1.
         -6    1    1    2    0  503 -0.42743022018E+02  0.55445498922E+02  0.19497474686E+03  0.26989872396E+03  0.17300000000E+03 0.  1.
<mgrwt>
<rscale>  2 0.18662843E+03</rscale>
<asrwt>0</asrwt>
<pdfrwt beam="1">  1       21 0.10354554E+00 0.18662843E+03</pdfrwt>
<pdfrwt beam="2">  1       21 0.88037684E-02 0.18662843E+03</pdfrwt>
<totfact> 0.76908958E+04</totfact>
</mgrwt>
</event>
<event>
 4    1  0.4025504E+000  0.2198811E+03  0.7546771E-02  0.1133972E+00
         21   -1    0    0  501  502  0.00000000000E+00  0.00000000000E+00  0.20883249654E+03  0.20883249654E+03  0.00000000000E+00 0.  1.
         21   -1    0    0  502  503 -0.00000000000E+00 -0.00000000000E+00 -0.24635242227E+03  0.24635242227E+03  0.00000000000E+00 0. -1.
          6    1    1    2  501    0  0.47188903672E+02  0.12724739854E+03  0.37096066240E+02  0.22298836560E+03  0.17300000000E+03 0.  1.
         -6    1    1    2    0  503 -0.47188903672E+02 -0.12724739854E+03 -0.74615991963E+02  0.23219655321E+03  0.17300000000E+03 0. -1.
<mgrwt>
<rscale>  2 0.21988109E+03</rscale>
<asrwt>0</asrwt>
<pdfrwt beam="1">  1       21 0.32128076E-01 0.21988109E+03</pdfrwt>
<pdfrwt beam="2">  1       21 0.37900373E-01 0.21988109E+03</pdfrwt>
<totfact> 0.61806754E+04</totfact>
</mgrwt>
</event>
<event>
 4    1  0.4025504E+000  0.1947795E+03  0.7546771E-02  0.1154220E+00
         21   -1    0    0  501  502  0.00000000000E+00  0.00000000000E+00  0.49083146912E+03  0.49083146912E+03  0.00000000000E+00 0.  1.
         21   -1    0    0  502  503 -0.00000000000E+00 -0.00000000000E+00 -0.19805787002E+03  0.19805787002E+03  0.00000000000E+00 0.  1.
          6    1    1    2  501    0  0.52405395808E+02  0.72551572332E+02  0.41534776688E+03  0.45875137451E+03  0.17300000000E+03 0.  1.
         -6    1    1    2    0  503 -0.52405395808E+02 -0.72551572332E+02 -0.12257416778E+03  0.23013796463E+03  0.17300000000E+03 0.  1.
<mgrwt>
<rscale>  2 0.19477951E+03</rscale>
<asrwt>0</asrwt>
<pdfrwt beam="1">  1       21 0.75512533E-01 0.19477951E+03</pdfrwt>
<pdfrwt beam="2">  1       21 0.30470442E-01 0.19477951E+03</pdfrwt>
<totfact> 0.16166676E+04</totfact>
</mgrwt>
</event>
<event>
 4    1  0.4025504E+000  0.1759174E+03  0.7546771E-02  0.1171814E+00
         21   -1    0    0  501  502  0.00000000000E+00  0.00000000000E+00  0.61576469105E+02  0.61576469105E+02  0.00000000000E+00 0.  1.
         21   -1    0    0  502  503 -0.00000000000E+00 -0.00000000000E+00 -0.59641755876E+03  0.59641755876E+03  0.00000000000E+00 0.  1.
          6    1    1    2  501    0 -0.10373562041E+02  0.30171376919E+02 -0.13692015001E+03  0.22292162357E+03  0.17300000000E+03 0.  1.
         -6    1    1    2    0  503  0.10373562041E+02 -0.30171376919E+02 -0.39792093964E+03  0.43507240430E+03  0.17300000000E+03 0.  1.
<mgrwt>
<rscale>  2 0.17591737E+03</rscale>
<asrwt>0</asrwt>
<pdfrwt beam="1">  1       21 0.94733032E-02 0.17591737E+03</pdfrwt>
<pdfrwt beam="2">  1       21 0.91756545E-01 0.17591737E+03</pdfrwt>
<totfact> 0.90305369E+04</totfact>
</mgrwt>
</event>
<event>
 4    1  0.4025504E+000  0.2289344E+03  0.7546771E-02  0.1127392E+00
         21   -1    0    0  503  502  0.00000000000E+00  0.00000000000E+00  0.24639775899E+03  0.24639775899E+03  0.00000000000E+00 0.  1.
         21   -1    0    0  501  503 -0.00000000000E+00 -0.00000000000E+00 -0.10209856303E+04  0.10209856303E+04  0.00000000000E+00 0. -1.
          6    1    1    2  501    0  0.14993502218E+03 -0.12097855926E+01 -0.95112404238E+03  0.97828825939E+03  0.17300000000E+03 0. -1.
         -6    1    1    2    0  502 -0.14993502218E+03  0.12097855926E+01  0.17653617104E+03  0.28909512992E+03  0.17300000000E+03 0.  1.
<mgrwt>
<rscale>  2 0.22893443E+03</rscale>
<asrwt>0</asrwt>
<pdfrwt beam="1">  1       21 0.37907347E-01 0.22893443E+03</pdfrwt>
<pdfrwt beam="2">  1       21 0.15707471E+00 0.22893443E+03</pdfrwt>
<totfact> 0.17164272E+03</totfact>
</mgrwt>
</event>
<event>
 4    1  0.4025504E+000  0.2181489E+03  0.7546771E-02  0.1135271E+00
         21   -1    0    0  503  502  0.00000000000E+00  0.00000000000E+00  0.40843502604E+03  0.40843502604E+03  0.00000000000E+00 0.  1.
         21   -1    0    0  501  503 -0.00000000000E+00 -0.00000000000E+00 -0.16744829815E+03  0.16744829815E+03  0.00000000000E+00 0.  1.
          6    1    1    2  501    0  0.11982664943E+03 -0.57458980168E+02 -0.38311367705E+02  0.22148751931E+03  0.17300000000E+03 0.  1.
         -6    1    1    2    0  502 -0.11982664943E+03  0.57458980168E+02  0.27929809559E+03  0.35439580488E+03  0.17300000000E+03 0.  1.
<mgrwt>
<rscale>  2 0.21814894E+03</rscale>
<asrwt>0</asrwt>
<pdfrwt beam="1">  1       21 0.62836158E-01 0.21814894E+03</pdfrwt>
<pdfrwt beam="2">  1       21 0.25761277E-01 0.21814894E+03</pdfrwt>
<totfact> 0.33100371E+04</totfact>
</mgrwt>
</event>
<event>
 4    1  0.4025504E+000  0.2055599E+03  0.7546771E-02  0.1145131E+00
         21   -1    0    0  501  502  0.00000000000E+00  0.00000000000E+00  0.52517845118E+03  0.52517845118E+03  0.00000000000E+00 0. -1.
         21   -1    0    0  502  503 -0.00000000000E+00 -0.00000000000E+00 -0.11222104332E+03  0.11222104332E+03  0.00000000000E+00 0.  1.
          6    1    1    2  501    0 -0.66133679151E+02  0.89175269328E+02  0.37603133110E+03  0.42854924355E+03  0.17300000000E+03 0.  1.
         -6    1    1    2    0  503  0.66133679151E+02 -0.89175269328E+02  0.36926076756E+02  0.20885025095E+03  0.17300000000E+03 0. -1.
<mgrwt>
<rscale>  2 0.20555995E+03</rscale>
<asrwt>0</asrwt>
<pdfrwt beam="1">  1       21 0.80796684E-01 0.20555995E+03</pdfrwt>
<pdfrwt beam="2">  1       21 0.17264776E-01 0.20555995E+03</pdfrwt>
<totfact> 0.40504175E+04</totfact>
</mgrwt>
</event>
<event>
 4    1  0.4025504E+000  0.2263319E+03  0.7546771E-02  0.1129248E+00
         21   -1    0    0  501  502  0.00000000000E+00  0.00000000000E+00  0.41813639656E+02  0.41813639656E+02  0.00000000000E+00 0. -1.
         21   -1    0    0  502  503 -0.00000000000E+00 -0.00000000000E+00 -0.13818217843E+04  0.13818217843E+04  0.00000000000E+00 0. -1.
          6    1    1    2  501    0 -0.27453406455E+02  0.14332988658E+03 -0.43028699482E+03  0.48618210973E+03  0.17300000000E+03 0. -1.
         -6    1    1    2    0  503  0.27453406455E+02 -0.14332988658E+03 -0.90972114987E+03  0.93745331427E+03  0.17300000000E+03 0. -1.
<mgrwt>
<rscale>  2 0.22633194E+03</rscale>
<asrwt>0</asrwt>
<pdfrwt beam="1">  1       21 0.64328685E-02 0.22633194E+03</pdfrwt>
<pdfrwt beam="2">  1       21 0.21258794E+00 0.22633194E+03</pdfrwt>
<totfact> 0.19071046E+04</totfact>
</mgrwt>
</event>
<event>
 4    1  0.4025504E+000  0.2423793E+03  0.7546771E-02  0.1118218E+00
         21   -1    0    0  503  502  0.00000000000E+00  0.00000000000E+00  0.80082672316E+02  0.80082672316E+02  0.00000000000E+00 0.  1.
         21   -1    0    0  501  503 -0.00000000000E+00 -0.00000000000E+00 -0.77180895040E+03  0.77180895040E+03  0.00000000000E+00 0.  1.
          6    1    1    2  501    0  0.15479290455E+03  0.69698433092E+02 -0.44065002153E+03  0.50291167848E+03  0.17300000000E+03 0.  1.
         -6    1    1    2    0  502 -0.15479290455E+03 -0.69698433092E+02 -0.25107625656E+03  0.34897994424E+03  0.17300000000E+03 0.  1.
<mgrwt>
<rscale>  2 0.24237928E+03</rscale>
<asrwt>0</asrwt>
<pdfrwt beam="1">  1       21 0.12320411E-01 0.24237928E+03</pdfrwt>
<pdfrwt beam="2">  1       21 0.11873984E+00 0.24237928E+03</pdfrwt>
<totfact> 0.29531507E+04</totfact>
</mgrwt>
</event>
<event>
 4    1  0.4025504E+000  0.1941000E+03  0.7546771E-02  0.1154815E+00
         21   -1    0    0  501  502  0.00000000000E+00  0.00000000000E+00  0.53622762589E+03  0.53622762589E+03  0.00000000000E+00 0. -1.
         21   -1    0    0  502  503 -0.00000000000E+00 -0.00000000000E+00 -0.79541974975E+02  0.79541974975E+02  0.00000000000E+00 0. -1.
          6    1    1    2  501    0 -0.79048641749E+02  0.38692591026E+02  0.33352307462E+03  0.38589175382E+03  0.17300000000E+03 0. -1.
         -6    1    1    2    0  503  0.79048641749E+02 -0.38692591026E+02  0.12316257630E+03  0.22987784705E+03  0.17300000000E+03 0. -1.
<mgrwt>
<rscale>  2 0.19409999E+03</rscale>
<asrwt>0</asrwt>
<pdfrwt beam="1">  1       21 0.82496555E-01 0.19409999E+03</pdfrwt>
<pdfrwt beam="2">  1       21 0.12237227E-01 0.19409999E+03</pdfrwt>
<totfact> 0.72641028E+04</totfact>
</mgrwt>
</event>
<event>
 4    1  0.4025504E+000  0.2070090E+03  0.7546771E-02  0.1143957E+00
         21   -1    0    0  503  502  0.00000000000E+00  0.00000000000E+00  0.62628324104E+03  0.62628324104E+03  0.00000000000E+00 0.  1.
         21   -1    0    0  501  503 -0.00000000000E+00 -0.00000000000E+00 -0.68928102850E+02  0.68928102850E+02  0.00000000000E+00 0. -1.
          6    1    1    2  501    0 -0.19063681504E+01  0.11366652094E+03  0.30840871968E+03  0.37144131515E+03  0.17300000000E+03 0. -1.
         -6    1    1    2    0  502  0.19063681504E+01 -0.11366652094E+03  0.24894641851E+03  0.32377002874E+03  0.17300000000E+03 0.  1.
<mgrwt>
<rscale>  2 0.20700897E+03</rscale>
<asrwt>0</asrwt>
<pdfrwt beam="1">  1       21 0.96351264E-01 0.20700897E+03</pdfrwt>
<pdfrwt beam="2">  1       21 0.10604324E-01 0.20700897E+03</pdfrwt>
<totfact> 0.65098223E+04</totfact>
</mgrwt>
</event>
<event>
 4    1  0.4025504E+000  0.2322037E+03  0.7546771E-02  0.1125098E+00
         21   -1    0    0  501  502  0.00000000000E+00  0.00000000000E+00  0.66750953152E+03  0.66750953152E+03  0.00000000000E+00 0. -1.
         21   -1    0    0  502  503 -0.00000000000E+00 -0.00000000000E+00 -0.94776401486E+02  0.94776401486E+02  0.00000000000E+00 0.  1.
          6    1    1    2  501    0  0.12712369372E+03  0.88482258122E+02  0.43285820579E+03  0.49120746108E+03  0.17300000000E+03 0. -1.
         -6    1    1    2    0  503 -0.12712369372E+03 -0.88482258122E+02  0.13987492425E+03  0.27107847193E+03  0.17300000000E+03 0.  1.
<mgrwt>
<rscale>  2 0.23220367E+03</rscale>
<asrwt>0</asrwt>
<pdfrwt beam="1">  1       21 0.10269377E+00 0.23220367E+03</pdfrwt>
<pdfrwt beam="2">  1       21 0.14580985E-01 0.23220367E+03</pdfrwt>
<totfact> 0.31152598E+04</totfact>
</mgrwt>
</event>
<event>
 4    1  0.4025504E+000  0.3382637E+03  0.7546771E-02  0.1067538E+00
         21   -1    0    0  501  502  0.00000000000E+00  0.00000000000E+00  0.22343159155E+03  0.22343159155E+03  0.00000000000E+00 0. -1.
         21   -1    0    0  502  503 -0.00000000000E+00 -0.00000000000E+00 -0.16012059322E+04  0.16012059322E+04  0.00000000000E+00 0.  1.
          6    1    1    2  501    0 -0.29055459876E+03  0.84473080095E+01  0.63524257970E+02  0.34417679065E+03  0.17300000000E+03 0. -1.
         -6    1    1    2    0  503  0.29055459876E+03 -0.84473080095E+01 -0.14412985986E+04  0.14804607331E+04  0.17300000000E+03 0.  1.
<mgrwt>
<rscale>  2 0.33826370E+03</rscale>
<asrwt>0</asrwt>
<pdfrwt beam="1">  1       21 0.34374090E-01 0.33826370E+03</pdfrwt>
<pdfrwt beam="2">  1       21 0.24633938E+00 0.33826370E+03</pdfrwt>
<totfact> 0.49479638E+02</totfact>
</mgrwt>
</event>
<event>
 4    1  0.4025504E+000  0.2284629E+03  0.7546771E-02  0.1127726E+00
         21   -1    0    0  503  502  0.00000000000E+00  0.00000000000E+00  0.62573590038E+03  0.62573590038E+03  0.00000000000E+00 0. -1.
         21   -1    0    0  501  503 -0.00000000000E+00 -0.00000000000E+00 -0.83632875957E+02  0.83632875957E+02  0.00000000000E+00 0. -1.
          6    1    1    2  501    0  0.39334681209E+02  0.14394125770E+03  0.25291785537E+03  0.34082656055E+03  0.17300000000E+03 0. -1.
         -6    1    1    2    0  502 -0.39334681209E+02 -0.14394125770E+03  0.28918516905E+03  0.36854221578E+03  0.17300000000E+03 0. -1.
<mgrwt>
<rscale>  2 0.22846291E+03</rscale>
<asrwt>0</asrwt>
<pdfrwt beam="1">  1       21 0.96267059E-01 0.22846291E+03</pdfrwt>
<pdfrwt beam="2">  1       21 0.12866597E-01 0.22846291E+03</pdfrwt>
<totfact> 0.45681351E+04</totfact>
</mgrwt>
</event>
<event>
 4    1  0.4025504E+000  0.1856696E+03  0.7546771E-02  0.1162426E+00
         21   -1    0    0  501  502  0.00000000000E+00  0.00000000000E+00  0.44663470484E+03  0.44663470484E+03  0.00000000000E+00 0. -1.
         21   -1    0    0  502  503 -0.00000000000E+00 -0.00000000000E+00 -0.11256479837E+03  0.11256479837E+03  0.00000000000E+00 0.  1.
          6    1    1    2  501    0 -0.71135056993E+01 -0.67034331459E+02  0.32378844674E+03  0.37324544445E+03  0.17300000000E+03 0. -1.
         -6    1    1    2    0  503  0.71135056993E+01  0.67034331459E+02  0.10281459736E+02  0.18595405877E+03  0.17300000000E+03 0.  1.
<mgrwt>
<rscale>  2 0.18566961E+03</rscale>
<asrwt>0</asrwt>
<pdfrwt beam="1">  1       21 0.68713030E-01 0.18566961E+03</pdfrwt>
<pdfrwt beam="2">  1       21 0.17317662E-01 0.18566961E+03</pdfrwt>
<totfact> 0.58382376E+04</totfact>
</mgrwt>
</event>
<event>
 4    1  0.4025504E+000  0.2039411E+03  0.7546771E-02  0.1146456E+00
         21   -1    0    0  501  502  0.00000000000E+00  0.00000000000E+00  0.51740754298E+03  0.51740754298E+03  0.00000000000E+00 0.  1.
         21   -1    0    0  502  503 -0.00000000000E+00 -0.00000000000E+00 -0.85685518154E+02  0.85685518154E+02  0.00000000000E+00 0.  1.
          6    1    1    2  501    0 -0.10799472253E+03  0.34878678053E+00  0.29085834510E+03  0.35523310468E+03  0.17300000000E+03 0.  1.
         -6    1    1    2    0  503  0.10799472253E+03 -0.34878678053E+00  0.14086367972E+03  0.24785995645E+03  0.17300000000E+03 0.  1.
<mgrwt>
<rscale>  2 0.20394112E+03</rscale>
<asrwt>0</asrwt>
<pdfrwt beam="1">  1       21 0.79601159E-01 0.20394112E+03</pdfrwt>
<pdfrwt beam="2">  1       21 0.13182388E-01 0.20394112E+03</pdfrwt>
<totfact> 0.68593147E+04</totfact>
</mgrwt>
</event>
<event>
 4    1  0.4025504E+000  0.2365198E+03  0.7546771E-02  0.1122133E+00
         21   -1    0    0  501  502  0.00000000000E+00  0.00000000000E+00  0.10005469658E+04  0.10005469658E+04  0.00000000000E+00 0. -1.
         21   -1    0    0  502  503 -0.00000000000E+00 -0.00000000000E+00 -0.56015679459E+02  0.56015679459E+02  0.00000000000E+00 0. -1.
          6    1    1    2  501    0  0.47945111485E+02 -0.15399316694E+03  0.44943373977E+03  0.50787037285E+03  0.17300000000E+03 0. -1.
         -6    1    1    2    0  503 -0.47945111485E+02  0.15399316694E+03  0.49509754659E+03  0.54869227243E+03  0.17300000000E+03 0. -1.
<mgrwt>
<rscale>  2 0.23651983E+03</rscale>
<asrwt>0</asrwt>
<pdfrwt beam="1">  1       21 0.15393029E+00 0.23651983E+03</pdfrwt>
<pdfrwt beam="2">  1       21 0.86177976E-02 0.23651983E+03</pdfrwt>
<totfact> 0.28660954E+04</totfact>
</mgrwt>
</event>
<event>
 4    1  0.4025504E+000  0.2358092E+03  0.7546771E-02  0.1122616E+00
         21   -1    0    0  501  502  0.00000000000E+00  0.00000000000E+00  0.31765819988E+03  0.31765819988E+03  0.00000000000E+00 0. -1.
         21   -1    0    0  502  503 -0.00000000000E+00 -0.00000000000E+00 -0.20516599604E+03  0.20516599604E+03  0.00000000000E+00 0. -1.
          6    1    1    2  501    0 -0.15939020828E+03 -0.16485210735E+02  0.15640121659E+03  0.28296173102E+03  0.17300000000E+03 0. -1.
         -6    1    1    2    0  503  0.15939020828E+03  0.16485210735E+02 -0.43909012746E+02  0.23986246490E+03  0.17300000000E+03 0. -1.
<mgrwt>
<rscale>  2 0.23580925E+03</rscale>
<asrwt>0</asrwt>
<pdfrwt beam="1">  1       21 0.48870492E-01 0.23580925E+03</pdfrwt>
<pdfrwt beam="2">  1       21 0.31563999E-01 0.23580925E+03</pdfrwt>
<totfact> 0.37748638E+04</totfact>
</mgrwt>
</event>
<event>
 4    1  0.4025504E+000  0.1864049E+03  0.7546771E-02  0.1161744E+00
         21   -1    0    0  503  502  0.00000000000E+00  0.00000000000E+00  0.72763666612E+03  0.72763666612E+03  0.00000000000E+00 0. -1.
         21   -1    0    0  501  503 -0.00000000000E+00 -0.00000000000E+00 -0.52499492712E+02  0.52499492712E+02  0.00000000000E+00 0. -1.
          6    1    1    2  501    0 -0.29476608772E+02  0.62840383102E+02  0.22028091094E+03  0.28856622106E+03  0.17300000000E+03 0. -1.
         -6    1    1    2    0  502  0.29476608772E+02 -0.62840383102E+02  0.45485626247E+03  0.49156993777E+03  0.17300000000E+03 0. -1.
<mgrwt>
<rscale>  2 0.18640489E+03</rscale>
<asrwt>0</asrwt>
<pdfrwt beam="1">  1       21 0.11194409E+00 0.18640489E+03</pdfrwt>
<pdfrwt beam="2">  1       21 0.80768456E-02 0.18640489E+03</pdfrwt>
<totfact> 0.74087887E+04</totfact>
</mgrwt>
</event>
<event>
 4    1  0.4025504E+000  0.1748938E+03  0.7546771E-02  0.1172838E+00
         21   -1    0    0  501  502  0.00000000000E+00  0.00000000000E+00  0.70751365006E+03  0.70751365006E+03  0.00000000000E+00 0.  1.
         21   -1    0    0  502  503 -0.00000000000E+00 -0.00000000000E+00 -0.55200060553E+02  0.55200060553E+02  0.00000000000E+00 0.  1.
          6    1    1    2  501    0 -0.60989251454E+01  0.24932600600E+02  0.50372215544E+03  0.53322025594E+03  0.17300000000E+03 0. -1.
         -6    1    1    2    0  503  0.60989251454E+01 -0.24932600600E+02  0.14859143407E+03  0.22949345467E+03  0.17300000000E+03 0. -1.
<mgrwt>
<rscale>  2 0.17489377E+03</rscale>
<asrwt>0</asrwt>
<pdfrwt beam="1">  1       21 0.10884825E+00 0.17489377E+03</pdfrwt>
<pdfrwt beam="2">  1       21 0.84923175E-02 0.17489377E+03</pdfrwt>
<totfact> 0.73042780E+04</totfact>
</mgrwt>
</event>
<event>
 4    1  0.4025504E+000  0.2692261E+03  0.7546771E-02  0.1101723E+00
         21   -1    0    0  501  502  0.00000000000E+00  0.00000000000E+00  0.63451661074E+03  0.63451661074E+03  0.00000000000E+00 0. -1.
         21   -1    0    0  502  503 -0.00000000000E+00 -0.00000000000E+00 -0.68422973507E+03  0.68422973507E+03  0.00000000000E+00 0. -1.
          6    1    1    2  501    0  0.17767667183E+03 -0.10480787303E+03  0.57696329514E+03  0.63668621306E+03  0.17300000000E+03 0. -1.
         -6    1    1    2    0  503 -0.17767667183E+03  0.10480787303E+03 -0.62667641947E+03  0.68206013275E+03  0.17300000000E+03 0. -1.
<mgrwt>
<rscale>  2 0.26922609E+03</rscale>
<asrwt>0</asrwt>
<pdfrwt beam="1">  1       21 0.97617940E-01 0.26922609E+03</pdfrwt>
<pdfrwt beam="2">  1       21 0.10526611E+00 0.26922609E+03</pdfrwt>
<totfact> 0.58783072E+02</totfact>
</mgrwt>
</event>
<event>
 4    1  0.4025504E+000  0.1743046E+03  0.7546771E-02  0.1173432E+00
         21   -1    0    0  503  502  0.00000000000E+00  0.00000000000E+00  0.12952861010E+03  0.12952861010E+03  0.00000000000E+00 0.  1.
         21   -1    0    0  501  503 -0.00000000000E+00 -0.00000000000E+00 -0.36723020593E+03  0.36723020593E+03  0.00000000000E+00 0.  1.
          6    1    1    2  501    0  0.37114600853E+01  0.20960276868E+02 -0.26814214643E+03  0.31981607032E+03  0.17300000000E+03 0.  1.
         -6    1    1    2    0  502 -0.37114600853E+01 -0.20960276868E+02  0.30440550595E+02  0.17694274572E+03  0.17300000000E+03 0.  1.
<mgrwt>
<rscale>  2 0.17430464E+03</rscale>
<asrwt>0</asrwt>
<pdfrwt beam="1">  1       21 0.19927479E-01 0.17430464E+03</pdfrwt>
<pdfrwt beam="2">  1       21 0.56496955E-01 0.17430464E+03</pdfrwt>
<totfact> 0.69027791E+04</totfact>
</mgrwt>
</event>
<event>
 4    1  0.4025504E+000  0.1911837E+03  0.7546771E-02  0.1157398E+00
         21   -1    0    0  503  502  0.00000000000E+00  0.00000000000E+00  0.60982932850E+03  0.60982932850E+03  0.00000000000E+00 0.  1.
         21   -1    0    0  501  503 -0.00000000000E+00 -0.00000000000E+00 -0.73935752157E+02  0.73935752157E+02  0.00000000000E+00 0.  1.
          6    1    1    2  501    0  0.38356854313E+02  0.71770187656E+02  0.11918283742E+03  0.22529038338E+03  0.17300000000E+03 0.  1.
         -6    1    1    2    0  502 -0.38356854313E+02 -0.71770187656E+02  0.41671073892E+03  0.45847469727E+03  0.17300000000E+03 0.  1.
<mgrwt>
<rscale>  2 0.19118370E+03</rscale>
<asrwt>0</asrwt>
<pdfrwt beam="1">  1       21 0.93819893E-01 0.19118370E+03</pdfrwt>
<pdfrwt beam="2">  1       21 0.11374732E-01 0.19118370E+03</pdfrwt>
<totfact> 0.61628382E+04</totfact>
</mgrwt>
</event>
<event>
 4    1  0.4025504E+000  0.1787319E+03  0.7546771E-02  0.1169036E+00
         21   -1    0    0  501  502  0.00000000000E+00  0.00000000000E+00  0.35378544234E+03  0.35378544234E+03  0.00000000000E+00 0. -1.
         21   -1    0    0  502  503 -0.00000000000E+00 -0.00000000000E+00 -0.13992626748E+03  0.13992626748E+03  0.00000000000E+00 0. -1.
          6    1    1    2  501    0  0.10975641704E+02  0.43538977043E+02  0.25394770694E+03  0.31053912007E+03  0.17300000000E+03 0. -1.
         -6    1    1    2    0  503 -0.10975641704E+02 -0.43538977043E+02 -0.40088532070E+02  0.18317258975E+03  0.17300000000E+03 0. -1.
<mgrwt>
<rscale>  2 0.17873194E+03</rscale>
<asrwt>0</asrwt>
<pdfrwt beam="1">  1       21 0.54428529E-01 0.17873194E+03</pdfrwt>
<pdfrwt beam="2">  1       21 0.21527118E-01 0.17873194E+03</pdfrwt>
<totfact> 0.64518244E+04</totfact>
</mgrwt>
</event>
<event>
 4    1  0.4025504E+000  0.2750700E+03  0.7546771E-02  0.1098412E+00
         21   -1    0    0  503  502  0.00000000000E+00  0.00000000000E+00  0.11929218971E+03  0.11929218971E+03  0.00000000000E+00 0. -1.
         21   -1    0    0  501  503 -0.00000000000E+00 -0.00000000000E+00 -0.65237494337E+03  0.65237494337E+03  0.00000000000E+00 0. -1.
          6    1    1    2  501    0  0.11571728094E+03  0.17984444564E+03 -0.33081670003E+03  0.43023621739E+03  0.17300000000E+03 0. -1.
         -6    1    1    2    0  502 -0.11571728094E+03 -0.17984444564E+03 -0.20226605363E+03  0.34143091569E+03  0.17300000000E+03 0. -1.
<mgrwt>
<rscale>  2 0.27507002E+03</rscale>
<asrwt>0</asrwt>
<pdfrwt beam="1">  1       21 0.18352644E-01 0.27507002E+03</pdfrwt>
<pdfrwt beam="2">  1       21 0.10036538E+00 0.27507002E+03</pdfrwt>
<totfact> 0.21101481E+04</totfact>
</mgrwt>
</event>
<event>
 4    1  0.4025504E+000  0.1788361E+03  0.7546771E-02  0.1168934E+00
         21   -1    0    0  503  502  0.00000000000E+00  0.00000000000E+00  0.33480129439E+03  0.33480129439E+03  0.00000000000E+00 0. -1.
         21   -1    0    0  501  503 -0.00000000000E+00 -0.00000000000E+00 -0.10263448276E+03  0.10263448276E+03  0.00000000000E+00 0. -1.
          6    1    1    2  501    0 -0.40835710991E+02 -0.19641923492E+02  0.58524296012E+02  0.18816868410E+03  0.17300000000E+03 0.  1.
         -6    1    1    2    0  502  0.40835710991E+02  0.19641923492E+02  0.17364251562E+03  0.24926709306E+03  0.17300000000E+03 0.  1.
<mgrwt>
<rscale>  2 0.17883613E+03</rscale>
<asrwt>0</asrwt>
<pdfrwt beam="1">  1       21 0.51507891E-01 0.17883613E+03</pdfrwt>
<pdfrwt beam="2">  1       21 0.15789921E-01 0.17883613E+03</pdfrwt>
<totfact> 0.12853473E+05</totfact>
</mgrwt>
</event>
<event>
 4    1  0.4025504E+000  0.1779737E+03  0.7546771E-02  0.1169779E+00
         21   -1    0    0  501  502  0.00000000000E+00  0.00000000000E+00  0.42534279868E+02  0.42534279868E+02  0.00000000000E+00 0. -1.
         21   -1    0    0  502  503 -0.00000000000E+00 -0.00000000000E+00 -0.80775663997E+03  0.80775663997E+03  0.00000000000E+00 0. -1.
          6    1    1    2  501    0  0.38768117219E+02 -0.15577361859E+02 -0.26381133228E+03  0.31823111123E+03  0.17300000000E+03 0. -1.
         -6    1    1    2    0  503 -0.38768117219E+02  0.15577361859E+02 -0.50141102783E+03  0.53205980861E+03  0.17300000000E+03 0. -1.
<mgrwt>
<rscale>  2 0.17797365E+03</rscale>
<asrwt>0</asrwt>
<pdfrwt beam="1">  1       21 0.65437349E-02 0.17797365E+03</pdfrwt>
<pdfrwt beam="2">  1       21 0.12427026E+00 0.17797365E+03</pdfrwt>
<totfact> 0.82805436E+04</totfact>
</mgrwt>
</event>
<event>
 4    1  0.4025504E+000  0.1813775E+03  0.7546771E-02  0.1166476E+00
         21   -1    0    0  501  502  0.00000000000E+00  0.00000000000E+00  0.60211498401E+03  0.60211498401E+03  0.00000000000E+00 0.  1.
         21   -1    0    0  502  503 -0.00000000000E+00 -0.00000000000E+00 -0.56110617386E+02  0.56110617386E+02  0.00000000000E+00 0. -1.
          6    1    1    2  501    0  0.21046758155E+02  0.50257811568E+02  0.21966861976E+03  0.28487210492E+03  0.17300000000E+03 0.  1.
         -6    1    1    2    0  503 -0.21046758155E+02 -0.50257811568E+02  0.32633574686E+03  0.37335349647E+03  0.17300000000E+03 0.  1.
<mgrwt>
<rscale>  2 0.18137754E+03</rscale>
<asrwt>0</asrwt>
<pdfrwt beam="1">  1       21 0.92633070E-01 0.18137754E+03</pdfrwt>
<pdfrwt beam="2">  1       21 0.86324031E-02 0.18137754E+03</pdfrwt>
<totfact> 0.10371660E+05</totfact>
</mgrwt>
</event>
<event>
 4    1  0.4025504E+000  0.1746650E+03  0.7546771E-02  0.1173069E+00
         21   -1    0    0  503  502  0.00000000000E+00  0.00000000000E+00  0.15045727662E+04  0.15045727662E+04  0.00000000000E+00 0.  1.
         21   -1    0    0  501  503 -0.00000000000E+00 -0.00000000000E+00 -0.24101731852E+02  0.24101731852E+02  0.00000000000E+00 0.  1.
          6    1    1    2  501    0 -0.61655313328E+01 -0.23255939041E+02  0.43574390146E+03  0.46944712176E+03  0.17300000000E+03 0. -1.
         -6    1    1    2    0  502  0.61655313328E+01  0.23255939041E+02  0.10447271329E+04  0.10592273763E+04  0.17300000000E+03 0. -1.
<mgrwt>
<rscale>  2 0.17466497E+03</rscale>
<asrwt>0</asrwt>
<pdfrwt beam="1">  1       21 0.23147266E+00 0.17466497E+03</pdfrwt>
<pdfrwt beam="2">  1       21 0.37079599E-02 0.17466497E+03</pdfrwt>
<totfact> 0.38653088E+04</totfact>
</mgrwt>
</event>
<event>
 4    1  0.4025504E+000  0.2635516E+03  0.7546771E-02  0.1105028E+00
         21   -1    0    0  501  502  0.00000000000E+00  0.00000000000E+00  0.24644520087E+03  0.24644520087E+03  0.00000000000E+00 0.  1.
         21   -1    0    0  502  503 -0.00000000000E+00 -0.00000000000E+00 -0.28380685038E+03  0.28380685038E+03  0.00000000000E+00 0. -1.
          6    1    1    2  501    0  0.13641253224E+03 -0.14464467456E+03 -0.40721404951E+02  0.26667900865E+03  0.17300000000E+03 0. -1.
         -6    1    1    2    0  503 -0.13641253224E+03  0.14464467456E+03  0.33597554494E+01  0.26357304260E+03  0.17300000000E+03 0.  1.
<mgrwt>
<rscale>  2 0.26355163E+03</rscale>
<asrwt>0</asrwt>
<pdfrwt beam="1">  1       21 0.37914646E-01 0.26355163E+03</pdfrwt>
<pdfrwt beam="2">  1       21 0.43662592E-01 0.26355163E+03</pdfrwt>
<totfact> 0.32694471E+04</totfact>
</mgrwt>
</event>
<event>
 4    1  0.4025504E+000  0.1770004E+03  0.7546771E-02  0.1170738E+00
         21   -1    0    0  501  502  0.00000000000E+00  0.00000000000E+00  0.51556180444E+02  0.51556180444E+02  0.00000000000E+00 0. -1.
         21   -1    0    0  502  503 -0.00000000000E+00 -0.00000000000E+00 -0.76474973416E+03  0.76474973416E+03  0.00000000000E+00 0. -1.
          6    1    1    2  501    0 -0.54562409570E+01  0.37018710248E+02 -0.17161750911E+03  0.24653949969E+03  0.17300000000E+03 0. -1.
         -6    1    1    2    0  503  0.54562409570E+01 -0.37018710248E+02 -0.54157604461E+03  0.56976641491E+03  0.17300000000E+03 0. -1.
<mgrwt>
<rscale>  2 0.17700044E+03</rscale>
<asrwt>0</asrwt>
<pdfrwt beam="1">  1       21 0.79317196E-02 0.17700044E+03</pdfrwt>
<pdfrwt beam="2">  1       21 0.11765381E+00 0.17700044E+03</pdfrwt>
<totfact> 0.68048804E+04</totfact>
</mgrwt>
</event>
<event>
 4    1  0.4025504E+000  0.2039563E+03  0.7546771E-02  0.1146443E+00
         21   -1    0    0  501  502  0.00000000000E+00  0.00000000000E+00  0.19225125497E+04  0.19225125497E+04  0.00000000000E+00 0.  1.
         21   -1    0    0  502  503 -0.00000000000E+00 -0.00000000000E+00 -0.23137222854E+02  0.23137222854E+02  0.00000000000E+00 0. -1.
          6    1    1    2  501    0  0.95609091351E+02 -0.50280157455E+02  0.11973714447E+04  0.12146178696E+04  0.17300000000E+03 0.  1.
         -6    1    1    2    0  503 -0.95609091351E+02  0.50280157455E+02  0.70200388217E+03  0.73103190298E+03  0.17300000000E+03 0. -1.
<mgrwt>
<rscale>  2 0.20395635E+03</rscale>
<asrwt>0</asrwt>
<pdfrwt beam="1">  1       21 0.29577104E+00 0.20395635E+03</pdfrwt>
<pdfrwt beam="2">  1       21 0.35595743E-02 0.20395635E+03</pdfrwt>
<totfact> 0.17003487E+04</totfact>
</mgrwt>
</event>
<event>
 4    1  0.4025504E+000  0.1818475E+03  0.7546771E-02  0.1166027E+00
         21   -1    0    0  501  502  0.00000000000E+00  0.00000000000E+00  0.13583956509E+03  0.13583956509E+03  0.00000000000E+00 0.  1.
         21   -1    0    0  502  503 -0.00000000000E+00 -0.00000000000E+00 -0.28384510075E+03  0.28384510075E+03  0.00000000000E+00 0.  1.
          6    1    1    2  501    0 -0.90115811936E+01 -0.55301780725E+02  0.51711074429E+01  0.18192096058E+03  0.17300000000E+03 0.  1.
         -6    1    1    2    0  503  0.90115811936E+01  0.55301780725E+02 -0.15317664310E+03  0.23776370526E+03  0.17300000000E+03 0.  1.
<mgrwt>
<rscale>  2 0.18184745E+03</rscale>
<asrwt>0</asrwt>
<pdfrwt beam="1">  1       21 0.20898395E-01 0.18184745E+03</pdfrwt>
<pdfrwt beam="2">  1       21 0.43668477E-01 0.18184745E+03</pdfrwt>
<totfact> 0.10756753E+05</totfact>
</mgrwt>
</event>
<event>
 4    1  0.4025504E+000  0.1882085E+03  0.7546771E-02  0.1160087E+00
         21   -1    0    0  501  502  0.00000000000E+00  0.00000000000E+00  0.13099840135E+04  0.13099840135E+04  0.00000000000E+00 0.  1.
         21   -1    0    0  502  503 -0.00000000000E+00 -0.00000000000E+00 -0.27274539816E+02  0.27274539816E+02  0.00000000000E+00 0.  1.
          6    1    1    2  501    0  0.72951762175E+02 -0.13094738554E+02  0.57939825652E+03  0.60920010788E+03  0.17300000000E+03 0.  1.
         -6    1    1    2    0  503 -0.72951762175E+02  0.13094738554E+02  0.70331121716E+03  0.72805844543E+03  0.17300000000E+03 0.  1.
<mgrwt>
<rscale>  2 0.18820848E+03</rscale>
<asrwt>0</asrwt>
<pdfrwt beam="1">  1       21 0.20153595E+00 0.18820848E+03</pdfrwt>
<pdfrwt beam="2">  1       21 0.41960841E-02 0.18820848E+03</pdfrwt>
<totfact> 0.47605054E+04</totfact>
</mgrwt>
</event>
<event>
 4    1  0.4025504E+000  0.2182806E+03  0.7546771E-02  0.1135171E+00
         21   -1    0    0  503  502  0.00000000000E+00  0.00000000000E+00  0.65864042142E+03  0.65864042142E+03  0.00000000000E+00 0. -1.
         21   -1    0    0  501  503 -0.00000000000E+00 -0.00000000000E+00 -0.83317098916E+02  0.83317098916E+02  0.00000000000E+00 0. -1.
          6    1    1    2  501    0 -0.26466172128E+02  0.13044903472E+03  0.15300900448E+03  0.26656737306E+03  0.17300000000E+03 0. -1.
         -6    1    1    2    0  502  0.26466172128E+02 -0.13044903472E+03  0.42231431802E+03  0.47539014728E+03  0.17300000000E+03 0. -1.
<mgrwt>
<rscale>  2 0.21828057E+03</rscale>
<asrwt>0</asrwt>
<pdfrwt beam="1">  1       21 0.10132929E+00 0.21828057E+03</pdfrwt>
<pdfrwt beam="2">  1       21 0.12818016E-01 0.21828057E+03</pdfrwt>
<totfact> 0.40924519E+04</totfact>
</mgrwt>
</event>
<event>
 4    1  0.4025504E+000  0.1773407E+03  0.7546771E-02  0.1170402E+00
         21   -1    0    0  501  502  0.00000000000E+00  0.00000000000E+00  0.92992167030E+02  0.92992167030E+02  0.00000000000E+00 0.  1.
         21   -1    0    0  502  503 -0.00000000000E+00 -0.00000000000E+00 -0.34686360360E+03  0.34686360360E+03  0.00000000000E+00 0.  1.
          6    1    1    2  501    0  0.32176020468E+02 -0.22032710404E+02 -0.16169797507E+03  0.23999160770E+03  0.17300000000E+03 0.  1.
         -6    1    1    2    0  503 -0.32176020468E+02  0.22032710404E+02 -0.92173461491E+02  0.19986416293E+03  0.17300000000E+03 0.  1.
<mgrwt>
<rscale>  2 0.17734074E+03</rscale>
<asrwt>0</asrwt>
<pdfrwt beam="1">  1       21 0.14306487E-01 0.17734074E+03</pdfrwt>
<pdfrwt beam="2">  1       21 0.53363632E-01 0.17734074E+03</pdfrwt>
<totfact> 0.14286196E+05</totfact>
</mgrwt>
</event>
<event>
 4    1  0.4025504E+000  0.1893017E+03  0.7546771E-02  0.1159093E+00
         21   -1    0    0  501  502  0.00000000000E+00  0.00000000000E+00  0.14273821914E+02  0.14273821914E+02  0.00000000000E+00 0. -1.
         21   -1    0    0  502  503 -0.00000000000E+00 -0.00000000000E+00 -0.33519592316E+04  0.33519592316E+04  0.00000000000E+00 0. -1.
          6    1    1    2  501    0 -0.32328223071E+02 -0.69721087807E+02 -0.25121161955E+04  0.25192385604E+04  0.17300000000E+03 0. -1.
         -6    1    1    2    0  503  0.32328223071E+02  0.69721087807E+02 -0.82556921410E+03  0.84699449312E+03  0.17300000000E+03 0. -1.
<mgrwt>
<rscale>  2 0.18930173E+03</rscale>
<asrwt>0</asrwt>
<pdfrwt beam="1">  1       21 0.21959686E-02 0.18930173E+03</pdfrwt>
<pdfrwt beam="2">  1       21 0.51568696E+00 0.18930173E+03</pdfrwt>
<totfact> 0.15555206E+03</totfact>
</mgrwt>
</event>
<event>
 4    1  0.4025504E+000  0.1936304E+03  0.7546771E-02  0.1155227E+00
         21   -1    0    0  501  502  0.00000000000E+00  0.00000000000E+00  0.82976179699E+02  0.82976179699E+02  0.00000000000E+00 0.  1.
         21   -1    0    0  502  503 -0.00000000000E+00 -0.00000000000E+00 -0.46482439261E+03  0.46482439261E+03  0.00000000000E+00 0.  1.
          6    1    1    2  501    0  0.34009939165E+02  0.80044003670E+02 -0.23668614125E+03  0.30579903196E+03  0.17300000000E+03 0. -1.
         -6    1    1    2    0  503 -0.34009939165E+02 -0.80044003670E+02 -0.14516207167E+03  0.24200154036E+03  0.17300000000E+03 0. -1.
<mgrwt>
<rscale>  2 0.19363037E+03</rscale>
<asrwt>0</asrwt>
<pdfrwt beam="1">  1       21 0.12765566E-01 0.19363037E+03</pdfrwt>
<pdfrwt beam="2">  1       21 0.71511446E-01 0.19363037E+03</pdfrwt>
<totfact> 0.92801288E+04</totfact>
</mgrwt>
</event>
<event>
 4    1  0.4025504E+000  0.1936908E+03  0.7546771E-02  0.1155174E+00
         21   -1    0    0  503  502  0.00000000000E+00  0.00000000000E+00  0.35388770092E+03  0.35388770092E+03  0.00000000000E+00 0.  1.
         21   -1    0    0  501  503 -0.00000000000E+00 -0.00000000000E+00 -0.39235012158E+03  0.39235012158E+03  0.00000000000E+00 0.  1.
          6    1    1    2  501    0  0.12732333572E+01  0.87094698876E+02 -0.33798140278E+03  0.38954786140E+03  0.17300000000E+03 0.  1.
         -6    1    1    2    0  502 -0.12732333572E+01 -0.87094698876E+02  0.29951898212E+03  0.35668996109E+03  0.17300000000E+03 0.  1.
<mgrwt>
<rscale>  2 0.19369075E+03</rscale>
<asrwt>0</asrwt>
<pdfrwt beam="1">  1       21 0.54444262E-01 0.19369075E+03</pdfrwt>
<pdfrwt beam="2">  1       21 0.60361557E-01 0.19369075E+03</pdfrwt>
<totfact> 0.81463533E+03</totfact>
</mgrwt>
</event>
<event>
 4    1  0.4025504E+000  0.2528129E+03  0.7546771E-02  0.1111540E+00
         21   -1    0    0  501  502  0.00000000000E+00  0.00000000000E+00  0.48988662615E+03  0.48988662615E+03  0.00000000000E+00 0.  1.
         21   -1    0    0  502  503 -0.00000000000E+00 -0.00000000000E+00 -0.45272839994E+03  0.45272839994E+03  0.00000000000E+00 0.  1.
          6    1    1    2  501    0  0.15203050169E+03  0.10426929272E+03  0.41621831860E+03  0.48698259475E+03  0.17300000000E+03 0.  1.
         -6    1    1    2    0  503 -0.15203050169E+03 -0.10426929272E+03 -0.37906009239E+03  0.45563243134E+03  0.17300000000E+03 0.  1.
<mgrwt>
<rscale>  2 0.25281289E+03</rscale>
<asrwt>0</asrwt>
<pdfrwt beam="1">  1       21 0.75367173E-01 0.25281289E+03</pdfrwt>
<pdfrwt beam="2">  1       21 0.69650523E-01 0.25281289E+03</pdfrwt>
<totfact> 0.28138818E+03</totfact>
</mgrwt>
</event>
<event>
 4    1  0.4025504E+000  0.1860438E+03  0.7546771E-02  0.1162079E+00
         21   -1    0    0  501  502  0.00000000000E+00  0.00000000000E+00  0.27324556672E+03  0.27324556672E+03  0.00000000000E+00 0.  1.
         21   -1    0    0  502  503 -0.00000000000E+00 -0.00000000000E+00 -0.22816075416E+03  0.22816075416E+03  0.00000000000E+00 0.  1.
          6    1    1    2  501    0 -0.59027440264E+02 -0.34627294292E+02  0.18974786238E+03  0.26573772689E+03  0.17300000000E+03 0.  1.
         -6    1    1    2    0  503  0.59027440264E+02  0.34627294292E+02 -0.14466304982E+03  0.23566859400E+03  0.17300000000E+03 0.  1.
<mgrwt>
<rscale>  2 0.18604378E+03</rscale>
<asrwt>0</asrwt>
<pdfrwt beam="1">  1       21 0.42037780E-01 0.18604378E+03</pdfrwt>
<pdfrwt beam="2">  1       21 0.35101654E-01 0.18604378E+03</pdfrwt>
<totfact> 0.42750367E+04</totfact>
</mgrwt>
</event>
<event>
 4    1  0.4025504E+000  0.1754663E+03  0.7546771E-02  0.1172264E+00
         21   -1    0    0  503  502  0.00000000000E+00  0.00000000000E+00  0.83233932066E+03  0.83233932066E+03  0.00000000000E+00 0. -1.
         21   -1    0    0  501  503 -0.00000000000E+00 -0.00000000000E+00 -0.43963312479E+02  0.43963312479E+02  0.00000000000E+00 0. -1.
          6    1    1    2  501    0 -0.23556168083E+02  0.17450491386E+02  0.21968950328E+03  0.28116168045E+03  0.17300000000E+03 0. -1.
         -6    1    1    2    0  502  0.23556168083E+02 -0.17450491386E+02  0.56868650490E+03  0.59514095268E+03  0.17300000000E+03 0. -1.
<mgrwt>
<rscale>  2 0.17546627E+03</rscale>
<asrwt>0</asrwt>
<pdfrwt beam="1">  1       21 0.12805219E+00 0.17546627E+03</pdfrwt>
<pdfrwt beam="2">  1       21 0.67635871E-02 0.17546627E+03</pdfrwt>
<totfact> 0.72674032E+04</totfact>
</mgrwt>
</event>
<event>
 4    1  0.4025504E+000  0.2600599E+03  0.7546771E-02  0.1107107E+00
         21   -1    0    0  501  502  0.00000000000E+00  0.00000000000E+00  0.75420420961E+03  0.75420420961E+03  0.00000000000E+00 0. -1.
         21   -1    0    0  502  503 -0.00000000000E+00 -0.00000000000E+00 -0.10750351148E+03  0.10750351148E+03  0.00000000000E+00 0. -1.
          6    1    1    2  501    0 -0.12968769530E+03  0.14451042689E+03  0.14787741898E+03  0.29916365561E+03  0.17300000000E+03 0. -1.
         -6    1    1    2    0  503  0.12968769530E+03 -0.14451042689E+03  0.49882327915E+03  0.56254406549E+03  0.17300000000E+03 0. -1.
<mgrwt>
<rscale>  2 0.26005992E+03</rscale>
<asrwt>0</asrwt>
<pdfrwt beam="1">  1       21 0.11603141E+00 0.26005992E+03</pdfrwt>
<pdfrwt beam="2">  1       21 0.16539002E-01 0.26005992E+03</pdfrwt>
<totfact> 0.18108573E+04</totfact>
</mgrwt>
</event>
<event>
 4    1  0.4025504E+000  0.2019485E+03  0.7546771E-02  0.1148105E+00
         21   -1    0    0  501  502  0.00000000000E+00  0.00000000000E+00  0.18427463579E+03  0.18427463579E+03  0.00000000000E+00 0. -1.
         21   -1    0    0  502  503 -0.00000000000E+00 -0.00000000000E+00 -0.60343353491E+03  0.60343353491E+03  0.00000000000E+00 0.  1.
          6    1    1    2  501    0  0.10041233990E+03  0.27777024919E+02  0.10383445998E+03  0.22707883256E+03  0.17300000000E+03 0. -1.
         -6    1    1    2    0  503 -0.10041233990E+03 -0.27777024919E+02 -0.52299335911E+03  0.56062933814E+03  0.17300000000E+03 0.  1.
<mgrwt>
<rscale>  2 0.20194851E+03</rscale>
<asrwt>0</asrwt>
<pdfrwt beam="1">  1       21 0.28349944E-01 0.20194851E+03</pdfrwt>
<pdfrwt beam="2">  1       21 0.92835929E-01 0.20194851E+03</pdfrwt>
<totfact> 0.11553634E+04</totfact>
</mgrwt>
</event>
<event>
 4    1  0.4025504E+000  0.1900143E+03  0.7546771E-02  0.1158448E+00
         21   -1    0    0  501  502  0.00000000000E+00  0.00000000000E+00  0.23821668996E+04  0.23821668996E+04  0.00000000000E+00 0.  1.
         21   -1    0    0  502  503 -0.00000000000E+00 -0.00000000000E+00 -0.15667658681E+03  0.15667658681E+03  0.00000000000E+00 0. -1.
          6    1    1    2  501    0  0.19885971100E+02 -0.76032849459E+02  0.23192049107E+04  0.23269759053E+04  0.17300000000E+03 0.  1.
         -6    1    1    2    0  503 -0.19885971100E+02  0.76032849459E+02 -0.93714597937E+02  0.21186758107E+03  0.17300000000E+03 0. -1.
<mgrwt>
<rscale>  2 0.19001433E+03</rscale>
<asrwt>0</asrwt>
<pdfrwt beam="1">  1       21 0.36648719E+00 0.19001433E+03</pdfrwt>
<pdfrwt beam="2">  1       21 0.24104092E-01 0.19001433E+03</pdfrwt>
<totfact> 0.22758124E+02</totfact>
</mgrwt>
</event>
<event>
 4    1  0.4025504E+000  0.2272948E+03  0.7546771E-02  0.1128558E+00
         21   -1    0    0  501  502  0.00000000000E+00  0.00000000000E+00  0.97456503224E+02  0.97456503224E+02  0.00000000000E+00 0.  1.
         21   -1    0    0  502  503 -0.00000000000E+00 -0.00000000000E+00 -0.74900337490E+03  0.74900337490E+03  0.00000000000E+00 0. -1.
          6    1    1    2  501    0  0.11342096660E+03 -0.94178594329E+02 -0.55456931260E+03  0.59934134329E+03  0.17300000000E+03 0.  1.
         -6    1    1    2    0  503 -0.11342096660E+03  0.94178594329E+02 -0.96977559073E+02  0.24711853483E+03  0.17300000000E+03 0.  1.
<mgrwt>
<rscale>  2 0.22729479E+03</rscale>
<asrwt>0</asrwt>
<pdfrwt beam="1">  1       21 0.14993309E-01 0.22729479E+03</pdfrwt>
<pdfrwt beam="2">  1       21 0.11523128E+00 0.22729479E+03</pdfrwt>
<totfact> 0.22438828E+04</totfact>
</mgrwt>
</event>
<event>
 4    1  0.4025504E+000  0.1825248E+03  0.7546771E-02  0.1165382E+00
         21   -1    0    0  503  502  0.00000000000E+00  0.00000000000E+00  0.32040486995E+03  0.32040486995E+03  0.00000000000E+00 0. -1.
         21   -1    0    0  501  503 -0.00000000000E+00 -0.00000000000E+00 -0.10638510650E+03  0.10638510650E+03  0.00000000000E+00 0. -1.
          6    1    1    2  501    0 -0.88935063602E+01 -0.57508218277E+02  0.74915714893E+02  0.19730092236E+03  0.17300000000E+03 0. -1.
         -6    1    1    2    0  502  0.88935063602E+01  0.57508218277E+02  0.13910404856E+03  0.22948905409E+03  0.17300000000E+03 0. -1.
<mgrwt>
<rscale>  2 0.18252476E+03</rscale>
<asrwt>0</asrwt>
<pdfrwt beam="1">  1       21 0.49293056E-01 0.18252476E+03</pdfrwt>
<pdfrwt beam="2">  1       21 0.16366940E-01 0.18252476E+03</pdfrwt>
<totfact> 0.13174749E+05</totfact>
</mgrwt>
</event>
<event>
 4    1  0.4025504E+000  0.2139627E+03  0.7546771E-02  0.1138466E+00
         21   -1    0    0  503  502  0.00000000000E+00  0.00000000000E+00  0.13507721261E+03  0.13507721261E+03  0.00000000000E+00 0. -1.
         21   -1    0    0  501  503 -0.00000000000E+00 -0.00000000000E+00 -0.43632983144E+03  0.43632983144E+03  0.00000000000E+00 0.  1.
          6    1    1    2  501    0 -0.11743682890E+03 -0.45383029303E+02 -0.28562052533E+03  0.35687408510E+03  0.17300000000E+03 0.  1.
         -6    1    1    2    0  502  0.11743682890E+03  0.45383029303E+02 -0.15632093504E+02  0.21453295895E+03  0.17300000000E+03 0.  1.
<mgrwt>
<rscale>  2 0.21396268E+03</rscale>
<asrwt>0</asrwt>
<pdfrwt beam="1">  1       21 0.20781109E-01 0.21396268E+03</pdfrwt>
<pdfrwt beam="2">  1       21 0.67127667E-01 0.21396268E+03</pdfrwt>
<totfact> 0.43185229E+04</totfact>
</mgrwt>
</event>
<event>
 4    1  0.4025504E+000  0.1868909E+03  0.7546771E-02  0.1161296E+00
         21   -1    0    0  501  502  0.00000000000E+00  0.00000000000E+00  0.42791742521E+03  0.42791742521E+03  0.00000000000E+00 0.  1.
         21   -1    0    0  502  503 -0.00000000000E+00 -0.00000000000E+00 -0.10822470304E+03  0.10822470304E+03  0.00000000000E+00 0.  1.
          6    1    1    2  501    0 -0.25350224610E+02 -0.66004215229E+02  0.26942990410E+02  0.18882297278E+03  0.17300000000E+03 0. -1.
         -6    1    1    2    0  503  0.25350224610E+02  0.66004215229E+02  0.29274973176E+03  0.34731915548E+03  0.17300000000E+03 0. -1.
<mgrwt>
<rscale>  2 0.18689085E+03</rscale>
<asrwt>0</asrwt>
<pdfrwt beam="1">  1       21 0.65833449E-01 0.18689085E+03</pdfrwt>
<pdfrwt beam="2">  1       21 0.16649955E-01 0.18689085E+03</pdfrwt>
<totfact> 0.68881737E+04</totfact>
</mgrwt>
</event>
<event>
 4    1  0.4025504E+000  0.2051708E+03  0.7546771E-02  0.1145448E+00
         21   -1    0    0  503  502  0.00000000000E+00  0.00000000000E+00  0.16388634516E+04  0.16388634516E+04  0.00000000000E+00 0.  1.
         21   -1    0    0  501  503 -0.00000000000E+00 -0.00000000000E+00 -0.28286364408E+02  0.28286364408E+02  0.00000000000E+00 0.  1.
          6    1    1    2  501    0 -0.10857055181E+03 -0.19454635394E+02  0.55252532021E+03  0.58938890135E+03  0.17300000000E+03 0.  1.
         -6    1    1    2    0  502  0.10857055181E+03  0.19454635394E+02  0.10580517670E+04  0.10777609147E+04  0.17300000000E+03 0.  1.
<mgrwt>
<rscale>  2 0.20517078E+03</rscale>
<asrwt>0</asrwt>
<pdfrwt beam="1">  1       21 0.25213276E+00 0.20517078E+03</pdfrwt>
<pdfrwt beam="2">  1       21 0.43517497E-02 0.20517078E+03</pdfrwt>
<totfact> 0.21738207E+04</totfact>
</mgrwt>
</event>
<event>
 4    1  0.4025504E+000  0.1786185E+03  0.7546771E-02  0.1169147E+00
         21   -1    0    0  501  502  0.00000000000E+00  0.00000000000E+00  0.77884206858E+02  0.77884206858E+02  0.00000000000E+00 0.  1.
         21   -1    0    0  502  503 -0.00000000000E+00 -0.00000000000E+00 -0.48535179190E+03  0.48535179190E+03  0.00000000000E+00 0.  1.
          6    1    1    2  501    0 -0.41531862656E+02  0.15832245667E+02 -0.92506514984E+02  0.20115171124E+03  0.17300000000E+03 0.  1.
         -6    1    1    2    0  503  0.41531862656E+02 -0.15832245667E+02 -0.31496107006E+03  0.36208428752E+03  0.17300000000E+03 0.  1.
<mgrwt>
<rscale>  2 0.17861846E+03</rscale>
<asrwt>0</asrwt>
<pdfrwt beam="1">  1       21 0.11982186E-01 0.17861846E+03</pdfrwt>
<pdfrwt beam="2">  1       21 0.74669507E-01 0.17861846E+03</pdfrwt>
<totfact> 0.95004308E+04</totfact>
</mgrwt>
</event>
<event>
 4    1  0.4025504E+000  0.2031967E+03  0.7546771E-02  0.1147070E+00
         21   -1    0    0  503  502  0.00000000000E+00  0.00000000000E+00  0.59936085694E+03  0.59936085694E+03  0.00000000000E+00 0. -1.
         21   -1    0    0  501  503 -0.00000000000E+00 -0.00000000000E+00 -0.73744953329E+02  0.73744953329E+02  0.00000000000E+00 0. -1.
          6    1    1    2  501    0 -0.95854381174E+02  0.46603060401E+02  0.17643874263E+03  0.26910878382E+03  0.17300000000E+03 0. -1.
         -6    1    1    2    0  502  0.95854381174E+02 -0.46603060401E+02  0.34917716098E+03  0.40399702645E+03  0.17300000000E+03 0. -1.
<mgrwt>
<rscale>  2 0.20319672E+03</rscale>
<asrwt>0</asrwt>
<pdfrwt beam="1">  1       21 0.92209359E-01 0.20319672E+03</pdfrwt>
<pdfrwt beam="2">  1       21 0.11345378E-01 0.20319672E+03</pdfrwt>
<totfact> 0.64091919E+04</totfact>
</mgrwt>
</event>
<event>
 4    1  0.4025504E+000  0.1842408E+03  0.7546771E-02  0.1163761E+00
         21   -1    0    0  503  502  0.00000000000E+00  0.00000000000E+00  0.12027565119E+03  0.12027565119E+03  0.00000000000E+00 0.  1.
         21   -1    0    0  501  503 -0.00000000000E+00 -0.00000000000E+00 -0.54799508285E+03  0.54799508285E+03  0.00000000000E+00 0.  1.
          6    1    1    2  501    0 -0.36090705330E+02 -0.52087603903E+02 -0.44655527772E+03  0.48306963634E+03  0.17300000000E+03 0.  1.
         -6    1    1    2    0  502  0.36090705330E+02  0.52087603903E+02  0.18835846071E+02  0.18520109770E+03  0.17300000000E+03 0.  1.
<mgrwt>
<rscale>  2 0.18424076E+03</rscale>
<asrwt>0</asrwt>
<pdfrwt beam="1">  1       21 0.18503946E-01 0.18424076E+03</pdfrwt>
<pdfrwt beam="2">  1       21 0.84306938E-01 0.18424076E+03</pdfrwt>
<totfact> 0.32717297E+04</totfact>
</mgrwt>
</event>
<event>
 4    1  0.4025504E+000  0.1778449E+03  0.7546771E-02  0.1169905E+00
         21   -1    0    0  503  502  0.00000000000E+00  0.00000000000E+00  0.50159855551E+03  0.50159855551E+03  0.00000000000E+00 0.  1.
         21   -1    0    0  501  503 -0.00000000000E+00 -0.00000000000E+00 -0.75534672177E+02  0.75534672177E+02  0.00000000000E+00 0.  1.
          6    1    1    2  501    0 -0.14773027491E+02 -0.38491104021E+02  0.95743075619E+02  0.20197906812E+03  0.17300000000E+03 0.  1.
         -6    1    1    2    0  502  0.14773027491E+02  0.38491104021E+02  0.33032080771E+03  0.37515415956E+03  0.17300000000E+03 0.  1.
<mgrwt>
<rscale>  2 0.17784490E+03</rscale>
<asrwt>0</asrwt>
<pdfrwt beam="1">  1       21 0.77169006E-01 0.17784490E+03</pdfrwt>
<pdfrwt beam="2">  1       21 0.11620719E-01 0.17784490E+03</pdfrwt>
<totfact> 0.93256422E+04</totfact>
</mgrwt>
</event>
<event>
 4    1  0.4025504E+000  0.2277537E+03  0.7546771E-02  0.1128231E+00
         21   -1    0    0  501  502  0.00000000000E+00  0.00000000000E+00  0.51313611540E+03  0.51313611540E+03  0.00000000000E+00 0.  1.
         21   -1    0    0  502  503 -0.00000000000E+00 -0.00000000000E+00 -0.11165958065E+03  0.11165958065E+03  0.00000000000E+00 0. -1.
          6    1    1    2  501    0 -0.96518998578E+02  0.11236912542E+03  0.29686333397E+03  0.37416517274E+03  0.17300000000E+03 0. -1.
         -6    1    1    2    0  503  0.96518998578E+02 -0.11236912542E+03  0.10461320078E+03  0.25063052330E+03  0.17300000000E+03 0. -1.
<mgrwt>
<rscale>  2 0.22775368E+03</rscale>
<asrwt>0</asrwt>
<pdfrwt beam="1">  1       21 0.78944016E-01 0.22775368E+03</pdfrwt>
<pdfrwt beam="2">  1       21 0.17178397E-01 0.22775368E+03</pdfrwt>
<totfact> 0.42624921E+04</totfact>
</mgrwt>
</event>
<event>
 4    1  0.4025504E+000  0.2881835E+03  0.7546771E-02  0.1091301E+00
         21   -1    0    0  501  502  0.00000000000E+00  0.00000000000E+00  0.11774203149E+03  0.11774203149E+03  0.00000000000E+00 0. -1.
         21   -1    0    0  502  503 -0.00000000000E+00 -0.00000000000E+00 -0.11383036145E+04  0.11383036145E+04  0.00000000000E+00 0.  1.
          6    1    1    2  501    0 -0.19679058960E+03 -0.11997569296E+03 -0.12296472221E+03  0.31332096318E+03  0.17300000000E+03 0. -1.
         -6    1    1    2    0  503  0.19679058960E+03  0.11997569296E+03 -0.89759686076E+03  0.94272468277E+03  0.17300000000E+03 0.  1.
<mgrwt>
<rscale>  2 0.28818345E+03</rscale>
<asrwt>0</asrwt>
<pdfrwt beam="1">  1       21 0.18114159E-01 0.28818345E+03</pdfrwt>
<pdfrwt beam="2">  1       21 0.17512363E+00 0.28818345E+03</pdfrwt>
<totfact> 0.50873573E+03</totfact>
</mgrwt>
</event>
<event>
 4    1  0.4025504E+000  0.2895926E+03  0.7546771E-02  0.1090562E+00
         21   -1    0    0  501  502  0.00000000000E+00  0.00000000000E+00  0.39723995927E+03  0.39723995927E+03  0.00000000000E+00 0. -1.
         21   -1    0    0  502  503 -0.00000000000E+00 -0.00000000000E+00 -0.21438579808E+03  0.21438579808E+03  0.00000000000E+00 0.  1.
          6    1    1    2  501    0  0.10562925264E+02  0.23199851461E+03  0.12919203682E+03  0.31710324588E+03  0.17300000000E+03 0.  1.
         -6    1    1    2    0  503 -0.10562925264E+02 -0.23199851461E+03  0.53662124378E+02  0.29452251147E+03  0.17300000000E+03 0. -1.
<mgrwt>
<rscale>  2 0.28959262E+03</rscale>
<asrwt>0</asrwt>
<pdfrwt beam="1">  1       21 0.61113840E-01 0.28959262E+03</pdfrwt>
<pdfrwt beam="2">  1       21 0.32982430E-01 0.28959262E+03</pdfrwt>
<totfact> 0.21000849E+04</totfact>
</mgrwt>
</event>
<event>
 4    1  0.4025504E+000  0.1781369E+03  0.7546771E-02  0.1169618E+00
         21   -1    0    0  503  502  0.00000000000E+00  0.00000000000E+00  0.32592938092E+02  0.32592938092E+02  0.00000000000E+00 0.  1.
         21   -1    0    0  501  503 -0.00000000000E+00 -0.00000000000E+00 -0.17602459081E+04  0.17602459081E+04  0.00000000000E+00 0.  1.
          6    1    1    2  501    0 -0.27888910314E+02 -0.32030538205E+02 -0.14630819590E+04  0.14738865510E+04  0.17300000000E+03 0.  1.
         -6    1    1    2    0  502  0.27888910314E+02  0.32030538205E+02 -0.26457101104E+03  0.31895229515E+03  0.17300000000E+03 0.  1.
<mgrwt>
<rscale>  2 0.17813688E+03</rscale>
<asrwt>0</asrwt>
<pdfrwt beam="1">  1       21 0.50142989E-02 0.17813688E+03</pdfrwt>
<pdfrwt beam="2">  1       21 0.27080702E+00 0.17813688E+03</pdfrwt>
<totfact> 0.13659187E+04</totfact>
</mgrwt>
</event>
<event>
 4    1  0.4025504E+000  0.2053351E+03  0.7546771E-02  0.1145314E+00
         21   -1    0    0  501  502  0.00000000000E+00  0.00000000000E+00  0.81780051750E+02  0.81780051750E+02  0.00000000000E+00 0. -1.
         21   -1    0    0  502  503 -0.00000000000E+00 -0.00000000000E+00 -0.51600099567E+03  0.51600099567E+03  0.00000000000E+00 0.  1.
          6    1    1    2  501    0  0.11057965655E+03 -0.23734842848E+01 -0.22585189725E+03  0.30524018962E+03  0.17300000000E+03 0.  1.
         -6    1    1    2    0  503 -0.11057965655E+03  0.23734842848E+01 -0.20836904667E+03  0.29254085780E+03  0.17300000000E+03 0. -1.
<mgrwt>
<rscale>  2 0.20533508E+03</rscale>
<asrwt>0</asrwt>
<pdfrwt beam="1">  1       21 0.12581547E-01 0.20533508E+03</pdfrwt>
<pdfrwt beam="2">  1       21 0.79384767E-01 0.20533508E+03</pdfrwt>
<totfact> 0.75019832E+04</totfact>
</mgrwt>
</event>
<event>
 4    1  0.4025504E+000  0.1746438E+03  0.7546771E-02  0.1173090E+00
         21   -1    0    0  501  502  0.00000000000E+00  0.00000000000E+00  0.61705905311E+03  0.61705905311E+03  0.00000000000E+00 0.  1.
         21   -1    0    0  502  503 -0.00000000000E+00 -0.00000000000E+00 -0.67140508570E+02  0.67140508570E+02  0.00000000000E+00 0.  1.
          6    1    1    2  501    0  0.23889683597E+02  0.85963005761E+00  0.45066720081E+03  0.48332326846E+03  0.17300000000E+03 0.  1.
         -6    1    1    2    0  503 -0.23889683597E+02 -0.85963005761E+00  0.99251343727E+02  0.20087629322E+03  0.17300000000E+03 0.  1.
<mgrwt>
<rscale>  2 0.17464380E+03</rscale>
<asrwt>0</asrwt>
<pdfrwt beam="1">  1       21 0.94932158E-01 0.17464380E+03</pdfrwt>
<pdfrwt beam="2">  1       21 0.10329309E-01 0.17464380E+03</pdfrwt>
<totfact> 0.71684378E+04</totfact>
</mgrwt>
</event>
<event>
 4    1  0.4025504E+000  0.2047936E+03  0.7546771E-02  0.1145756E+00
         21   -1    0    0  503  502  0.00000000000E+00  0.00000000000E+00  0.41496012739E+03  0.41496012739E+03  0.00000000000E+00 0.  1.
         21   -1    0    0  501  503 -0.00000000000E+00 -0.00000000000E+00 -0.12635380356E+03  0.12635380356E+03  0.00000000000E+00 0.  1.
          6    1    1    2  501    0  0.78263628627E+02  0.76721801989E+02  0.23232822994E+02  0.20610724036E+03  0.17300000000E+03 0.  1.
         -6    1    1    2    0  502 -0.78263628627E+02 -0.76721801989E+02  0.26537350084E+03  0.33520669058E+03  0.17300000000E+03 0.  1.
<mgrwt>
<rscale>  2 0.20479363E+03</rscale>
<asrwt>0</asrwt>
<pdfrwt beam="1">  1       21 0.63840019E-01 0.20479363E+03</pdfrwt>
<pdfrwt beam="2">  1       21 0.19439047E-01 0.20479363E+03</pdfrwt>
<totfact> 0.54847404E+04</totfact>
</mgrwt>
</event>
<event>
 4    1  0.4025504E+000  0.1823594E+03  0.7546771E-02  0.1165539E+00
         21   -1    0    0  503  502  0.00000000000E+00  0.00000000000E+00  0.23174662831E+03  0.23174662831E+03  0.00000000000E+00 0. -1.
         21   -1    0    0  501  503 -0.00000000000E+00 -0.00000000000E+00 -0.16131842044E+03  0.16131842044E+03  0.00000000000E+00 0. -1.
          6    1    1    2  501    0  0.15685234366E+02 -0.55497107325E+02 -0.30108442558E+02  0.18482822785E+03  0.17300000000E+03 0. -1.
         -6    1    1    2    0  502 -0.15685234366E+02  0.55497107325E+02  0.10053665043E+03  0.20823682090E+03  0.17300000000E+03 0. -1.
<mgrwt>
<rscale>  2 0.18235941E+03</rscale>
<asrwt>0</asrwt>
<pdfrwt beam="1">  1       21 0.35653327E-01 0.18235941E+03</pdfrwt>
<pdfrwt beam="2">  1       21 0.24818219E-01 0.18235941E+03</pdfrwt>
<totfact> 0.11693064E+05</totfact>
</mgrwt>
</event>
<event>
 4    1  0.4025504E+000  0.2057803E+03  0.7546771E-02  0.1144952E+00
         21   -1    0    0  501  502  0.00000000000E+00  0.00000000000E+00  0.31022715134E+03  0.31022715134E+03  0.00000000000E+00 0.  1.
         21   -1    0    0  502  503 -0.00000000000E+00 -0.00000000000E+00 -0.17609788347E+03  0.17609788347E+03  0.00000000000E+00 0.  1.
          6    1    1    2  501    0  0.89517856325E+02 -0.66355818994E+02  0.18237378272E+03  0.27496497584E+03  0.17300000000E+03 0.  1.
         -6    1    1    2    0  503 -0.89517856325E+02  0.66355818994E+02 -0.48244514854E+02  0.21136005897E+03  0.17300000000E+03 0.  1.
<mgrwt>
<rscale>  2 0.20578032E+03</rscale>
<asrwt>0</asrwt>
<pdfrwt beam="1">  1       21 0.47727254E-01 0.20578032E+03</pdfrwt>
<pdfrwt beam="2">  1       21 0.27091982E-01 0.20578032E+03</pdfrwt>
<totfact> 0.54155633E+04</totfact>
</mgrwt>
</event>
<event>
 4    1  0.4025504E+000  0.2840955E+03  0.7546771E-02  0.1093473E+00
         21   -1    0    0  501  502  0.00000000000E+00  0.00000000000E+00  0.33344535388E+03  0.33344535388E+03  0.00000000000E+00 0.  1.
         21   -1    0    0  502  503 -0.00000000000E+00 -0.00000000000E+00 -0.26554800258E+03  0.26554800258E+03  0.00000000000E+00 0. -1.
          6    1    1    2  501    0  0.17240983918E+03  0.14510720619E+03  0.12304121544E+03  0.30959553393E+03  0.17300000000E+03 0.  1.
         -6    1    1    2    0  503 -0.17240983918E+03 -0.14510720619E+03 -0.55143864146E+02  0.28939782253E+03  0.17300000000E+03 0.  1.
<mgrwt>
<rscale>  2 0.28409550E+03</rscale>
<asrwt>0</asrwt>
<pdfrwt beam="1">  1       21 0.51299285E-01 0.28409550E+03</pdfrwt>
<pdfrwt beam="2">  1       21 0.40853539E-01 0.28409550E+03</pdfrwt>
<totfact> 0.19896938E+04</totfact>
</mgrwt>
</event>
<event>
 4    1  0.4025504E+000  0.1967745E+03  0.7546771E-02  0.1152489E+00
         21   -1    0    0  503  502  0.00000000000E+00  0.00000000000E+00  0.54309048273E+02  0.54309048273E+02  0.00000000000E+00 0. -1.
         21   -1    0    0  501  503 -0.00000000000E+00 -0.00000000000E+00 -0.19961113218E+04  0.19961113218E+04  0.00000000000E+00 0. -1.
          6    1    1    2  501    0 -0.63729692872E+02  0.68773079125E+02 -0.17928775849E+04  0.18036436025E+04  0.17300000000E+03 0. -1.
         -6    1    1    2    0  502  0.63729692872E+02 -0.68773079125E+02 -0.14892468864E+03  0.24677676765E+03  0.17300000000E+03 0. -1.
<mgrwt>
<rscale>  2 0.19677452E+03</rscale>
<asrwt>0</asrwt>
<pdfrwt beam="1">  1       21 0.83552370E-02 0.19677452E+03</pdfrwt>
<pdfrwt beam="2">  1       21 0.30709409E+00 0.19677452E+03</pdfrwt>
<totfact> 0.34394047E+03</totfact>
</mgrwt>
</event>
<event>
 4    1  0.4025504E+000  0.1888227E+03  0.7546771E-02  0.1159527E+00
         21   -1    0    0  503  502  0.00000000000E+00  0.00000000000E+00  0.30365876725E+03  0.30365876725E+03  0.00000000000E+00 0.  1.
         21   -1    0    0  501  503 -0.00000000000E+00 -0.00000000000E+00 -0.11814061623E+03  0.11814061623E+03  0.00000000000E+00 0. -1.
          6    1    1    2  501    0 -0.73237419696E+02  0.19007527273E+02  0.76227397278E+02  0.20362863706E+03  0.17300000000E+03 0.  1.
         -6    1    1    2    0  502  0.73237419696E+02 -0.19007527273E+02  0.10929075375E+03  0.21817074642E+03  0.17300000000E+03 0.  1.
<mgrwt>
<rscale>  2 0.18882268E+03</rscale>
<asrwt>0</asrwt>
<pdfrwt beam="1">  1       21 0.46716733E-01 0.18882268E+03</pdfrwt>
<pdfrwt beam="2">  1       21 0.18175479E-01 0.18882268E+03</pdfrwt>
<totfact> 0.12114438E+05</totfact>
</mgrwt>
</event>
<event>
 4    1  0.4025504E+000  0.2602422E+03  0.7546771E-02  0.1106998E+00
         21   -1    0    0  503  502  0.00000000000E+00  0.00000000000E+00  0.43685280990E+03  0.43685280990E+03  0.00000000000E+00 0. -1.
         21   -1    0    0  501  503 -0.00000000000E+00 -0.00000000000E+00 -0.59757990918E+03  0.59757990918E+03  0.00000000000E+00 0.  1.
          6    1    1    2  501    0  0.16622247951E+03 -0.10083204813E+03 -0.52546045475E+03  0.58637420146E+03  0.17300000000E+03 0.  1.
         -6    1    1    2    0  502 -0.16622247951E+03  0.10083204813E+03  0.36473335547E+03  0.44805851763E+03  0.17300000000E+03 0. -1.
<mgrwt>
<rscale>  2 0.26024222E+03</rscale>
<asrwt>0</asrwt>
<pdfrwt beam="1">  1       21 0.67208125E-01 0.26024222E+03</pdfrwt>
<pdfrwt beam="2">  1       21 0.91935370E-01 0.26024222E+03</pdfrwt>
<totfact> 0.19196534E+03</totfact>
</mgrwt>
</event>
<event>
 4    1  0.4025504E+000  0.1858324E+03  0.7546771E-02  0.1162275E+00
         21   -1    0    0  503  502  0.00000000000E+00  0.00000000000E+00  0.24263377808E+03  0.24263377808E+03  0.00000000000E+00 0. -1.
         21   -1    0    0  501  503 -0.00000000000E+00 -0.00000000000E+00 -0.26422676841E+03  0.26422676841E+03  0.00000000000E+00 0. -1.
          6    1    1    2  501    0 -0.40467551796E+02  0.54470626916E+02 -0.18293145073E+03  0.26076347062E+03  0.17300000000E+03 0. -1.
         -6    1    1    2    0  502  0.40467551796E+02 -0.54470626916E+02  0.16133846040E+03  0.24609707586E+03  0.17300000000E+03 0. -1.
<mgrwt>
<rscale>  2 0.18583238E+03</rscale>
<asrwt>0</asrwt>
<pdfrwt beam="1">  1       21 0.37328273E-01 0.18583238E+03</pdfrwt>
<pdfrwt beam="2">  1       21 0.40650272E-01 0.18583238E+03</pdfrwt>
<totfact> 0.40490380E+04</totfact>
</mgrwt>
</event>
<event>
 4    1  0.4025504E+000  0.3399776E+03  0.7546771E-02  0.1066805E+00
         21   -1    0    0  503  502  0.00000000000E+00  0.00000000000E+00  0.52558573973E+03  0.52558573973E+03  0.00000000000E+00 0. -1.
         21   -1    0    0  501  503 -0.00000000000E+00 -0.00000000000E+00 -0.22534736685E+03  0.22534736685E+03  0.00000000000E+00 0.  1.
          6    1    1    2  501    0  0.72895839268E+02 -0.28344660375E+03  0.91829129116E+02  0.35216099942E+03  0.17300000000E+03 0.  1.
         -6    1    1    2    0  502 -0.72895839268E+02  0.28344660375E+03  0.20840924376E+03  0.39877210715E+03  0.17300000000E+03 0. -1.
<mgrwt>
<rscale>  2 0.33997762E+03</rscale>
<asrwt>0</asrwt>
<pdfrwt beam="1">  1       21 0.80859345E-01 0.33997762E+03</pdfrwt>
<pdfrwt beam="2">  1       21 0.34668826E-01 0.33997762E+03</pdfrwt>
<totfact> 0.99599955E+03</totfact>
</mgrwt>
</event>
<event>
 4    1  0.4025504E+000  0.2372628E+03  0.7546771E-02  0.1121630E+00
         21   -1    0    0  501  502  0.00000000000E+00  0.00000000000E+00  0.72111610676E+03  0.72111610676E+03  0.00000000000E+00 0.  1.
         21   -1    0    0  502  503 -0.00000000000E+00 -0.00000000000E+00 -0.79822104344E+02  0.79822104344E+02  0.00000000000E+00 0. -1.
          6    1    1    2  501    0 -0.88822893654E+02 -0.13592327180E+03  0.38007010363E+03  0.44804790583E+03  0.17300000000E+03 0. -1.
         -6    1    1    2    0  503  0.88822893654E+02  0.13592327180E+03  0.26122389879E+03  0.35289030527E+03  0.17300000000E+03 0. -1.
<mgrwt>
<rscale>  2 0.23726281E+03</rscale>
<asrwt>0</asrwt>
<pdfrwt beam="1">  1       21 0.11094093E+00 0.23726281E+03</pdfrwt>
<pdfrwt beam="2">  1       21 0.12280324E-01 0.23726281E+03</pdfrwt>
<totfact> 0.35184482E+04</totfact>
</mgrwt>
</event>
<event>
 4    1  0.4025504E+000  0.1919914E+03  0.7546771E-02  0.1156677E+00
         21   -1    0    0  501  502  0.00000000000E+00  0.00000000000E+00  0.13414001120E+04  0.13414001120E+04  0.00000000000E+00 0. -1.
         21   -1    0    0  502  503 -0.00000000000E+00 -0.00000000000E+00 -0.27949074706E+02  0.27949074706E+02  0.00000000000E+00 0. -1.
          6    1    1    2  501    0 -0.79570474761E+02  0.24499904165E+02  0.56795765575E+03  0.59953031990E+03  0.17300000000E+03 0. -1.
         -6    1    1    2    0  503  0.79570474761E+02 -0.24499904165E+02  0.74549338150E+03  0.76981886676E+03  0.17300000000E+03 0. -1.
<mgrwt>
<rscale>  2 0.19199142E+03</rscale>
<asrwt>0</asrwt>
<pdfrwt beam="1">  1       21 0.20636920E+00 0.19199142E+03</pdfrwt>
<pdfrwt beam="2">  1       21 0.42998587E-02 0.19199142E+03</pdfrwt>
<totfact> 0.42465356E+04</totfact>
</mgrwt>
</event>
<event>
 4    1  0.4025504E+000  0.2132975E+03  0.7546771E-02  0.1138981E+00
         21   -1    0    0  501  502  0.00000000000E+00  0.00000000000E+00  0.31869816969E+03  0.31869816969E+03  0.00000000000E+00 0. -1.
         21   -1    0    0  502  503 -0.00000000000E+00 -0.00000000000E+00 -0.17656984831E+03  0.17656984831E+03  0.00000000000E+00 0. -1.
          6    1    1    2  501    0  0.97903622682E+02  0.77341436787E+02  0.17943302703E+03  0.27873289789E+03  0.17300000000E+03 0. -1.
         -6    1    1    2    0  503 -0.97903622682E+02 -0.77341436787E+02 -0.37304705653E+02  0.21653512011E+03  0.17300000000E+03 0. -1.
<mgrwt>
<rscale>  2 0.21329749E+03</rscale>
<asrwt>0</asrwt>
<pdfrwt beam="1">  1       21 0.49030488E-01 0.21329749E+03</pdfrwt>
<pdfrwt beam="2">  1       21 0.27164592E-01 0.21329749E+03</pdfrwt>
<totfact> 0.50763863E+04</totfact>
</mgrwt>
</event>
<event>
 4    1  0.4025504E+000  0.2640851E+03  0.7546771E-02  0.1104713E+00
         21   -1    0    0  501  502  0.00000000000E+00  0.00000000000E+00  0.84703328138E+03  0.84703328138E+03  0.00000000000E+00 0. -1.
         21   -1    0    0  502  503 -0.00000000000E+00 -0.00000000000E+00 -0.11195676323E+03  0.11195676323E+03  0.00000000000E+00 0.  1.
          6    1    1    2  501    0 -0.38797914111E+02  0.19572083186E+03  0.61417660978E+03  0.66854605688E+03  0.17300000000E+03 0. -1.
         -6    1    1    2    0  503  0.38797914111E+02 -0.19572083186E+03  0.12089990836E+03  0.29044398773E+03  0.17300000000E+03 0.  1.
<mgrwt>
<rscale>  2 0.26408507E+03</rscale>
<asrwt>0</asrwt>
<pdfrwt beam="1">  1       21 0.13031281E+00 0.26408507E+03</pdfrwt>
<pdfrwt beam="2">  1       21 0.17224118E-01 0.26408507E+03</pdfrwt>
<totfact> 0.12517943E+04</totfact>
</mgrwt>
</event>
<event>
 4    1  0.4025504E+000  0.1761792E+03  0.7546771E-02  0.1171553E+00
         21   -1    0    0  503  502  0.00000000000E+00  0.00000000000E+00  0.42955907056E+03  0.42955907056E+03  0.00000000000E+00 0.  1.
         21   -1    0    0  501  503 -0.00000000000E+00 -0.00000000000E+00 -0.87399399232E+02  0.87399399232E+02  0.00000000000E+00 0.  1.
          6    1    1    2  501    0  0.10000644668E+01  0.33303366390E+02  0.27866521906E+03  0.32968684938E+03  0.17300000000E+03 0.  1.
         -6    1    1    2    0  502 -0.10000644668E+01 -0.33303366390E+02  0.63494452266E+02  0.18727162041E+03  0.17300000000E+03 0.  1.
<mgrwt>
<rscale>  2 0.17617921E+03</rscale>
<asrwt>0</asrwt>
<pdfrwt beam="1">  1       21 0.66086009E-01 0.17617921E+03</pdfrwt>
<pdfrwt beam="2">  1       21 0.13446062E-01 0.17617921E+03</pdfrwt>
<totfact> 0.10119333E+05</totfact>
</mgrwt>
</event>
<event>
 4    1  0.4025504E+000  0.2844921E+03  0.7546771E-02  0.1093260E+00
         21   -1    0    0  501  502  0.00000000000E+00  0.00000000000E+00  0.24209687969E+03  0.24209687969E+03  0.00000000000E+00 0.  1.
         21   -1    0    0  502  503 -0.00000000000E+00 -0.00000000000E+00 -0.73647421344E+03  0.73647421344E+03  0.00000000000E+00 0.  1.
          6    1    1    2  501    0 -0.60210969314E+02  0.21767273134E+03  0.11437476349E+03  0.30662251274E+03  0.17300000000E+03 0.  1.
         -6    1    1    2    0  503  0.60210969314E+02 -0.21767273134E+03 -0.60875209723E+03  0.67194858039E+03  0.17300000000E+03 0.  1.
<mgrwt>
<rscale>  2 0.28449214E+03</rscale>
<asrwt>0</asrwt>
<pdfrwt beam="1">  1       21 0.37245675E-01 0.28449214E+03</pdfrwt>
<pdfrwt beam="2">  1       21 0.11330372E+00 0.28449214E+03</pdfrwt>
<totfact> 0.39645294E+03</totfact>
</mgrwt>
</event>
<event>
 4    1  0.4025504E+000  0.1830941E+03  0.7546771E-02  0.1164842E+00
         21   -1    0    0  501  502  0.00000000000E+00  0.00000000000E+00  0.56706022587E+03  0.56706022587E+03  0.00000000000E+00 0.  1.
         21   -1    0    0  502  503 -0.00000000000E+00 -0.00000000000E+00 -0.60396228996E+02  0.60396228996E+02  0.00000000000E+00 0.  1.
          6    1    1    2  501    0 -0.52900174822E+02 -0.28213846754E+02  0.29897330267E+03  0.35058306484E+03  0.17300000000E+03 0.  1.
         -6    1    1    2    0  503  0.52900174822E+02  0.28213846754E+02  0.20769069421E+03  0.27687339003E+03  0.17300000000E+03 0.  1.
<mgrwt>
<rscale>  2 0.18309410E+03</rscale>
<asrwt>0</asrwt>
<pdfrwt beam="1">  1       21 0.87240031E-01 0.18309410E+03</pdfrwt>
<pdfrwt beam="2">  1       21 0.92917279E-02 0.18309410E+03</pdfrwt>
<totfact> 0.10465321E+05</totfact>
</mgrwt>
</event>
<event>
 4    1  0.4025504E+000  0.2020062E+03  0.7546771E-02  0.1148057E+00
         21   -1    0    0  503  502  0.00000000000E+00  0.00000000000E+00  0.37061501731E+03  0.37061501731E+03  0.00000000000E+00 0.  1.
         21   -1    0    0  501  503 -0.00000000000E+00 -0.00000000000E+00 -0.16288770418E+03  0.16288770418E+03  0.00000000000E+00 0. -1.
          6    1    1    2  501    0 -0.97079575448E+02 -0.38118948139E+02 -0.47984340865E+02  0.20762705783E+03  0.17300000000E+03 0. -1.
         -6    1    1    2    0  502  0.97079575448E+02  0.38118948139E+02  0.25571165399E+03  0.32587566365E+03  0.17300000000E+03 0.  1.
<mgrwt>
<rscale>  2 0.20200618E+03</rscale>
<asrwt>0</asrwt>
<pdfrwt beam="1">  1       21 0.57017695E-01 0.20200618E+03</pdfrwt>
<pdfrwt beam="2">  1       21 0.25059647E-01 0.20200618E+03</pdfrwt>
<totfact> 0.43363417E+04</totfact>
</mgrwt>
</event>
<event>
 4    1  0.4025504E+000  0.2845759E+03  0.7546771E-02  0.1093216E+00
         21   -1    0    0  503  502  0.00000000000E+00  0.00000000000E+00  0.10863657775E+03  0.10863657775E+03  0.00000000000E+00 0. -1.
         21   -1    0    0  501  503 -0.00000000000E+00 -0.00000000000E+00 -0.83692369273E+03  0.83692369273E+03  0.00000000000E+00 0. -1.
          6    1    1    2  501    0  0.22092418930E+03  0.47401677124E+02 -0.20784380626E+03  0.35239532377E+03  0.17300000000E+03 0. -1.
         -6    1    1    2    0  502 -0.22092418930E+03 -0.47401677124E+02 -0.52044330872E+03  0.59316494671E+03  0.17300000000E+03 0. -1.
<mgrwt>
<rscale>  2 0.28457585E+03</rscale>
<asrwt>0</asrwt>
<pdfrwt beam="1">  1       21 0.16713320E-01 0.28457585E+03</pdfrwt>
<pdfrwt beam="2">  1       21 0.12875749E+00 0.28457585E+03</pdfrwt>
<totfact> 0.13506874E+04</totfact>
</mgrwt>
</event>
<event>
 4    1  0.4025504E+000  0.2010220E+03  0.7546771E-02  0.1148880E+00
         21   -1    0    0  503  502  0.00000000000E+00  0.00000000000E+00  0.21253405371E+03  0.21253405371E+03  0.00000000000E+00 0.  1.
         21   -1    0    0  501  503 -0.00000000000E+00 -0.00000000000E+00 -0.22105603029E+03  0.22105603029E+03  0.00000000000E+00 0. -1.
          6    1    1    2  501    0 -0.77596777859E+02 -0.66779995909E+02 -0.85345180313E+02  0.21838870756E+03  0.17300000000E+03 0. -1.
         -6    1    1    2    0  502  0.77596777859E+02  0.66779995909E+02  0.76823203731E+02  0.21520137643E+03  0.17300000000E+03 0.  1.
<mgrwt>
<rscale>  2 0.20102196E+03</rscale>
<asrwt>0</asrwt>
<pdfrwt beam="1">  1       21 0.32697547E-01 0.20102196E+03</pdfrwt>
<pdfrwt beam="2">  1       21 0.34008620E-01 0.20102196E+03</pdfrwt>
<totfact> 0.74719133E+04</totfact>
</mgrwt>
</event>
