<event>
 4    1  0.5387657E-008  0.5766969E+03  0.7818608E-02  0.9954968E-01
         -2   -1    0    0    0  501 -0.00000000000E+00  0.00000000000E+00  0.86550330152E+03  0.86550330152E+03  0.25500000000E-02 0.  1.
          2   -1    0    0  501    0  0.00000000000E+00 -0.00000000000E+00 -0.54273082731E+03  0.54273082731E+03  0.25500000000E-02 0. -1.
    8880022    1    1    2    0    0  0.54874985866E+03  0.89784173287E+02 -0.21908844948E+03  0.61691085811E+03  0.15294330000E+03 0. -1.
    8880022    1    1    2    0    0 -0.54874985866E+03 -0.89784173287E+02  0.54186092369E+03  0.79132327072E+03  0.15294330000E+03 0.  0.
<mgrwt>
<rscale>  0 0.57669685E+03</rscale>
<asrwt>0</asrwt>
<pdfrwt beam="1">  1        2 0.83497050E-01 0.57669685E+03</pdfrwt>
<pdfrwt beam="2">  1       -2 0.13315435E+00 0.57669685E+03</pdfrwt>
<totfact> 0.23539639E+01</totfact>
</mgrwt>
</event>
<event>
 4    1  0.5387657E-008  0.4543994E+03  0.7818608E-02  0.1026418E+00
         -2   -1    0    0    0  501 -0.00000000000E+00  0.00000000000E+00  0.26033562189E+03  0.26033562190E+03  0.25500000000E-02 0.  1.
          2   -1    0    0  501    0  0.00000000000E+00 -0.00000000000E+00 -0.96620653262E+03  0.96620653263E+03  0.25500000000E-02 0. -1.
    8880022    1    1    2    0    0 -0.26968810817E+03  0.33219792910E+03 -0.93372703574E+02  0.46389358109E+03  0.15294330000E+03 0.  0.
    8880022    1    1    2    0    0  0.26968810817E+03 -0.33219792910E+03 -0.61249820716E+03  0.76264857344E+03  0.15294330000E+03 0.  0.
<mgrwt>
<rscale>  0 0.45439938E+03</rscale>
<asrwt>0</asrwt>
<pdfrwt beam="1">  1        2 0.14864716E+00 0.45439938E+03</pdfrwt>
<pdfrwt beam="2">  1       -2 0.40051634E-01 0.45439938E+03</pdfrwt>
<totfact> 0.16177063E+02</totfact>
</mgrwt>
</event>
<event>
 4    1  0.5387657E-008  0.1802249E+03  0.7818608E-02  0.1167586E+00
         -2   -1    0    0    0  501 -0.00000000000E+00  0.00000000000E+00  0.37129210291E+03  0.37129210291E+03  0.25500000000E-02 0.  1.
          2   -1    0    0  501    0  0.00000000000E+00 -0.00000000000E+00 -0.93183809169E+02  0.93183809204E+02  0.25500000000E-02 0. -1.
    8880022    1    1    2    0    0  0.63031355820E+02 -0.71528995715E+02  0.81601818109E+02  0.19783796091E+03  0.15294330000E+03 0. -1.
    8880022    1    1    2    0    0 -0.63031355820E+02  0.71528995715E+02  0.19650647563E+03  0.26663795121E+03  0.15294330000E+03 0.  1.
<mgrwt>
<rscale>  0 0.18022487E+03</rscale>
<asrwt>0</asrwt>
<pdfrwt beam="1">  1        2 0.14335971E-01 0.18022487E+03</pdfrwt>
<pdfrwt beam="2">  1       -2 0.57121861E-01 0.18022487E+03</pdfrwt>
<totfact> 0.11893821E+03</totfact>
</mgrwt>
</event>
<event>
 4    1  0.5387657E-008  0.4446796E+03  0.7818608E-02  0.1029321E+00
          2   -1    0    0  501    0  0.00000000000E+00  0.00000000000E+00  0.23593316658E+04  0.23593316658E+04  0.25500000000E-02 0. -1.
         -2   -1    0    0    0  501 -0.00000000000E+00 -0.00000000000E+00 -0.46572207542E+03  0.46572207543E+03  0.25500000000E-02 0.  1.
    8880022    1    1    2    0    0  0.27075383157E+03 -0.31786887245E+03 -0.33232306816E+03  0.55513829991E+03  0.15294330000E+03 0.  0.
    8880022    1    1    2    0    0 -0.27075383157E+03  0.31786887245E+03  0.22259326585E+04  0.22699154413E+04  0.15294330000E+03 0.  0.
<mgrwt>
<rscale>  0 0.44467956E+03</rscale>
<asrwt>0</asrwt>
<pdfrwt beam="1">  1        2 0.36297410E+00 0.44467956E+03</pdfrwt>
<pdfrwt beam="2">  1       -2 0.71649550E-01 0.44467956E+03</pdfrwt>
<totfact> 0.82761352E+00</totfact>
</mgrwt>
</event>
<event>
 4    1  0.5387657E-008  0.2168417E+03  0.7818608E-02  0.1136260E+00
          2   -1    0    0  501    0  0.00000000000E+00  0.00000000000E+00  0.53168634266E+03  0.53168634266E+03  0.25500000000E-02 0. -1.
         -2   -1    0    0    0  501 -0.00000000000E+00 -0.00000000000E+00 -0.26354838343E+03  0.26354838345E+03  0.25500000000E-02 0.  1.
    8880022    1    1    2    0    0 -0.14992568724E+03 -0.33925626238E+02 -0.19004171395E+03  0.28833342828E+03  0.15294330000E+03 0.  0.
    8880022    1    1    2    0    0  0.14992568724E+03  0.33925626238E+02  0.45817967318E+03  0.50690129783E+03  0.15294330000E+03 0. -1.
<mgrwt>
<rscale>  0 0.21684168E+03</rscale>
<asrwt>0</asrwt>
<pdfrwt beam="1">  1        2 0.81797898E-01 0.21684168E+03</pdfrwt>
<pdfrwt beam="2">  1       -2 0.40545906E-01 0.21684168E+03</pdfrwt>
<totfact> 0.34054309E+02</totfact>
</mgrwt>
</event>
<event>
 4    1  0.5387657E-008  0.2664304E+03  0.7818608E-02  0.1103340E+00
          2   -1    0    0  501    0  0.00000000000E+00  0.00000000000E+00  0.32351896246E+03  0.32351896247E+03  0.25500000000E-02 0. -1.
         -2   -1    0    0    0  501 -0.00000000000E+00 -0.00000000000E+00 -0.84712286184E+03  0.84712286185E+03  0.25500000000E-02 0.  1.
    8880022    1    1    2    0    0  0.96882354530E+02  0.19546693334E+03 -0.76564973451E+03  0.81068161545E+03  0.15294330000E+03 0.  0.
    8880022    1    1    2    0    0 -0.96882354530E+02 -0.19546693334E+03  0.24204583513E+03  0.35996020886E+03  0.15294330000E+03 0.  0.
<mgrwt>
<rscale>  0 0.26643041E+03</rscale>
<asrwt>0</asrwt>
<pdfrwt beam="1">  1        2 0.49772148E-01 0.26643041E+03</pdfrwt>
<pdfrwt beam="2">  1       -2 0.13032659E+00 0.26643041E+03</pdfrwt>
<totfact> 0.46123303E+01</totfact>
</mgrwt>
</event>
<event>
 4    1  0.5387657E-008  0.1220994E+04  0.7818608E-02  0.9094677E-01
          2   -1    0    0  501    0  0.00000000000E+00  0.00000000000E+00  0.17680300700E+04  0.17680300700E+04  0.25500000000E-02 0. -1.
         -2   -1    0    0    0  501 -0.00000000000E+00 -0.00000000000E+00 -0.99132420576E+03  0.99132420576E+03  0.25500000000E-02 0.  1.
    8880022    1    1    2    0    0  0.35450529393E+03 -0.11583437300E+04  0.92164318079E+03  0.15297882226E+04  0.15294330000E+03 0.  0.
    8880022    1    1    2    0    0 -0.35450529393E+03  0.11583437300E+04 -0.14493731657E+03  0.12295660531E+04  0.15294330000E+03 0.  0.
<mgrwt>
<rscale>  0 0.12209938E+04</rscale>
<asrwt>0</asrwt>
<pdfrwt beam="1">  1        2 0.27200462E+00 0.12209938E+04</pdfrwt>
<pdfrwt beam="2">  1       -2 0.15251142E+00 0.12209938E+04</pdfrwt>
<totfact> 0.24994963E+00</totfact>
</mgrwt>
</event>
<event>
 4    1  0.5387657E-008  0.1669272E+03  0.7818608E-02  0.1181091E+00
          2   -1    0    0  501    0  0.00000000000E+00  0.00000000000E+00  0.78860058177E+03  0.78860058177E+03  0.25500000000E-02 0. -1.
         -2   -1    0    0    0  501 -0.00000000000E+00 -0.00000000000E+00 -0.49506373647E+03  0.49506373648E+03  0.25500000000E-02 0.  1.
    8880022    1    1    2    0    0  0.48984811240E+02 -0.45535924137E+02  0.76527176516E+03  0.78326595718E+03  0.15294330000E+03 0.  0.
    8880022    1    1    2    0    0 -0.48984811240E+02  0.45535924137E+02 -0.47173491987E+03  0.50039836106E+03  0.15294330000E+03 0.  1.
<mgrwt>
<rscale>  0 0.16692719E+03</rscale>
<asrwt>0</asrwt>
<pdfrwt beam="1">  1        2 0.12132316E+00 0.16692719E+03</pdfrwt>
<pdfrwt beam="2">  1       -2 0.76163653E-01 0.16692719E+03</pdfrwt>
<totfact> 0.59750452E+01</totfact>
</mgrwt>
</event>
<event>
 4    1  0.5387657E-008  0.5119321E+03  0.7818608E-02  0.1010711E+00
         -2   -1    0    0    0  501 -0.00000000000E+00  0.00000000000E+00  0.13882231101E+03  0.13882231103E+03  0.25500000000E-02 0.  1.
          2   -1    0    0  501    0  0.00000000000E+00 -0.00000000000E+00 -0.31404112269E+04  0.31404112269E+04  0.25500000000E-02 0. -1.
    8880022    1    1    2    0    0 -0.19066644970E+03 -0.44981010129E+03 -0.46529446098E+03  0.69179000477E+03  0.15294330000E+03 0.  0.
    8880022    1    1    2    0    0  0.19066644970E+03  0.44981010129E+03 -0.25362944549E+04  0.25874435332E+04  0.15294330000E+03 0.  0.
<mgrwt>
<rscale>  0 0.51193210E+03</rscale>
<asrwt>0</asrwt>
<pdfrwt beam="1">  1        2 0.48314013E+00 0.51193210E+03</pdfrwt>
<pdfrwt beam="2">  1       -2 0.21357281E-01 0.51193210E+03</pdfrwt>
<totfact> 0.29973518E+01</totfact>
</mgrwt>
</event>
<event>
 4    1  0.5387657E-008  0.9645530E+03  0.7818608E-02  0.9348300E-01
         -2   -1    0    0    0  501 -0.00000000000E+00  0.00000000000E+00  0.87100001114E+03  0.87100001115E+03  0.25500000000E-02 0.  1.
          2   -1    0    0  501    0  0.00000000000E+00 -0.00000000000E+00 -0.12629946878E+04  0.12629946878E+04  0.25500000000E-02 0. -1.
    8880022    1    1    2    0    0  0.63693566350E+03  0.70801404312E+03 -0.61508208398E+03  0.11439792602E+04  0.15294330000E+03 0.  0.
    8880022    1    1    2    0    0 -0.63693566350E+03 -0.70801404312E+03  0.22308740731E+03  0.99001543877E+03  0.15294330000E+03 0.  0.
<mgrwt>
<rscale>  0 0.96455305E+03</rscale>
<asrwt>0</asrwt>
<pdfrwt beam="1">  1        2 0.19430687E+00 0.96455305E+03</pdfrwt>
<pdfrwt beam="2">  1       -2 0.13400000E+00 0.96455305E+03</pdfrwt>
<totfact> 0.69574762E+00</totfact>
</mgrwt>
</event>
<event>
 4    1  0.5387657E-008  0.3175842E+03  0.7818608E-02  0.1076767E+00
         -2   -1    0    0    0  501 -0.00000000000E+00  0.00000000000E+00  0.13026539398E+03  0.13026539401E+03  0.25500000000E-02 0.  1.
          2   -1    0    0  501    0  0.00000000000E+00 -0.00000000000E+00 -0.18336436541E+04  0.18336436541E+04  0.25500000000E-02 0. -1.
    8880022    1    1    2    0    0  0.20200929476E+03 -0.19146877958E+03 -0.15980689382E+04  0.16293201137E+04  0.15294330000E+03 0.  0.
    8880022    1    1    2    0    0 -0.20200929476E+03  0.19146877958E+03 -0.10530932193E+03  0.33458893440E+03  0.15294330000E+03 0.  1.
<mgrwt>
<rscale>  0 0.31758416E+03</rscale>
<asrwt>0</asrwt>
<pdfrwt beam="1">  1        2 0.28209901E+00 0.31758416E+03</pdfrwt>
<pdfrwt beam="2">  1       -2 0.20040831E-01 0.31758416E+03</pdfrwt>
<totfact> 0.18971099E+02</totfact>
</mgrwt>
</event>
<event>
 4    1  0.5387657E-008  0.3453951E+03  0.7818608E-02  0.1064521E+00
          2   -1    0    0  501    0  0.00000000000E+00  0.00000000000E+00  0.40086882552E+03  0.40086882553E+03  0.25500000000E-02 0. -1.
         -2   -1    0    0    0  501 -0.00000000000E+00 -0.00000000000E+00 -0.95869437070E+03  0.95869437070E+03  0.25500000000E-02 0.  1.
    8880022    1    1    2    0    0  0.29418598819E+03 -0.96750959915E+02 -0.84340981668E+03  0.91139339244E+03  0.15294330000E+03 0.  1.
    8880022    1    1    2    0    0 -0.29418598819E+03  0.96750959915E+02  0.28558427150E+03  0.44816980380E+03  0.15294330000E+03 0.  0.
<mgrwt>
<rscale>  0 0.34539513E+03</rscale>
<asrwt>0</asrwt>
<pdfrwt beam="1">  1        2 0.61672127E-01 0.34539513E+03</pdfrwt>
<pdfrwt beam="2">  1       -2 0.14749144E+00 0.34539513E+03</pdfrwt>
<totfact> 0.26321967E+01</totfact>
</mgrwt>
</event>
<event>
 4    1  0.5387657E-008  0.2637301E+03  0.7818608E-02  0.1104923E+00
         -2   -1    0    0    0  501 -0.00000000000E+00  0.00000000000E+00  0.11521366364E+04  0.11521366364E+04  0.25500000000E-02 0.  1.
          2   -1    0    0  501    0  0.00000000000E+00 -0.00000000000E+00 -0.16119993842E+04  0.16119993842E+04  0.25500000000E-02 0. -1.
    8880022    1    1    2    0    0 -0.15001433615E+03 -0.15381036772E+03 -0.15858732916E+04  0.16076528482E+04  0.15294330000E+03 0. -1.
    8880022    1    1    2    0    0  0.15001433615E+03  0.15381036772E+03  0.11260105438E+04  0.11564831724E+04  0.15294330000E+03 0.  0.
<mgrwt>
<rscale>  0 0.26373013E+03</rscale>
<asrwt>0</asrwt>
<pdfrwt beam="1">  1        2 0.24799991E+00 0.26373013E+03</pdfrwt>
<pdfrwt beam="2">  1       -2 0.17725179E+00 0.26373013E+03</pdfrwt>
<totfact> 0.24710413E+00</totfact>
</mgrwt>
</event>
<event>
 4    1  0.5387657E-008  0.3139118E+03  0.7818608E-02  0.1078486E+00
         -2   -1    0    0    0  501 -0.00000000000E+00  0.00000000000E+00  0.10515219579E+03  0.10515219582E+03  0.25500000000E-02 0.  1.
          2   -1    0    0  501    0  0.00000000000E+00 -0.00000000000E+00 -0.16189640227E+04  0.16189640227E+04  0.25500000000E-02 0. -1.
    8880022    1    1    2    0    0 -0.26826599953E+03 -0.56412220552E+02 -0.13163532524E+04  0.13532651342E+04  0.15294330000E+03 0.  0.
    8880022    1    1    2    0    0  0.26826599953E+03  0.56412220552E+02 -0.19745857450E+03  0.37085108438E+03  0.15294330000E+03 0.  0.
<mgrwt>
<rscale>  0 0.31391183E+03</rscale>
<asrwt>0</asrwt>
<pdfrwt beam="1">  1        2 0.24907137E+00 0.31391183E+03</pdfrwt>
<pdfrwt beam="2">  1       -2 0.16177262E-01 0.31391183E+03</pdfrwt>
<totfact> 0.35507740E+02</totfact>
</mgrwt>
</event>
<event>
 4    1  0.5387657E-008  0.7085697E+03  0.7818608E-02  0.9702688E-01
          2   -1    0    0  501    0  0.00000000000E+00  0.00000000000E+00  0.68994529930E+03  0.68994529930E+03  0.25500000000E-02 0. -1.
         -2   -1    0    0    0  501 -0.00000000000E+00 -0.00000000000E+00 -0.13937522525E+04  0.13937522525E+04  0.25500000000E-02 0.  1.
    8880022    1    1    2    0    0  0.42158553944E+03 -0.54858451396E+03  0.36831969114E+03  0.79858023010E+03  0.15294330000E+03 0.  0.
    8880022    1    1    2    0    0 -0.42158553944E+03  0.54858451396E+03 -0.10721266444E+04  0.12851173217E+04  0.15294330000E+03 0.  0.
<mgrwt>
<rscale>  0 0.70856968E+03</rscale>
<asrwt>0</asrwt>
<pdfrwt beam="1">  1        2 0.10614543E+00 0.70856968E+03</pdfrwt>
<pdfrwt beam="2">  1       -2 0.21442342E+00 0.70856968E+03</pdfrwt>
<totfact> 0.46062779E+00</totfact>
</mgrwt>
</event>
<event>
 4    1  0.5387657E-008  0.7930849E+03  0.7818608E-02  0.9570081E-01
         -2   -1    0    0    0  501 -0.00000000000E+00  0.00000000000E+00  0.12105228630E+04  0.12105228630E+04  0.25500000000E-02 0.  1.
          2   -1    0    0  501    0  0.00000000000E+00 -0.00000000000E+00 -0.20532333799E+04  0.20532333799E+04  0.25500000000E-02 0. -1.
    8880022    1    1    2    0    0 -0.26908262971E+03  0.73019624944E+03  0.98900417013E+03  0.12677195770E+04  0.15294330000E+03 0.  0.
    8880022    1    1    2    0    0  0.26908262971E+03 -0.73019624944E+03 -0.18317146870E+04  0.19960366659E+04  0.15294330000E+03 0.  0.
<mgrwt>
<rscale>  0 0.79308491E+03</rscale>
<asrwt>0</asrwt>
<pdfrwt beam="1">  1        2 0.31588206E+00 0.79308491E+03</pdfrwt>
<pdfrwt beam="2">  1       -2 0.18623429E+00 0.79308491E+03</pdfrwt>
<totfact> 0.10607655E+00</totfact>
</mgrwt>
</event>
<event>
 4    1  0.5387657E-008  0.3097209E+03  0.7818608E-02  0.1080480E+00
          2   -1    0    0  501    0  0.00000000000E+00  0.00000000000E+00  0.14422261380E+04  0.14422261380E+04  0.25500000000E-02 0. -1.
         -2   -1    0    0    0  501 -0.00000000000E+00 -0.00000000000E+00 -0.86735286148E+03  0.86735286148E+03  0.25500000000E-02 0.  1.
    8880022    1    1    2    0    0 -0.21947412585E+02 -0.26842820937E+03  0.13970654143E+04  0.14309852611E+04  0.15294330000E+03 0.  0.
    8880022    1    1    2    0    0  0.21947412585E+02  0.26842820937E+03 -0.82219213785E+03  0.87859373835E+03  0.15294330000E+03 0.  1.
<mgrwt>
<rscale>  0 0.30972092E+03</rscale>
<asrwt>0</asrwt>
<pdfrwt beam="1">  1        2 0.22188094E+00 0.30972092E+03</pdfrwt>
<pdfrwt beam="2">  1       -2 0.13343890E+00 0.30972092E+03</pdfrwt>
<totfact> 0.62901947E+00</totfact>
</mgrwt>
</event>
<event>
 4    1  0.5387657E-008  0.4974809E+03  0.7818608E-02  0.1014439E+00
          2   -1    0    0  501    0  0.00000000000E+00  0.00000000000E+00  0.88426660693E+03  0.88426660694E+03  0.25500000000E-02 0. -1.
         -2   -1    0    0    0  501 -0.00000000000E+00 -0.00000000000E+00 -0.55394360846E+03  0.55394360846E+03  0.25500000000E-02 0.  1.
    8880022    1    1    2    0    0 -0.44265158008E+03 -0.16779489467E+03  0.67097041388E+03  0.83527749721E+03  0.15294330000E+03 0.  0.
    8880022    1    1    2    0    0  0.44265158008E+03  0.16779489467E+03 -0.34064741541E+03  0.60293271819E+03  0.15294330000E+03 0.  0.
<mgrwt>
<rscale>  0 0.49748085E+03</rscale>
<asrwt>0</asrwt>
<pdfrwt beam="1">  1        2 0.13604102E+00 0.49748085E+03</pdfrwt>
<pdfrwt beam="2">  1       -2 0.85222094E-01 0.49748085E+03</pdfrwt>
<totfact> 0.37535514E+01</totfact>
</mgrwt>
</event>
<event>
 4    1  0.5387657E-008  0.2761698E+03  0.7818608E-02  0.1097799E+00
         -2   -1    0    0    0  501 -0.00000000000E+00  0.00000000000E+00  0.16269320321E+03  0.16269320323E+03  0.25500000000E-02 0.  1.
          2   -1    0    0  501    0  0.00000000000E+00 -0.00000000000E+00 -0.88852003667E+03  0.88852003667E+03  0.25500000000E-02 0. -1.
    8880022    1    1    2    0    0  0.22377724770E+03 -0.52932626756E+02 -0.72416487763E+03  0.77503841361E+03  0.15294330000E+03 0.  0.
    8880022    1    1    2    0    0 -0.22377724770E+03  0.52932626756E+02 -0.16619558186E+01  0.27617482629E+03  0.15294330000E+03 0.  0.
<mgrwt>
<rscale>  0 0.27616983E+03</rscale>
<asrwt>0</asrwt>
<pdfrwt beam="1">  1        2 0.13669539E+00 0.27616983E+03</pdfrwt>
<pdfrwt beam="2">  1       -2 0.25029724E-01 0.27616983E+03</pdfrwt>
<totfact> 0.44092484E+02</totfact>
</mgrwt>
</event>
<event>
 4    1  0.5387657E-008  0.7861197E+03  0.7818608E-02  0.9580328E-01
         -2   -1    0    0    0  501 -0.00000000000E+00  0.00000000000E+00  0.36467350786E+03  0.36467350787E+03  0.25500000000E-02 0.  1.
          2   -1    0    0  501    0  0.00000000000E+00 -0.00000000000E+00 -0.19524876804E+04  0.19524876804E+04  0.25500000000E-02 0. -1.
    8880022    1    1    2    0    0 -0.28811625003E+03 -0.71524933631E+03 -0.37286283795E+03  0.87006375374E+03  0.15294330000E+03 0.  0.
    8880022    1    1    2    0    0  0.28811625003E+03  0.71524933631E+03 -0.12149513346E+04  0.14470974346E+04  0.15294330000E+03 0.  0.
<mgrwt>
<rscale>  0 0.78611974E+03</rscale>
<asrwt>0</asrwt>
<pdfrwt beam="1">  1        2 0.30038272E+00 0.78611974E+03</pdfrwt>
<pdfrwt beam="2">  1       -2 0.56103617E-01 0.78611974E+03</pdfrwt>
<totfact> 0.21768347E+01</totfact>
</mgrwt>
</event>
<event>
 4    1  0.5387657E-008  0.5122118E+03  0.7818608E-02  0.1010640E+00
          2   -1    0    0  501    0  0.00000000000E+00  0.00000000000E+00  0.35642074828E+04  0.35642074828E+04  0.25500000000E-02 0. -1.
         -2   -1    0    0    0  501 -0.00000000000E+00 -0.00000000000E+00 -0.22122438628E+03  0.22122438629E+03  0.25500000000E-02 0.  1.
    8880022    1    1    2    0    0 -0.48640958393E+03  0.48733663370E+02  0.12540625405E+03  0.52734015100E+03  0.15294330000E+03 0.  0.
    8880022    1    1    2    0    0  0.48640958393E+03 -0.48733663370E+02  0.32175768425E+04  0.32580917181E+04  0.15294330000E+03 0.  0.
<mgrwt>
<rscale>  0 0.51221178E+03</rscale>
<asrwt>0</asrwt>
<pdfrwt beam="1">  1        2 0.54833955E+00 0.51221178E+03</pdfrwt>
<pdfrwt beam="2">  1       -2 0.34034525E-01 0.51221178E+03</pdfrwt>
<totfact> 0.68073343E+00</totfact>
</mgrwt>
</event>
<event>
 4    1  0.5387657E-008  0.6061924E+03  0.7818608E-02  0.9892642E-01
         -2   -1    0    0    0  501 -0.00000000000E+00  0.00000000000E+00  0.36201676464E+03  0.36201676465E+03  0.25500000000E-02 0.  1.
          2   -1    0    0  501    0  0.00000000000E+00 -0.00000000000E+00 -0.18054693059E+04  0.18054693059E+04  0.25500000000E-02 0. -1.
    8880022    1    1    2    0    0  0.21740798515E+03 -0.54480390922E+03 -0.46638752487E+01  0.60621030695E+03  0.15294330000E+03 0.  0.
    8880022    1    1    2    0    0 -0.21740798515E+03  0.54480390922E+03 -0.14387886660E+04  0.15612757635E+04  0.15294330000E+03 0.  0.
<mgrwt>
<rscale>  0 0.60619237E+03</rscale>
<asrwt>0</asrwt>
<pdfrwt beam="1">  1        2 0.27776450E+00 0.60619237E+03</pdfrwt>
<pdfrwt beam="2">  1       -2 0.55694888E-01 0.60619237E+03</pdfrwt>
<totfact> 0.27254623E+01</totfact>
</mgrwt>
</event>
<event>
 4    1  0.5387657E-008  0.3777799E+03  0.7818608E-02  0.1051757E+00
         -2   -1    0    0    0  501 -0.00000000000E+00  0.00000000000E+00  0.42303640183E+03  0.42303640183E+03  0.25500000000E-02 0.  1.
          2   -1    0    0  501    0  0.00000000000E+00 -0.00000000000E+00 -0.59803780652E+03  0.59803780653E+03  0.25500000000E-02 0. -1.
    8880022    1    1    2    0    0 -0.22823272611E+03  0.25929868117E+03  0.24956218145E+03  0.45276806286E+03  0.15294330000E+03 0.  0.
    8880022    1    1    2    0    0  0.22823272611E+03 -0.25929868117E+03 -0.42456358614E+03  0.56830614550E+03  0.15294330000E+03 0.  0.
<mgrwt>
<rscale>  0 0.37777988E+03</rscale>
<asrwt>0</asrwt>
<pdfrwt beam="1">  1        2 0.92005817E-01 0.37777988E+03</pdfrwt>
<pdfrwt beam="2">  1       -2 0.65082523E-01 0.37777988E+03</pdfrwt>
<totfact> 0.11273604E+02</totfact>
</mgrwt>
</event>
<event>
 4    1  0.5387657E-008  0.6431134E+03  0.7818608E-02  0.9819788E-01
          2   -1    0    0  501    0  0.00000000000E+00  0.00000000000E+00  0.22726440226E+04  0.22726440226E+04  0.25500000000E-02 0. -1.
         -2   -1    0    0    0  501 -0.00000000000E+00 -0.00000000000E+00 -0.30212934229E+03  0.30212934230E+03  0.25500000000E-02 0.  1.
    8880022    1    1    2    0    0  0.51950931294E+03  0.34686201573E+03  0.17344044342E+03  0.66609040274E+03  0.15294330000E+03 0.  1.
    8880022    1    1    2    0    0 -0.51950931294E+03 -0.34686201573E+03  0.17970742369E+04  0.19086829622E+04  0.15294330000E+03 0.  0.
<mgrwt>
<rscale>  0 0.64311339E+03</rscale>
<asrwt>0</asrwt>
<pdfrwt beam="1">  1        2 0.34963753E+00 0.64311339E+03</pdfrwt>
<pdfrwt beam="2">  1       -2 0.46481439E-01 0.64311339E+03</pdfrwt>
<totfact> 0.21803946E+01</totfact>
</mgrwt>
</event>
<event>
 4    1  0.5387657E-008  0.2045442E+03  0.7818608E-02  0.1145961E+00
          2   -1    0    0  501    0  0.00000000000E+00  0.00000000000E+00  0.99288524803E+03  0.99288524803E+03  0.25500000000E-02 0. -1.
         -2   -1    0    0    0  501 -0.00000000000E+00 -0.00000000000E+00 -0.70748967990E+02  0.70748968036E+02  0.25500000000E-02 0.  1.
    8880022    1    1    2    0    0 -0.94146136321E+02 -0.97893654265E+02  0.79926348942E+03  0.82502147915E+03  0.15294330000E+03 0. -1.
    8880022    1    1    2    0    0  0.94146136321E+02  0.97893654265E+02  0.12287279062E+03  0.23861273692E+03  0.15294330000E+03 0.  0.
<mgrwt>
<rscale>  0 0.20454417E+03</rscale>
<asrwt>0</asrwt>
<pdfrwt beam="1">  1        2 0.15275158E+00 0.20454417E+03</pdfrwt>
<pdfrwt beam="2">  1       -2 0.10884456E-01 0.20454417E+03</pdfrwt>
<totfact> 0.15354936E+03</totfact>
</mgrwt>
</event>
<event>
 4    1  0.5387657E-008  0.3744556E+03  0.7818608E-02  0.1053002E+00
         -2   -1    0    0    0  501 -0.00000000000E+00  0.00000000000E+00  0.17713033643E+03  0.17713033645E+03  0.25500000000E-02 0.  1.
          2   -1    0    0  501    0  0.00000000000E+00 -0.00000000000E+00 -0.17298190337E+04  0.17298190337E+04  0.25500000000E-02 0. -1.
    8880022    1    1    2    0    0  0.73857875566E+01 -0.34171745348E+03 -0.74145511354E+02  0.38172578868E+03  0.15294330000E+03 0.  0.
    8880022    1    1    2    0    0 -0.73857875566E+01  0.34171745348E+03 -0.14785431859E+04  0.15252235814E+04  0.15294330000E+03 0. -1.
<mgrwt>
<rscale>  0 0.37445563E+03</rscale>
<asrwt>0</asrwt>
<pdfrwt beam="1">  1        2 0.26612599E+00 0.37445563E+03</pdfrwt>
<pdfrwt beam="2">  1       -2 0.27250822E-01 0.37445563E+03</pdfrwt>
<totfact> 0.12389915E+02</totfact>
</mgrwt>
</event>
<event>
 4    1  0.5387657E-008  0.6168571E+03  0.7818608E-02  0.9871037E-01
         -2   -1    0    0    0  501 -0.00000000000E+00  0.00000000000E+00  0.81008157238E+03  0.81008157238E+03  0.25500000000E-02 0.  1.
          2   -1    0    0  501    0  0.00000000000E+00 -0.00000000000E+00 -0.20858323882E+04  0.20858323882E+04  0.25500000000E-02 0. -1.
    8880022    1    1    2    0    0  0.13871920233E+02  0.59743506352E+03 -0.19124097222E+04  0.20094336724E+04  0.15294330000E+03 0.  0.
    8880022    1    1    2    0    0 -0.13871920233E+02 -0.59743506352E+03  0.63665890636E+03  0.88648028819E+03  0.15294330000E+03 0.  0.
<mgrwt>
<rscale>  0 0.61685715E+03</rscale>
<asrwt>0</asrwt>
<pdfrwt beam="1">  1        2 0.32089729E+00 0.61685715E+03</pdfrwt>
<pdfrwt beam="2">  1       -2 0.12462793E+00 0.61685715E+03</pdfrwt>
<totfact> 0.30831306E+00</totfact>
</mgrwt>
</event>
<event>
 4    1  0.5387657E-008  0.5047550E+03  0.7818608E-02  0.1012545E+00
          2   -1    0    0  501    0  0.00000000000E+00  0.00000000000E+00  0.78393966396E+03  0.78393966396E+03  0.25500000000E-02 0. -1.
         -2   -1    0    0    0  501 -0.00000000000E+00 -0.00000000000E+00 -0.43181025228E+03  0.43181025229E+03  0.25500000000E-02 0.  1.
    8880022    1    1    2    0    0  0.26678059385E+03  0.40026748292E+03 -0.12626546935E+03  0.52030814418E+03  0.15294330000E+03 0.  0.
    8880022    1    1    2    0    0 -0.26678059385E+03 -0.40026748292E+03  0.47839488103E+03  0.69544177207E+03  0.15294330000E+03 0.  0.
<mgrwt>
<rscale>  0 0.50475499E+03</rscale>
<asrwt>0</asrwt>
<pdfrwt beam="1">  1        2 0.12060610E+00 0.50475499E+03</pdfrwt>
<pdfrwt beam="2">  1       -2 0.66432348E-01 0.50475499E+03</pdfrwt>
<totfact> 0.76234903E+01</totfact>
</mgrwt>
</event>
<event>
 4    1  0.5387657E-008  0.1543649E+03  0.7818608E-02  0.1195210E+00
         -2   -1    0    0    0  501 -0.00000000000E+00  0.00000000000E+00  0.78364250000E+02  0.78364250042E+02  0.25500000000E-02 0.  1.
          2   -1    0    0  501    0  0.00000000000E+00 -0.00000000000E+00 -0.11504912248E+04  0.11504912248E+04  0.25500000000E-02 0. -1.
    8880022    1    1    2    0    0 -0.86828278385E+01  0.19012894631E+02 -0.10630765648E+04  0.10742254500E+04  0.15294330000E+03 0. -1.
    8880022    1    1    2    0    0  0.86828278385E+01 -0.19012894631E+02 -0.90504099866E+01  0.15463002489E+03  0.15294330000E+03 0.  0.
<mgrwt>
<rscale>  0 0.15436494E+03</rscale>
<asrwt>0</asrwt>
<pdfrwt beam="1">  1        2 0.17699864E+00 0.15436494E+03</pdfrwt>
<pdfrwt beam="2">  1       -2 0.12056039E-01 0.15436494E+03</pdfrwt>
<totfact> 0.10544605E+03</totfact>
</mgrwt>
</event>
<event>
 4    1  0.5387657E-008  0.1711292E+03  0.7818608E-02  0.1176675E+00
          2   -1    0    0  501    0  0.00000000000E+00  0.00000000000E+00  0.18360463736E+04  0.18360463736E+04  0.25500000000E-02 0. -1.
         -2   -1    0    0    0  501 -0.00000000000E+00 -0.00000000000E+00 -0.33127612634E+02  0.33127612732E+02  0.25500000000E-02 0.  1.
    8880022    1    1    2    0    0 -0.29874420448E+02 -0.70718309629E+02  0.22847624464E+03  0.28545859191E+03  0.15294330000E+03 0.  1.
    8880022    1    1    2    0    0  0.29874420448E+02  0.70718309629E+02  0.15744425163E+04  0.15837153944E+04  0.15294330000E+03 0.  0.
<mgrwt>
<rscale>  0 0.17112923E+03</rscale>
<asrwt>0</asrwt>
<pdfrwt beam="1">  1        2 0.28246873E+00 0.17112923E+03</pdfrwt>
<pdfrwt beam="2">  1       -2 0.50965547E-02 0.17112923E+03</pdfrwt>
<totfact> 0.17345351E+03</totfact>
</mgrwt>
</event>
<event>
 4    1  0.5387657E-008  0.5349775E+03  0.7818608E-02  0.1005032E+00
         -2   -1    0    0    0  501 -0.00000000000E+00  0.00000000000E+00  0.24463213527E+03  0.24463213529E+03  0.25500000000E-02 0.  1.
          2   -1    0    0  501    0  0.00000000000E+00 -0.00000000000E+00 -0.14428886526E+04  0.14428886526E+04  0.25500000000E-02 0. -1.
    8880022    1    1    2    0    0  0.22612511568E+03  0.46008331998E+03 -0.23213647954E+03  0.58317083896E+03  0.15294330000E+03 0.  0.
    8880022    1    1    2    0    0 -0.22612511568E+03 -0.46008331998E+03 -0.96612003776E+03  0.11043499489E+04  0.15294330000E+03 0.  0.
<mgrwt>
<rscale>  0 0.53497746E+03</rscale>
<asrwt>0</asrwt>
<pdfrwt beam="1">  1        2 0.22198286E+00 0.53497746E+03</pdfrwt>
<pdfrwt beam="2">  1       -2 0.37635714E-01 0.53497746E+03</pdfrwt>
<totfact> 0.94873297E+01</totfact>
</mgrwt>
</event>
<event>
 4    1  0.5387657E-008  0.1291684E+04  0.7818608E-02  0.9036186E-01
         -2   -1    0    0    0  501 -0.00000000000E+00  0.00000000000E+00  0.13925844281E+04  0.13925844281E+04  0.25500000000E-02 0.  1.
          2   -1    0    0  501    0  0.00000000000E+00 -0.00000000000E+00 -0.30468835674E+04  0.30468835674E+04  0.25500000000E-02 0. -1.
    8880022    1    1    2    0    0  0.12275703138E+04 -0.37165471834E+03 -0.25562359323E+04  0.28640513088E+04  0.15294330000E+03 0.  0.
    8880022    1    1    2    0    0 -0.12275703138E+04  0.37165471834E+03  0.90193679302E+03  0.15754166867E+04  0.15294330000E+03 0.  0.
<mgrwt>
<rscale>  0 0.12916841E+04</rscale>
<asrwt>0</asrwt>
<pdfrwt beam="1">  1        2 0.46875131E+00 0.12916841E+04</pdfrwt>
<pdfrwt beam="2">  1       -2 0.21424376E+00 0.12916841E+04</pdfrwt>
<totfact> 0.16964431E-01</totfact>
</mgrwt>
</event>
<event>
 4    1  0.5387657E-008  0.1391456E+04  0.7818608E-02  0.8960027E-01
         -2   -1    0    0    0  501 -0.00000000000E+00  0.00000000000E+00  0.71492717161E+03  0.71492717162E+03  0.25500000000E-02 0.  1.
          2   -1    0    0  501    0  0.00000000000E+00 -0.00000000000E+00 -0.39615569420E+04  0.39615569420E+04  0.25500000000E-02 0. -1.
    8880022    1    1    2    0    0 -0.42796932357E+03  0.13151423809E+04 -0.30809612628E+03  0.14251568686E+04  0.15294330000E+03 0.  0.
    8880022    1    1    2    0    0  0.42796932357E+03 -0.13151423809E+04 -0.29385336441E+04  0.32513272451E+04  0.15294330000E+03 0.  0.
<mgrwt>
<rscale>  0 0.13914557E+04</rscale>
<asrwt>0</asrwt>
<pdfrwt beam="1">  1        2 0.60947029E+00 0.13914557E+04</pdfrwt>
<pdfrwt beam="2">  1       -2 0.10998880E+00 0.13914557E+04</pdfrwt>
<totfact> 0.23705580E-01</totfact>
</mgrwt>
</event>
<event>
 4    1  0.5387657E-008  0.2550609E+03  0.7818608E-02  0.1110148E+00
          2   -1    0    0  501    0  0.00000000000E+00  0.00000000000E+00  0.87778487952E+03  0.87778487953E+03  0.25500000000E-02 0. -1.
         -2   -1    0    0    0  501 -0.00000000000E+00 -0.00000000000E+00 -0.83144234429E+02  0.83144234468E+02  0.25500000000E-02 0.  1.
    8880022    1    1    2    0    0 -0.14227091442E+03  0.14636732464E+03  0.23897791992E+03  0.34952325536E+03  0.15294330000E+03 0.  1.
    8880022    1    1    2    0    0  0.14227091442E+03 -0.14636732464E+03  0.55566272517E+03  0.61140585863E+03  0.15294330000E+03 0. -1.
<mgrwt>
<rscale>  0 0.25506089E+03</rscale>
<asrwt>0</asrwt>
<pdfrwt beam="1">  1        2 0.13504383E+00 0.25506089E+03</pdfrwt>
<pdfrwt beam="2">  1       -2 0.12791420E-01 0.25506089E+03</pdfrwt>
<totfact> 0.13997901E+03</totfact>
</mgrwt>
</event>
<event>
 4    1  0.5387657E-008  0.4413624E+03  0.7818608E-02  0.1030330E+00
         -2   -1    0    0    0  501 -0.00000000000E+00  0.00000000000E+00  0.60200988993E+03  0.60200988994E+03  0.25500000000E-02 0.  1.
          2   -1    0    0  501    0  0.00000000000E+00 -0.00000000000E+00 -0.92128569086E+03  0.92128569086E+03  0.25500000000E-02 0. -1.
    8880022    1    1    2    0    0 -0.36889385220E+03 -0.18795318579E+03 -0.77311632062E+03  0.89023006715E+03  0.15294330000E+03 0. -1.
    8880022    1    1    2    0    0  0.36889385220E+03  0.18795318579E+03  0.45384051969E+03  0.63306551365E+03  0.15294330000E+03 0.  0.
<mgrwt>
<rscale>  0 0.44136235E+03</rscale>
<asrwt>0</asrwt>
<pdfrwt beam="1">  1        2 0.14173626E+00 0.44136235E+03</pdfrwt>
<pdfrwt beam="2">  1       -2 0.92616907E-01 0.44136235E+03</pdfrwt>
<totfact> 0.29579358E+01</totfact>
</mgrwt>
</event>
<event>
 4    1  0.5387657E-008  0.1270126E+04  0.7818608E-02  0.9053597E-01
          2   -1    0    0  501    0  0.00000000000E+00  0.00000000000E+00  0.15589826531E+04  0.15589826531E+04  0.25500000000E-02 0. -1.
         -2   -1    0    0    0  501 -0.00000000000E+00 -0.00000000000E+00 -0.11116692340E+04  0.11116692340E+04  0.25500000000E-02 0.  1.
    8880022    1    1    2    0    0  0.12394342114E+04 -0.23158241903E+03  0.57481650575E+03  0.13941424781E+04  0.15294330000E+03 0.  0.
    8880022    1    1    2    0    0 -0.12394342114E+04  0.23158241903E+03 -0.12750308664E+03  0.12765094090E+04  0.15294330000E+03 0.  0.
<mgrwt>
<rscale>  0 0.12701257E+04</rscale>
<asrwt>0</asrwt>
<pdfrwt beam="1">  1        2 0.23984348E+00 0.12701257E+04</pdfrwt>
<pdfrwt beam="2">  1       -2 0.17102604E+00 0.12701257E+04</pdfrwt>
<totfact> 0.23754048E+00</totfact>
</mgrwt>
</event>
<event>
 4    1  0.5387657E-008  0.5562126E+03  0.7818608E-02  0.1000066E+00
         -2   -1    0    0    0  501 -0.00000000000E+00  0.00000000000E+00  0.58530320080E+03  0.58530320080E+03  0.25500000000E-02 0.  1.
          2   -1    0    0  501    0  0.00000000000E+00 -0.00000000000E+00 -0.19059935658E+04  0.19059935658E+04  0.25500000000E-02 0. -1.
    8880022    1    1    2    0    0  0.47303549899E+03  0.24943571659E+03 -0.17192790980E+04  0.18070121831E+04  0.15294330000E+03 0.  0.
    8880022    1    1    2    0    0 -0.47303549899E+03 -0.24943571659E+03  0.39858873305E+03  0.68428458345E+03  0.15294330000E+03 0.  1.
<mgrwt>
<rscale>  0 0.55621256E+03</rscale>
<asrwt>0</asrwt>
<pdfrwt beam="1">  1        2 0.29322978E+00 0.55621256E+03</pdfrwt>
<pdfrwt beam="2">  1       -2 0.90046647E-01 0.55621256E+03</pdfrwt>
<totfact> 0.85076758E+00</totfact>
</mgrwt>
</event>
<event>
 4    1  0.5387657E-008  0.6687047E+03  0.7818608E-02  0.9772301E-01
         -2   -1    0    0    0  501 -0.00000000000E+00  0.00000000000E+00  0.10371356643E+04  0.10371356643E+04  0.25500000000E-02 0.  1.
          2   -1    0    0  501    0  0.00000000000E+00 -0.00000000000E+00 -0.87275847674E+03  0.87275847674E+03  0.25500000000E-02 0. -1.
    8880022    1    1    2    0    0 -0.63742590567E+03 -0.13214612963E+03 -0.59709104165E+03  0.89648410462E+03  0.15294330000E+03 0.  0.
    8880022    1    1    2    0    0  0.63742590567E+03  0.13214612963E+03  0.76146822918E+03  0.10134100364E+04  0.15294330000E+03 0.  0.
<mgrwt>
<rscale>  0 0.66870475E+03</rscale>
<asrwt>0</asrwt>
<pdfrwt beam="1">  1        2 0.13427053E+00 0.66870475E+03</pdfrwt>
<pdfrwt beam="2">  1       -2 0.15955933E+00 0.66870475E+03</pdfrwt>
<totfact> 0.79880683E+00</totfact>
</mgrwt>
</event>
<event>
 4    1  0.5387657E-008  0.6293760E+03  0.7818608E-02  0.9846267E-01
         -2   -1    0    0    0  501 -0.00000000000E+00  0.00000000000E+00  0.80713949564E+03  0.80713949565E+03  0.25500000000E-02 0.  1.
          2   -1    0    0  501    0  0.00000000000E+00 -0.00000000000E+00 -0.15309210145E+04  0.15309210145E+04  0.25500000000E-02 0. -1.
    8880022    1    1    2    0    0  0.58576994636E+03 -0.17203498774E+03  0.60171422854E+03  0.87073195238E+03  0.15294330000E+03 0.  0.
    8880022    1    1    2    0    0 -0.58576994636E+03  0.17203498774E+03 -0.13254957474E+04  0.14673285578E+04  0.15294330000E+03 0.  0.
<mgrwt>
<rscale>  0 0.62937598E+03</rscale>
<asrwt>0</asrwt>
<pdfrwt beam="1">  1        2 0.23552631E+00 0.62937598E+03</pdfrwt>
<pdfrwt beam="2">  1       -2 0.12417531E+00 0.62937598E+03</pdfrwt>
<totfact> 0.62180201E+00</totfact>
</mgrwt>
</event>
<event>
 4    1  0.5387657E-008  0.6637291E+03  0.7818608E-02  0.9781353E-01
          2   -1    0    0  501    0  0.00000000000E+00  0.00000000000E+00  0.99925943598E+03  0.99925943599E+03  0.25500000000E-02 0. -1.
         -2   -1    0    0    0  501 -0.00000000000E+00 -0.00000000000E+00 -0.93548053027E+03  0.93548053027E+03  0.25500000000E-02 0.  1.
    8880022    1    1    2    0    0  0.63761788993E+03  0.10289872545E+03 -0.67152298599E+03  0.94418191837E+03  0.15294330000E+03 0.  0.
    8880022    1    1    2    0    0 -0.63761788993E+03 -0.10289872545E+03  0.73530189171E+03  0.99055804788E+03  0.15294330000E+03 0.  0.
<mgrwt>
<rscale>  0 0.66372914E+03</rscale>
<asrwt>0</asrwt>
<pdfrwt beam="1">  1        2 0.15373222E+00 0.66372914E+03</pdfrwt>
<pdfrwt beam="2">  1       -2 0.14392008E+00 0.66372914E+03</pdfrwt>
<totfact> 0.86759820E+00</totfact>
</mgrwt>
</event>
<event>
 4    1  0.5387657E-008  0.2203679E+03  0.7818608E-02  0.1133609E+00
         -2   -1    0    0    0  501 -0.00000000000E+00  0.00000000000E+00  0.25714750881E+03  0.25714750882E+03  0.25500000000E-02 0.  1.
          2   -1    0    0  501    0  0.00000000000E+00 -0.00000000000E+00 -0.18222466027E+04  0.18222466027E+04  0.25500000000E-02 0. -1.
    8880022    1    1    2    0    0 -0.15651435684E+03 -0.25954051188E+02 -0.17668988026E+04  0.17805879333E+04  0.15294330000E+03 0.  0.
    8880022    1    1    2    0    0  0.15651435684E+03  0.25954051188E+02  0.20179970872E+03  0.29880617819E+03  0.15294330000E+03 0.  1.
<mgrwt>
<rscale>  0 0.22036790E+03</rscale>
<asrwt>0</asrwt>
<pdfrwt beam="1">  1        2 0.28034562E+00 0.22036790E+03</pdfrwt>
<pdfrwt beam="2">  1       -2 0.39561156E-01 0.22036790E+03</pdfrwt>
<totfact> 0.57844344E+01</totfact>
</mgrwt>
</event>
<event>
 4    1  0.5387657E-008  0.5810747E+03  0.7818608E-02  0.9945467E-01
         -2   -1    0    0    0  501 -0.00000000000E+00  0.00000000000E+00  0.85606114848E+03  0.85606114848E+03  0.25500000000E-02 0.  1.
          2   -1    0    0  501    0  0.00000000000E+00 -0.00000000000E+00 -0.11677173032E+04  0.11677173032E+04  0.25500000000E-02 0. -1.
    8880022    1    1    2    0    0 -0.53961497376E+03 -0.15189423593E+03  0.66762204465E+03  0.88508023723E+03  0.15294330000E+03 0.  0.
    8880022    1    1    2    0    0  0.53961497376E+03  0.15189423593E+03 -0.97927819934E+03  0.11386982144E+04  0.15294330000E+03 0.  0.
<mgrwt>
<rscale>  0 0.58107472E+03</rscale>
<asrwt>0</asrwt>
<pdfrwt beam="1">  1        2 0.17964882E+00 0.58107472E+03</pdfrwt>
<pdfrwt beam="2">  1       -2 0.13170171E+00 0.58107472E+03</pdfrwt>
<totfact> 0.86993694E+00</totfact>
</mgrwt>
</event>
<event>
 4    1  0.5387657E-008  0.1279009E+04  0.7818608E-02  0.9046378E-01
         -2   -1    0    0    0  501 -0.00000000000E+00  0.00000000000E+00  0.18341902502E+04  0.18341902502E+04  0.25500000000E-02 0.  1.
          2   -1    0    0  501    0  0.00000000000E+00 -0.00000000000E+00 -0.17622957681E+04  0.17622957681E+04  0.25500000000E-02 0. -1.
    8880022    1    1    2    0    0  0.12548477689E+04  0.19450091171E+03  0.12997347124E+04  0.18235063760E+04  0.15294330000E+03 0.  0.
    8880022    1    1    2    0    0 -0.12548477689E+04 -0.19450091171E+03 -0.12278402303E+04  0.17729796423E+04  0.15294330000E+03 0.  0.
<mgrwt>
<rscale>  0 0.12790095E+04</rscale>
<asrwt>0</asrwt>
<pdfrwt beam="1">  1        2 0.27112243E+00 0.12790095E+04</pdfrwt>
<pdfrwt beam="2">  1       -2 0.28218311E+00 0.12790095E+04</pdfrwt>
<totfact> 0.35645428E-01</totfact>
</mgrwt>
</event>
<event>
 4    1  0.5387657E-008  0.6898717E+03  0.7818608E-02  0.9734711E-01
          2   -1    0    0  501    0  0.00000000000E+00  0.00000000000E+00  0.69889657963E+03  0.69889657964E+03  0.25500000000E-02 0. -1.
         -2   -1    0    0    0  501 -0.00000000000E+00 -0.00000000000E+00 -0.12887532713E+04  0.12887532713E+04  0.25500000000E-02 0.  1.
    8880022    1    1    2    0    0  0.50368562690E+03 -0.44590591417E+03 -0.97742691572E+03  0.11963637923E+04  0.15294330000E+03 0.  0.
    8880022    1    1    2    0    0 -0.50368562690E+03  0.44590591417E+03  0.38757022402E+03  0.79128605864E+03  0.15294330000E+03 0.  0.
<mgrwt>
<rscale>  0 0.68987169E+03</rscale>
<asrwt>0</asrwt>
<pdfrwt beam="1">  1        2 0.10752255E+00 0.68987169E+03</pdfrwt>
<pdfrwt beam="2">  1       -2 0.19826973E+00 0.68987169E+03</pdfrwt>
<totfact> 0.57669168E+00</totfact>
</mgrwt>
</event>
<event>
 4    1  0.5387657E-008  0.3774561E+03  0.7818608E-02  0.1051878E+00
          2   -1    0    0  501    0  0.00000000000E+00  0.00000000000E+00  0.29435739790E+04  0.29435739790E+04  0.25500000000E-02 0. -1.
         -2   -1    0    0    0  501 -0.00000000000E+00 -0.00000000000E+00 -0.18269664170E+03  0.18269664172E+03  0.25500000000E-02 0.  1.
    8880022    1    1    2    0    0 -0.11361807947E+03 -0.32584108261E+03  0.27206139005E+04  0.27466731017E+04  0.15294330000E+03 0.  0.
    8880022    1    1    2    0    0  0.11361807947E+03  0.32584108261E+03  0.40263436832E+02  0.37959751904E+03  0.15294330000E+03 0.  0.
<mgrwt>
<rscale>  0 0.37745613E+03</rscale>
<asrwt>0</asrwt>
<pdfrwt beam="1">  1        2 0.45285755E+00 0.37745613E+03</pdfrwt>
<pdfrwt beam="2">  1       -2 0.28107175E-01 0.37745613E+03</pdfrwt>
<totfact> 0.25114503E+01</totfact>
</mgrwt>
</event>
<event>
 4    1  0.5387657E-008  0.2893075E+03  0.7818608E-02  0.1090711E+00
         -2   -1    0    0    0  501 -0.00000000000E+00  0.00000000000E+00  0.10109111671E+03  0.10109111674E+03  0.25500000000E-02 0.  1.
          2   -1    0    0  501    0  0.00000000000E+00 -0.00000000000E+00 -0.99325769888E+03  0.99325769888E+03  0.25500000000E-02 0. -1.
    8880022    1    1    2    0    0  0.23552034162E+03 -0.69550979686E+02 -0.22286194638E+03  0.36519346962E+03  0.15294330000E+03 0.  1.
    8880022    1    1    2    0    0 -0.23552034162E+03  0.69550979686E+02 -0.66930463579E+03  0.72915534599E+03  0.15294330000E+03 0.  0.
<mgrwt>
<rscale>  0 0.28930749E+03</rscale>
<asrwt>0</asrwt>
<pdfrwt beam="1">  1        2 0.15280887E+00 0.28930749E+03</pdfrwt>
<pdfrwt beam="2">  1       -2 0.15552480E-01 0.28930749E+03</pdfrwt>
<totfact> 0.85572171E+02</totfact>
</mgrwt>
</event>
<event>
 4    1  0.5387657E-008  0.1204894E+04  0.7818608E-02  0.9108584E-01
         -2   -1    0    0    0  501 -0.00000000000E+00  0.00000000000E+00  0.18909967766E+04  0.18909967766E+04  0.25500000000E-02 0.  1.
          2   -1    0    0  501    0  0.00000000000E+00 -0.00000000000E+00 -0.10938890757E+04  0.10938890757E+04  0.25500000000E-02 0. -1.
    8880022    1    1    2    0    0 -0.99234475202E+03  0.66605487119E+03 -0.41639053528E+03  0.12748136841E+04  0.15294330000E+03 0.  0.
    8880022    1    1    2    0    0  0.99234475202E+03 -0.66605487119E+03  0.12134982361E+04  0.17100721682E+04  0.15294330000E+03 0.  0.
<mgrwt>
<rscale>  0 0.12048937E+04</rscale>
<asrwt>0</asrwt>
<pdfrwt beam="1">  1        2 0.16829063E+00 0.12048937E+04</pdfrwt>
<pdfrwt beam="2">  1       -2 0.29092258E+00 0.12048937E+04</pdfrwt>
<totfact> 0.77467440E-01</totfact>
</mgrwt>
</event>
<event>
 4    1  0.5387657E-008  0.3572825E+03  0.7818608E-02  0.1059665E+00
         -2   -1    0    0    0  501 -0.00000000000E+00  0.00000000000E+00  0.66554980194E+03  0.66554980194E+03  0.25500000000E-02 0.  1.
          2   -1    0    0  501    0  0.00000000000E+00 -0.00000000000E+00 -0.84989027549E+03  0.84989027549E+03  0.25500000000E-02 0. -1.
    8880022    1    1    2    0    0  0.17284802469E+03 -0.27273186201E+03 -0.75893235512E+03  0.83882601346E+03  0.15294330000E+03 0.  0.
    8880022    1    1    2    0    0 -0.17284802469E+03  0.27273186201E+03  0.57459188157E+03  0.67661406398E+03  0.15294330000E+03 0.  0.
<mgrwt>
<rscale>  0 0.35728247E+03</rscale>
<asrwt>0</asrwt>
<pdfrwt beam="1">  1        2 0.13075235E+00 0.35728247E+03</pdfrwt>
<pdfrwt beam="2">  1       -2 0.10239228E+00 0.35728247E+03</pdfrwt>
<totfact> 0.26508374E+01</totfact>
</mgrwt>
</event>
<event>
 4    1  0.5387657E-008  0.6675090E+03  0.7818608E-02  0.9774468E-01
         -2   -1    0    0    0  501 -0.00000000000E+00  0.00000000000E+00  0.12939369781E+03  0.12939369784E+03  0.25500000000E-02 0.  1.
          2   -1    0    0  501    0  0.00000000000E+00 -0.00000000000E+00 -0.41392331894E+04  0.41392331894E+04  0.25500000000E-02 0. -1.
    8880022    1    1    2    0    0 -0.62263961074E+03 -0.18573238247E+03 -0.28799378999E+04  0.29562832345E+04  0.15294330000E+03 0.  0.
    8880022    1    1    2    0    0  0.62263961074E+03  0.18573238247E+03 -0.11299015917E+04  0.13123436527E+04  0.15294330000E+03 0.  0.
<mgrwt>
<rscale>  0 0.66750899E+03</rscale>
<asrwt>0</asrwt>
<pdfrwt beam="1">  1        2 0.63680500E+00 0.66750899E+03</pdfrwt>
<pdfrwt beam="2">  1       -2 0.19906726E-01 0.66750899E+03</pdfrwt>
<totfact> 0.63837299E+00</totfact>
</mgrwt>
</event>
<event>
 4    1  0.5387657E-008  0.3635385E+03  0.7818608E-02  0.1057191E+00
          2   -1    0    0  501    0  0.00000000000E+00  0.00000000000E+00  0.26616234238E+03  0.26616234239E+03  0.25500000000E-02 0. -1.
         -2   -1    0    0    0  501 -0.00000000000E+00 -0.00000000000E+00 -0.51854952429E+03  0.51854952429E+03  0.25500000000E-02 0.  1.
    8880022    1    1    2    0    0 -0.17411084942E+03  0.28009646269E+03 -0.20702677715E+03  0.41835434236E+03  0.15294330000E+03 0.  0.
    8880022    1    1    2    0    0  0.17411084942E+03 -0.28009646269E+03 -0.45360404755E+02  0.36635752433E+03  0.15294330000E+03 0.  0.
<mgrwt>
<rscale>  0 0.36353854E+03</rscale>
<asrwt>0</asrwt>
<pdfrwt beam="1">  1        2 0.40948053E-01 0.36353854E+03</pdfrwt>
<pdfrwt beam="2">  1       -2 0.79776850E-01 0.36353854E+03</pdfrwt>
<totfact> 0.17884921E+02</totfact>
</mgrwt>
</event>
<event>
 4    1  0.5387657E-008  0.1910430E+03  0.7818608E-02  0.1157524E+00
         -2   -1    0    0    0  501 -0.00000000000E+00  0.00000000000E+00  0.12529428659E+03  0.12529428661E+03  0.25500000000E-02 0.  1.
          2   -1    0    0  501    0  0.00000000000E+00 -0.00000000000E+00 -0.30346737963E+03  0.30346737964E+03  0.25500000000E-02 0. -1.
    8880022    1    1    2    0    0  0.10669008218E+03 -0.41509153981E+02 -0.46148641016E+02  0.19653786806E+03  0.15294330000E+03 0.  0.
    8880022    1    1    2    0    0 -0.10669008218E+03  0.41509153981E+02 -0.13202445203E+03  0.23222379819E+03  0.15294330000E+03 0.  1.
<mgrwt>
<rscale>  0 0.19104302E+03</rscale>
<asrwt>0</asrwt>
<pdfrwt beam="1">  1        2 0.46687289E-01 0.19104302E+03</pdfrwt>
<pdfrwt beam="2">  1       -2 0.19276044E-01 0.19104302E+03</pdfrwt>
<totfact> 0.23843179E+03</totfact>
</mgrwt>
</event>
<event>
 4    1  0.5387657E-008  0.5889394E+03  0.7818608E-02  0.9928623E-01
         -2   -1    0    0    0  501 -0.00000000000E+00  0.00000000000E+00  0.44284363770E+03  0.44284363771E+03  0.25500000000E-02 0.  1.
          2   -1    0    0  501    0  0.00000000000E+00 -0.00000000000E+00 -0.98045351665E+03  0.98045351665E+03  0.25500000000E-02 0. -1.
    8880022    1    1    2    0    0 -0.13329808868E+03  0.55289200894E+03  0.50369779702E+02  0.59108943630E+03  0.15294330000E+03 0.  0.
    8880022    1    1    2    0    0  0.13329808868E+03 -0.55289200894E+03 -0.58797965865E+03  0.83220771806E+03  0.15294330000E+03 0.  0.
<mgrwt>
<rscale>  0 0.58893939E+03</rscale>
<asrwt>0</asrwt>
<pdfrwt beam="1">  1        2 0.15083900E+00 0.58893939E+03</pdfrwt>
<pdfrwt beam="2">  1       -2 0.68129790E-01 0.58893939E+03</pdfrwt>
<totfact> 0.52725287E+01</totfact>
</mgrwt>
</event>
<event>
 4    1  0.5387657E-008  0.4552524E+03  0.7818608E-02  0.1026167E+00
         -2   -1    0    0    0  501 -0.00000000000E+00  0.00000000000E+00  0.59357183632E+03  0.59357183632E+03  0.25500000000E-02 0.  1.
          2   -1    0    0  501    0  0.00000000000E+00 -0.00000000000E+00 -0.12834321429E+04  0.12834321429E+04  0.25500000000E-02 0. -1.
    8880022    1    1    2    0    0  0.36056161977E+03 -0.23207413045E+03  0.45579632668E+03  0.64420883889E+03  0.15294330000E+03 0.  0.
    8880022    1    1    2    0    0 -0.36056161977E+03  0.23207413045E+03 -0.11456566332E+04  0.12327951403E+04  0.15294330000E+03 0. -1.
<mgrwt>
<rscale>  0 0.45525239E+03</rscale>
<asrwt>0</asrwt>
<pdfrwt beam="1">  1        2 0.19745110E+00 0.45525239E+03</pdfrwt>
<pdfrwt beam="2">  1       -2 0.91318744E-01 0.45525239E+03</pdfrwt>
<totfact> 0.18423982E+01</totfact>
</mgrwt>
</event>
<event>
 4    1  0.5387657E-008  0.4829758E+03  0.7818608E-02  0.1018321E+00
          2   -1    0    0  501    0  0.00000000000E+00  0.00000000000E+00  0.13224245139E+04  0.13224245139E+04  0.25500000000E-02 0. -1.
         -2   -1    0    0    0  501 -0.00000000000E+00 -0.00000000000E+00 -0.26699818202E+03  0.26699818203E+03  0.25500000000E-02 0.  1.
    8880022    1    1    2    0    0  0.32330456614E+03 -0.32457369577E+03  0.99066234401E+03  0.11021240671E+04  0.15294330000E+03 0.  0.
    8880022    1    1    2    0    0 -0.32330456614E+03  0.32457369577E+03  0.64763987834E+02  0.48729862878E+03  0.15294330000E+03 0.  0.
<mgrwt>
<rscale>  0 0.48297575E+03</rscale>
<asrwt>0</asrwt>
<pdfrwt beam="1">  1        2 0.20344992E+00 0.48297575E+03</pdfrwt>
<pdfrwt beam="2">  1       -2 0.41076644E-01 0.48297575E+03</pdfrwt>
<totfact> 0.94202654E+01</totfact>
</mgrwt>
</event>
<event>
 4    1  0.5387657E-008  0.1929606E+03  0.7818608E-02  0.1155818E+00
          2   -1    0    0  501    0  0.00000000000E+00  0.00000000000E+00  0.11424829121E+04  0.11424829121E+04  0.25500000000E-02 0. -1.
         -2   -1    0    0    0  501 -0.00000000000E+00 -0.00000000000E+00 -0.59516090642E+02  0.59516090696E+02  0.25500000000E-02 0.  1.
    8880022    1    1    2    0    0 -0.98058812494E+02 -0.65012272171E+02  0.94572567881E+03  0.96521025627E+03  0.15294330000E+03 0. -1.
    8880022    1    1    2    0    0  0.98058812494E+02  0.65012272171E+02  0.13724114270E+03  0.23678874658E+03  0.15294330000E+03 0.  0.
<mgrwt>
<rscale>  0 0.19296056E+03</rscale>
<asrwt>0</asrwt>
<pdfrwt beam="1">  1        2 0.17576659E+00 0.19296056E+03</pdfrwt>
<pdfrwt beam="2">  1       -2 0.91563221E-02 0.19296056E+03</pdfrwt>
<totfact> 0.16480970E+03</totfact>
</mgrwt>
</event>
<event>
 4    1  0.5387657E-008  0.5545888E+03  0.7818608E-02  0.1000437E+00
         -2   -1    0    0    0  501 -0.00000000000E+00  0.00000000000E+00  0.13563606409E+04  0.13563606409E+04  0.25500000000E-02 0.  1.
          2   -1    0    0  501    0  0.00000000000E+00 -0.00000000000E+00 -0.38671504445E+03  0.38671504446E+03  0.25500000000E-02 0. -1.
    8880022    1    1    2    0    0  0.37473376006E+03  0.37914606683E+03 -0.75694784330E+02  0.55973072482E+03  0.15294330000E+03 0.  0.
    8880022    1    1    2    0    0 -0.37473376006E+03 -0.37914606683E+03  0.10453403808E+04  0.11833449606E+04  0.15294330000E+03 0.  0.
<mgrwt>
<rscale>  0 0.55458884E+03</rscale>
<asrwt>0</asrwt>
<pdfrwt beam="1">  1        2 0.59494622E-01 0.55458884E+03</pdfrwt>
<pdfrwt beam="2">  1       -2 0.20867087E+00 0.55458884E+03</pdfrwt>
<totfact> 0.10074021E+01</totfact>
</mgrwt>
</event>
<event>
 4    1  0.5387657E-008  0.2014242E+03  0.7818608E-02  0.1148543E+00
          2   -1    0    0  501    0  0.00000000000E+00  0.00000000000E+00  0.20617434608E+03  0.20617434610E+03  0.25500000000E-02 0. -1.
         -2   -1    0    0    0  501 -0.00000000000E+00 -0.00000000000E+00 -0.39581358322E+03  0.39581358323E+03  0.25500000000E-02 0.  1.
    8880022    1    1    2    0    0  0.11065305956E+03  0.70256423751E+02  0.11861838951E+03  0.23375636893E+03  0.15294330000E+03 0.  0.
    8880022    1    1    2    0    0 -0.11065305956E+03 -0.70256423751E+02 -0.30825762665E+03  0.36823156040E+03  0.15294330000E+03 0.  0.
<mgrwt>
<rscale>  0 0.20142422E+03</rscale>
<asrwt>0</asrwt>
<pdfrwt beam="1">  1        2 0.31719130E-01 0.20142422E+03</pdfrwt>
<pdfrwt beam="2">  1       -2 0.60894397E-01 0.20142422E+03</pdfrwt>
<totfact> 0.42416188E+02</totfact>
</mgrwt>
</event>
<event>
 4    1  0.5387657E-008  0.4561511E+03  0.7818608E-02  0.1025903E+00
         -2   -1    0    0    0  501 -0.00000000000E+00  0.00000000000E+00  0.76033832459E+03  0.76033832459E+03  0.25500000000E-02 0.  1.
          2   -1    0    0  501    0  0.00000000000E+00 -0.00000000000E+00 -0.11025972406E+04  0.11025972406E+04  0.25500000000E-02 0. -1.
    8880022    1    1    2    0    0 -0.27949862023E+03 -0.32643940350E+03  0.63651522924E+03  0.78308712985E+03  0.15294330000E+03 0.  0.
    8880022    1    1    2    0    0  0.27949862023E+03  0.32643940350E+03 -0.97877414528E+03  0.10798484354E+04  0.15294330000E+03 0.  0.
<mgrwt>
<rscale>  0 0.45615109E+03</rscale>
<asrwt>0</asrwt>
<pdfrwt beam="1">  1        2 0.16963034E+00 0.45615109E+03</pdfrwt>
<pdfrwt beam="2">  1       -2 0.11697513E+00 0.45615109E+03</pdfrwt>
<totfact> 0.13066038E+01</totfact>
</mgrwt>
</event>
<event>
 4    1  0.5387657E-008  0.3077703E+03  0.7818608E-02  0.1081420E+00
         -2   -1    0    0    0  501 -0.00000000000E+00  0.00000000000E+00  0.35790109606E+03  0.35790109607E+03  0.25500000000E-02 0.  1.
          2   -1    0    0  501    0  0.00000000000E+00 -0.00000000000E+00 -0.29498304477E+04  0.29498304477E+04  0.25500000000E-02 0. -1.
    8880022    1    1    2    0    0 -0.90219412663E+02  0.25137892835E+03  0.28196468899E+03  0.41740465605E+03  0.15294330000E+03 0.  0.
    8880022    1    1    2    0    0  0.90219412663E+02 -0.25137892835E+03 -0.28738940406E+04  0.28903268877E+04  0.15294330000E+03 0.  0.
<mgrwt>
<rscale>  0 0.30777031E+03</rscale>
<asrwt>0</asrwt>
<pdfrwt beam="1">  1        2 0.45382005E+00 0.30777031E+03</pdfrwt>
<pdfrwt beam="2">  1       -2 0.55061709E-01 0.30777031E+03</pdfrwt>
<totfact> 0.70252963E+00</totfact>
</mgrwt>
</event>
<event>
 4    1  0.5387657E-008  0.5306287E+03  0.7818608E-02  0.1006080E+00
          2   -1    0    0  501    0  0.00000000000E+00  0.00000000000E+00  0.21888834423E+04  0.21888834423E+04  0.25500000000E-02 0. -1.
         -2   -1    0    0    0  501 -0.00000000000E+00 -0.00000000000E+00 -0.33201461366E+03  0.33201461367E+03  0.25500000000E-02 0.  1.
    8880022    1    1    2    0    0 -0.22872720513E+03 -0.45371692344E+03 -0.58073306061E+02  0.53379709898E+03  0.15294330000E+03 0.  0.
    8880022    1    1    2    0    0  0.22872720513E+03  0.45371692344E+03  0.19149421347E+04  0.19871009569E+04  0.15294330000E+03 0.  0.
<mgrwt>
<rscale>  0 0.53062872E+03</rscale>
<asrwt>0</asrwt>
<pdfrwt beam="1">  1        2 0.33675131E+00 0.53062872E+03</pdfrwt>
<pdfrwt beam="2">  1       -2 0.51079169E-01 0.53062872E+03</pdfrwt>
<totfact> 0.20461847E+01</totfact>
</mgrwt>
</event>
<event>
 4    1  0.5387657E-008  0.4294131E+03  0.7818608E-02  0.1034046E+00
          2   -1    0    0  501    0  0.00000000000E+00  0.00000000000E+00  0.30888519294E+03  0.30888519295E+03  0.25500000000E-02 0. -1.
         -2   -1    0    0    0  501 -0.00000000000E+00 -0.00000000000E+00 -0.11399257693E+04  0.11399257693E+04  0.25500000000E-02 0.  1.
    8880022    1    1    2    0    0 -0.34198185278E+03  0.20988661521E+03 -0.91546859351E+03  0.10111767292E+04  0.15294330000E+03 0.  0.
    8880022    1    1    2    0    0  0.34198185278E+03 -0.20988661521E+03  0.84428017156E+02  0.43763423309E+03  0.15294330000E+03 0.  0.
<mgrwt>
<rscale>  0 0.42941312E+03</rscale>
<asrwt>0</asrwt>
<pdfrwt beam="1">  1        2 0.47520800E-01 0.42941312E+03</pdfrwt>
<pdfrwt beam="2">  1       -2 0.17537319E+00 0.42941312E+03</pdfrwt>
<totfact> 0.21763575E+01</totfact>
</mgrwt>
</event>
<event>
 4    1  0.5387657E-008  0.8663208E+03  0.7818608E-02  0.9468690E-01
         -2   -1    0    0    0  501 -0.00000000000E+00  0.00000000000E+00  0.14954709622E+04  0.14954709622E+04  0.25500000000E-02 0.  1.
          2   -1    0    0  501    0  0.00000000000E+00 -0.00000000000E+00 -0.85122339390E+03  0.85122339391E+03  0.25500000000E-02 0. -1.
    8880022    1    1    2    0    0 -0.27179559444E+03  0.80823715541E+03 -0.42957810683E+03  0.96697939348E+03  0.15294330000E+03 0.  0.
    8880022    1    1    2    0    0  0.27179559444E+03 -0.80823715541E+03  0.10738256752E+04  0.13797149627E+04  0.15294330000E+03 0.  0.
<mgrwt>
<rscale>  0 0.86632084E+03</rscale>
<asrwt>0</asrwt>
<pdfrwt beam="1">  1        2 0.13095745E+00 0.86632084E+03</pdfrwt>
<pdfrwt beam="2">  1       -2 0.23007245E+00 0.86632084E+03</pdfrwt>
<totfact> 0.27357958E+00</totfact>
</mgrwt>
</event>
<event>
 4    1  0.5387657E-008  0.5782229E+03  0.7818608E-02  0.9951646E-01
          2   -1    0    0  501    0  0.00000000000E+00  0.00000000000E+00  0.44710770982E+03  0.44710770983E+03  0.25500000000E-02 0. -1.
         -2   -1    0    0    0  501 -0.00000000000E+00 -0.00000000000E+00 -0.13357620837E+04  0.13357620837E+04  0.25500000000E-02 0.  1.
    8880022    1    1    2    0    0 -0.55662622550E+03  0.33427049812E+02  0.14710393122E+03  0.59664172011E+03  0.15294330000E+03 0.  0.
    8880022    1    1    2    0    0  0.55662622550E+03 -0.33427049812E+02 -0.10357583051E+04  0.11862280734E+04  0.15294330000E+03 0.  0.
<mgrwt>
<rscale>  0 0.57822295E+03</rscale>
<asrwt>0</asrwt>
<pdfrwt beam="1">  1        2 0.68785802E-01 0.57822295E+03</pdfrwt>
<pdfrwt beam="2">  1       -2 0.20550186E+00 0.57822295E+03</pdfrwt>
<totfact> 0.89359698E+00</totfact>
</mgrwt>
</event>
<event>
 4    1  0.5387657E-008  0.6509276E+03  0.7818608E-02  0.9805040E-01
          2   -1    0    0  501    0  0.00000000000E+00  0.00000000000E+00  0.33574256761E+04  0.33574256761E+04  0.25500000000E-02 0. -1.
         -2   -1    0    0    0  501 -0.00000000000E+00 -0.00000000000E+00 -0.39701113218E+03  0.39701113219E+03  0.25500000000E-02 0.  1.
    8880022    1    1    2    0    0  0.58048151334E+03  0.25170684204E+03  0.30306181259E+04  0.30997343434E+04  0.15294330000E+03 0.  0.
    8880022    1    1    2    0    0 -0.58048151334E+03 -0.25170684204E+03 -0.70203581927E+02  0.65470246493E+03  0.15294330000E+03 0.  1.
<mgrwt>
<rscale>  0 0.65092763E+03</rscale>
<asrwt>0</asrwt>
<pdfrwt beam="1">  1        2 0.51652702E+00 0.65092763E+03</pdfrwt>
<pdfrwt beam="2">  1       -2 0.61078636E-01 0.65092763E+03</pdfrwt>
<totfact> 0.28107036E+00</totfact>
</mgrwt>
</event>
<event>
 4    1  0.5387657E-008  0.6771837E+03  0.7818608E-02  0.9757067E-01
         -2   -1    0    0    0  501 -0.00000000000E+00  0.00000000000E+00  0.70490029944E+03  0.70490029944E+03  0.25500000000E-02 0.  1.
          2   -1    0    0  501    0  0.00000000000E+00 -0.00000000000E+00 -0.85066424341E+03  0.85066424341E+03  0.25500000000E-02 0. -1.
    8880022    1    1    2    0    0 -0.56228230520E+03  0.34499958747E+03 -0.45011564773E+03  0.81313089687E+03  0.15294330000E+03 0.  0.
    8880022    1    1    2    0    0  0.56228230520E+03 -0.34499958747E+03  0.30435170376E+03  0.74243364599E+03  0.15294330000E+03 0.  0.
<mgrwt>
<rscale>  0 0.67718370E+03</rscale>
<asrwt>0</asrwt>
<pdfrwt beam="1">  1        2 0.13087142E+00 0.67718370E+03</pdfrwt>
<pdfrwt beam="2">  1       -2 0.10844620E+00 0.67718370E+03</pdfrwt>
<totfact> 0.22046240E+01</totfact>
</mgrwt>
</event>
<event>
 4    1  0.5387657E-008  0.3111707E+03  0.7818608E-02  0.1079786E+00
          2   -1    0    0  501    0  0.00000000000E+00  0.00000000000E+00  0.65230029713E+03  0.65230029714E+03  0.25500000000E-02 0. -1.
         -2   -1    0    0    0  501 -0.00000000000E+00 -0.00000000000E+00 -0.20369690039E+03  0.20369690040E+03  0.25500000000E-02 0.  1.
    8880022    1    1    2    0    0  0.21176840891E+03 -0.16908485773E+03  0.13838036504E+01  0.31117377148E+03  0.15294330000E+03 0.  0.
    8880022    1    1    2    0    0 -0.21176840891E+03  0.16908485773E+03  0.44721959309E+03  0.54482342606E+03  0.15294330000E+03 0.  0.
<mgrwt>
<rscale>  0 0.31117069E+03</rscale>
<asrwt>0</asrwt>
<pdfrwt beam="1">  1        2 0.10035389E+00 0.31117069E+03</pdfrwt>
<pdfrwt beam="2">  1       -2 0.31337985E-01 0.31117069E+03</pdfrwt>
<totfact> 0.43292220E+02</totfact>
</mgrwt>
</event>
<event>
 4    1  0.5387657E-008  0.5343834E+03  0.7818608E-02  0.1005175E+00
         -2   -1    0    0    0  501 -0.00000000000E+00  0.00000000000E+00  0.10588620577E+04  0.10588620577E+04  0.25500000000E-02 0.  1.
          2   -1    0    0  501    0  0.00000000000E+00 -0.00000000000E+00 -0.54683568389E+03  0.54683568390E+03  0.25500000000E-02 0. -1.
    8880022    1    1    2    0    0  0.22071834565E+03  0.46201452425E+03 -0.31554254407E+03  0.62059065322E+03  0.15294330000E+03 0.  0.
    8880022    1    1    2    0    0 -0.22071834565E+03 -0.46201452425E+03  0.82756891786E+03  0.98510708837E+03  0.15294330000E+03 0.  0.
<mgrwt>
<rscale>  0 0.53438344E+03</rscale>
<asrwt>0</asrwt>
<pdfrwt beam="1">  1        2 0.84128567E-01 0.53438344E+03</pdfrwt>
<pdfrwt beam="2">  1       -2 0.16290185E+00 0.53438344E+03</pdfrwt>
<totfact> 0.13834242E+01</totfact>
</mgrwt>
</event>
<event>
 4    1  0.5387657E-008  0.3131448E+03  0.7818608E-02  0.1078848E+00
          2   -1    0    0  501    0  0.00000000000E+00  0.00000000000E+00  0.11877554780E+04  0.11877554780E+04  0.25500000000E-02 0. -1.
         -2   -1    0    0    0  501 -0.00000000000E+00 -0.00000000000E+00 -0.39769288193E+03  0.39769288194E+03  0.25500000000E-02 0.  1.
    8880022    1    1    2    0    0  0.18133311531E+03 -0.20441704421E+03 -0.31062931320E+03  0.44107850765E+03  0.15294330000E+03 0.  0.
    8880022    1    1    2    0    0 -0.18133311531E+03  0.20441704421E+03  0.11006919092E+04  0.11443698523E+04  0.15294330000E+03 0.  0.
<mgrwt>
<rscale>  0 0.31314482E+03</rscale>
<asrwt>0</asrwt>
<pdfrwt beam="1">  1        2 0.18273161E+00 0.31314482E+03</pdfrwt>
<pdfrwt beam="2">  1       -2 0.61183521E-01 0.31314482E+03</pdfrwt>
<totfact> 0.51819242E+01</totfact>
</mgrwt>
</event>
<event>
 4    1  0.5387657E-008  0.6592431E+03  0.7818608E-02  0.9789588E-01
          2   -1    0    0  501    0  0.00000000000E+00  0.00000000000E+00  0.18351631312E+04  0.18351631312E+04  0.25500000000E-02 0. -1.
         -2   -1    0    0    0  501 -0.00000000000E+00 -0.00000000000E+00 -0.96765070448E+03  0.96765070448E+03  0.25500000000E-02 0.  1.
    8880022    1    1    2    0    0 -0.62940542334E+03 -0.12271372932E+03 -0.78414941595E+03  0.10244470732E+04  0.15294330000E+03 0.  0.
    8880022    1    1    2    0    0  0.62940542334E+03  0.12271372932E+03  0.16516618427E+04  0.17783667625E+04  0.15294330000E+03 0.  0.
<mgrwt>
<rscale>  0 0.65924313E+03</rscale>
<asrwt>0</asrwt>
<pdfrwt beam="1">  1        2 0.28233279E+00 0.65924313E+03</pdfrwt>
<pdfrwt beam="2">  1       -2 0.14886934E+00 0.65924313E+03</pdfrwt>
<totfact> 0.26518443E+00</totfact>
</mgrwt>
</event>
<event>
 4    1  0.5387657E-008  0.7000384E+03  0.7818608E-02  0.9717166E-01
          2   -1    0    0  501    0  0.00000000000E+00  0.00000000000E+00  0.10287537089E+04  0.10287537089E+04  0.25500000000E-02 0. -1.
         -2   -1    0    0    0  501 -0.00000000000E+00 -0.00000000000E+00 -0.68940194937E+03  0.68940194937E+03  0.25500000000E-02 0.  1.
    8880022    1    1    2    0    0 -0.35503666099E+02  0.68220351086E+03  0.64724046541E+03  0.95340128678E+03  0.15294330000E+03 0.  0.
    8880022    1    1    2    0    0  0.35503666099E+02 -0.68220351086E+03 -0.30788870586E+03  0.76475437152E+03  0.15294330000E+03 0.  0.
<mgrwt>
<rscale>  0 0.70003842E+03</rscale>
<asrwt>0</asrwt>
<pdfrwt beam="1">  1        2 0.15826980E+00 0.70003842E+03</pdfrwt>
<pdfrwt beam="2">  1       -2 0.10606184E+00 0.70003842E+03</pdfrwt>
<totfact> 0.17716923E+01</totfact>
</mgrwt>
</event>
<event>
 4    1  0.5387657E-008  0.4133402E+03  0.7818608E-02  0.1039256E+00
         -2   -1    0    0    0  501 -0.00000000000E+00  0.00000000000E+00  0.24222677837E+04  0.24222677837E+04  0.25500000000E-02 0.  1.
          2   -1    0    0  501    0  0.00000000000E+00 -0.00000000000E+00 -0.30955210333E+03  0.30955210334E+03  0.25500000000E-02 0. -1.
    8880022    1    1    2    0    0  0.38389584910E+03 -0.90791864256E+01 -0.14389124357E+03  0.43766973573E+03  0.15294330000E+03 0.  0.
    8880022    1    1    2    0    0 -0.38389584910E+03  0.90791864256E+01  0.22566069240E+04  0.22941501513E+04  0.15294330000E+03 0.  0.
<mgrwt>
<rscale>  0 0.41334018E+03</rscale>
<asrwt>0</asrwt>
<pdfrwt beam="1">  1        2 0.47623401E-01 0.41334018E+03</pdfrwt>
<pdfrwt beam="2">  1       -2 0.37265658E+00 0.41334018E+03</pdfrwt>
<totfact> 0.13502340E+00</totfact>
</mgrwt>
</event>
<event>
 4    1  0.5387657E-008  0.2222000E+03  0.7818608E-02  0.1132253E+00
          2   -1    0    0  501    0  0.00000000000E+00  0.00000000000E+00  0.14019292670E+04  0.14019292670E+04  0.25500000000E-02 0. -1.
         -2   -1    0    0    0  501 -0.00000000000E+00 -0.00000000000E+00 -0.99397136628E+02  0.99397136660E+02  0.25500000000E-02 0.  1.
    8880022    1    1    2    0    0  0.14951411503E+03  0.60222307766E+02  0.12544584321E+04  0.12739854033E+04  0.15294330000E+03 0.  0.
    8880022    1    1    2    0    0 -0.14951411503E+03 -0.60222307766E+02  0.48073698223E+02  0.22734100031E+03  0.15294330000E+03 0.  1.
<mgrwt>
<rscale>  0 0.22220002E+03</rscale>
<asrwt>0</asrwt>
<pdfrwt beam="1">  1        2 0.21568142E+00 0.22220002E+03</pdfrwt>
<pdfrwt beam="2">  1       -2 0.15291867E-01 0.22220002E+03</pdfrwt>
<totfact> 0.51676520E+02</totfact>
</mgrwt>
</event>
<event>
 4    1  0.5387657E-008  0.6320234E+03  0.7818608E-02  0.9841108E-01
          2   -1    0    0  501    0  0.00000000000E+00  0.00000000000E+00  0.14057604148E+04  0.14057604148E+04  0.25500000000E-02 0. -1.
         -2   -1    0    0    0  501 -0.00000000000E+00 -0.00000000000E+00 -0.38006325612E+03  0.38006325613E+03  0.25500000000E-02 0.  1.
    8880022    1    1    2    0    0 -0.44338618670E+03 -0.42363969741E+03  0.96139676841E+03  0.11505378321E+04  0.15294330000E+03 0.  0.
    8880022    1    1    2    0    0  0.44338618670E+03  0.42363969741E+03  0.64300390241E+02  0.63528583880E+03  0.15294330000E+03 0.  0.
<mgrwt>
<rscale>  0 0.63202338E+03</rscale>
<asrwt>0</asrwt>
<pdfrwt beam="1">  1        2 0.21627083E+00 0.63202338E+03</pdfrwt>
<pdfrwt beam="2">  1       -2 0.58471270E-01 0.63202338E+03</pdfrwt>
<totfact> 0.40653964E+01</totfact>
</mgrwt>
</event>
<event>
 4    1  0.5387657E-008  0.5650671E+03  0.7818608E-02  0.9980654E-01
         -2   -1    0    0    0  501 -0.00000000000E+00  0.00000000000E+00  0.13464860456E+04  0.13464860456E+04  0.25500000000E-02 0.  1.
          2   -1    0    0  501    0  0.00000000000E+00 -0.00000000000E+00 -0.25847057528E+03  0.25847057529E+03  0.25500000000E-02 0. -1.
    8880022    1    1    2    0    0  0.19335955445E+03  0.50844986827E+03  0.77455808660E+03  0.95877060258E+03  0.15294330000E+03 0.  0.
    8880022    1    1    2    0    0 -0.19335955445E+03 -0.50844986827E+03  0.31345738373E+03  0.64618601831E+03  0.15294330000E+03 0.  0.
<mgrwt>
<rscale>  0 0.56506711E+03</rscale>
<asrwt>0</asrwt>
<pdfrwt beam="1">  1        2 0.39764705E-01 0.56506711E+03</pdfrwt>
<pdfrwt beam="2">  1       -2 0.20715169E+00 0.56506711E+03</pdfrwt>
<totfact> 0.16066438E+01</totfact>
</mgrwt>
</event>
<event>
 4    1  0.5387657E-008  0.9921483E+03  0.7818608E-02  0.9317199E-01
          2   -1    0    0  501    0  0.00000000000E+00  0.00000000000E+00  0.12192782026E+04  0.12192782026E+04  0.25500000000E-02 0. -1.
         -2   -1    0    0    0  501 -0.00000000000E+00 -0.00000000000E+00 -0.17045249039E+04  0.17045249039E+04  0.25500000000E-02 0.  1.
    8880022    1    1    2    0    0 -0.82672167337E+03 -0.52678064879E+03 -0.13032442411E+04  0.16379266718E+04  0.15294330000E+03 0.  0.
    8880022    1    1    2    0    0  0.82672167337E+03  0.52678064879E+03  0.81799753979E+03  0.12858764347E+04  0.15294330000E+03 0.  0.
<mgrwt>
<rscale>  0 0.99214829E+03</rscale>
<asrwt>0</asrwt>
<pdfrwt beam="1">  1        2 0.18758126E+00 0.99214829E+03</pdfrwt>
<pdfrwt beam="2">  1       -2 0.26223460E+00 0.99214829E+03</pdfrwt>
<totfact> 0.99688465E-01</totfact>
</mgrwt>
</event>
<event>
 4    1  0.5387657E-008  0.2770026E+03  0.7818608E-02  0.1097337E+00
          2   -1    0    0  501    0  0.00000000000E+00  0.00000000000E+00  0.12000788285E+04  0.12000788285E+04  0.25500000000E-02 0. -1.
         -2   -1    0    0    0  501 -0.00000000000E+00 -0.00000000000E+00 -0.74893104305E+02  0.74893104348E+02  0.25500000000E-02 0.  1.
    8880022    1    1    2    0    0 -0.64843877197E+02  0.22166203650E+03  0.31877738007E+03  0.42231440645E+03  0.15294330000E+03 0.  0.
    8880022    1    1    2    0    0  0.64843877197E+02 -0.22166203650E+03  0.80640834411E+03  0.85265752638E+03  0.15294330000E+03 0.  0.
<mgrwt>
<rscale>  0 0.27700260E+03</rscale>
<asrwt>0</asrwt>
<pdfrwt beam="1">  1        2 0.18462752E+00 0.27700260E+03</pdfrwt>
<pdfrwt beam="2">  1       -2 0.11522016E-01 0.27700260E+03</pdfrwt>
<totfact> 0.10566316E+03</totfact>
</mgrwt>
</event>
<event>
 4    1  0.5387657E-008  0.5510120E+03  0.7818608E-02  0.1001260E+00
          2   -1    0    0  501    0  0.00000000000E+00  0.00000000000E+00  0.21813306827E+04  0.21813306828E+04  0.25500000000E-02 0. -1.
         -2   -1    0    0    0  501 -0.00000000000E+00 -0.00000000000E+00 -0.16929061513E+03  0.16929061515E+03  0.25500000000E-02 0.  1.
    8880022    1    1    2    0    0  0.44670211562E+03 -0.28404188842E+03  0.51040887110E+03  0.75108684131E+03  0.15294330000E+03 0.  0.
    8880022    1    1    2    0    0 -0.44670211562E+03  0.28404188842E+03  0.15016311965E+04  0.15995344566E+04  0.15294330000E+03 0. -1.
<mgrwt>
<rscale>  0 0.55101200E+03</rscale>
<asrwt>0</asrwt>
<pdfrwt beam="1">  1        2 0.33558937E+00 0.55101200E+03</pdfrwt>
<pdfrwt beam="2">  1       -2 0.26044708E-01 0.55101200E+03</pdfrwt>
<totfact> 0.74604462E+01</totfact>
</mgrwt>
</event>
<event>
 4    1  0.5387657E-008  0.6755654E+03  0.7818608E-02  0.9759956E-01
         -2   -1    0    0    0  501 -0.00000000000E+00  0.00000000000E+00  0.56408934039E+03  0.56408934040E+03  0.25500000000E-02 0.  1.
          2   -1    0    0  501    0  0.00000000000E+00 -0.00000000000E+00 -0.12596153660E+04  0.12596153660E+04  0.25500000000E-02 0. -1.
    8880022    1    1    2    0    0  0.47405463821E+03  0.45636516742E+03 -0.89311145906E+03  0.11198377996E+04  0.15294330000E+03 0. -1.
    8880022    1    1    2    0    0 -0.47405463821E+03 -0.45636516742E+03  0.19758543344E+03  0.70386690685E+03  0.15294330000E+03 0.  0.
<mgrwt>
<rscale>  0 0.67556541E+03</rscale>
<asrwt>0</asrwt>
<pdfrwt beam="1">  1        2 0.19378698E+00 0.67556541E+03</pdfrwt>
<pdfrwt beam="2">  1       -2 0.86782976E-01 0.67556541E+03</pdfrwt>
<totfact> 0.20644809E+01</totfact>
</mgrwt>
</event>
<event>
 4    1  0.5387657E-008  0.3953400E+03  0.7818608E-02  0.1045405E+00
         -2   -1    0    0    0  501 -0.00000000000E+00  0.00000000000E+00  0.85061685241E+03  0.85061685241E+03  0.25500000000E-02 0.  1.
          2   -1    0    0  501    0  0.00000000000E+00 -0.00000000000E+00 -0.12958615400E+04  0.12958615400E+04  0.25500000000E-02 0. -1.
    8880022    1    1    2    0    0  0.14216662573E+03 -0.33569439390E+03  0.77162177937E+03  0.86700282524E+03  0.15294330000E+03 0.  0.
    8880022    1    1    2    0    0 -0.14216662573E+03  0.33569439390E+03 -0.12168664670E+04  0.12794755672E+04  0.15294330000E+03 0. -1.
<mgrwt>
<rscale>  0 0.39534002E+03</rscale>
<asrwt>0</asrwt>
<pdfrwt beam="1">  1        2 0.19936331E+00 0.39534002E+03</pdfrwt>
<pdfrwt beam="2">  1       -2 0.13086413E+00 0.39534002E+03</pdfrwt>
<totfact> 0.77497623E+00</totfact>
</mgrwt>
</event>
<event>
 4    1  0.5387657E-008  0.1828128E+03  0.7818608E-02  0.1165108E+00
          2   -1    0    0  501    0  0.00000000000E+00  0.00000000000E+00  0.28344799445E+04  0.28344799445E+04  0.25500000000E-02 0. -1.
         -2   -1    0    0    0  501 -0.00000000000E+00 -0.00000000000E+00 -0.14586918117E+02  0.14586918340E+02  0.25500000000E-02 0.  1.
    8880022    1    1    2    0    0  0.89922238725E+02 -0.44077887355E+02  0.78624633429E+03  0.80721980921E+03  0.15294330000E+03 0.  1.
    8880022    1    1    2    0    0 -0.89922238725E+02  0.44077887355E+02  0.20336466921E+04  0.20418470536E+04  0.15294330000E+03 0. -1.
<mgrwt>
<rscale>  0 0.18281281E+03</rscale>
<asrwt>0</asrwt>
<pdfrwt beam="1">  1        2 0.43607371E+00 0.18281281E+03</pdfrwt>
<pdfrwt beam="2">  1       -2 0.22441419E-02 0.18281281E+03</pdfrwt>
<totfact> 0.17198709E+03</totfact>
</mgrwt>
</event>
<event>
 4    1  0.5387657E-008  0.1089245E+04  0.7818608E-02  0.9215738E-01
         -2   -1    0    0    0  501 -0.00000000000E+00  0.00000000000E+00  0.11505151820E+04  0.11505151820E+04  0.25500000000E-02 0.  1.
          2   -1    0    0  501    0  0.00000000000E+00 -0.00000000000E+00 -0.21531613147E+04  0.21531613147E+04  0.25500000000E-02 0. -1.
    8880022    1    1    2    0    0  0.32721710335E+03  0.10276150136E+04  0.69104617804E+03  0.12899612871E+04  0.15294330000E+03 0.  0.
    8880022    1    1    2    0    0 -0.32721710335E+03 -0.10276150136E+04 -0.16936923107E+04  0.20137152096E+04  0.15294330000E+03 0.  0.
<mgrwt>
<rscale>  0 0.10892453E+04</rscale>
<asrwt>0</asrwt>
<pdfrwt beam="1">  1        2 0.33125559E+00 0.10892453E+04</pdfrwt>
<pdfrwt beam="2">  1       -2 0.17700234E+00 0.10892453E+04</pdfrwt>
<totfact> 0.10302224E+00</totfact>
</mgrwt>
</event>
<event>
 4    1  0.5387657E-008  0.1271446E+04  0.7818608E-02  0.9052520E-01
          2   -1    0    0  501    0  0.00000000000E+00  0.00000000000E+00  0.21831588337E+04  0.21831588337E+04  0.25500000000E-02 0. -1.
         -2   -1    0    0    0  501 -0.00000000000E+00 -0.00000000000E+00 -0.11813720063E+04  0.11813720063E+04  0.25500000000E-02 0.  1.
    8880022    1    1    2    0    0 -0.29267865130E+03  0.12278124386E+04 -0.52681393814E+03  0.13762662372E+04  0.15294330000E+03 0.  0.
    8880022    1    1    2    0    0  0.29267865130E+03 -0.12278124386E+04  0.15286007655E+04  0.19882646028E+04  0.15294330000E+03 0.  0.
<mgrwt>
<rscale>  0 0.12714464E+04</rscale>
<asrwt>0</asrwt>
<pdfrwt beam="1">  1        2 0.33587059E+00 0.12714464E+04</pdfrwt>
<pdfrwt beam="2">  1       -2 0.18174954E+00 0.12714464E+04</pdfrwt>
<totfact> 0.89760485E-01</totfact>
</mgrwt>
</event>
<event>
 4    1  0.5387657E-008  0.1882710E+03  0.7818608E-02  0.1160030E+00
          2   -1    0    0  501    0  0.00000000000E+00  0.00000000000E+00  0.18450633964E+04  0.18450633964E+04  0.25500000000E-02 0. -1.
         -2   -1    0    0    0  501 -0.00000000000E+00 -0.00000000000E+00 -0.13326157055E+03  0.13326157057E+03  0.25500000000E-02 0.  1.
    8880022    1    1    2    0    0 -0.95460293014E+02 -0.54237015793E+02  0.17709901080E+04  0.17809693813E+04  0.15294330000E+03 0.  0.
    8880022    1    1    2    0    0  0.95460293014E+02  0.54237015793E+02 -0.59188282188E+02  0.19735558565E+03  0.15294330000E+03 0.  1.
<mgrwt>
<rscale>  0 0.18827101E+03</rscale>
<asrwt>0</asrwt>
<pdfrwt beam="1">  1        2 0.28385590E+00 0.18827101E+03</pdfrwt>
<pdfrwt beam="2">  1       -2 0.20501781E-01 0.18827101E+03</pdfrwt>
<totfact> 0.18612324E+02</totfact>
</mgrwt>
</event>
<event>
 4    1  0.5387657E-008  0.4971849E+03  0.7818608E-02  0.1014516E+00
          2   -1    0    0  501    0  0.00000000000E+00  0.00000000000E+00  0.24773693956E+04  0.24773693956E+04  0.25500000000E-02 0. -1.
         -2   -1    0    0    0  501 -0.00000000000E+00 -0.00000000000E+00 -0.25191558436E+03  0.25191558437E+03  0.25500000000E-02 0.  1.
    8880022    1    1    2    0    0 -0.23813382896E+03  0.40877068201E+03  0.21732160861E+04  0.22293633622E+04  0.15294330000E+03 0.  0.
    8880022    1    1    2    0    0  0.23813382896E+03 -0.40877068201E+03  0.52237725173E+02  0.49992161777E+03  0.15294330000E+03 0.  0.
<mgrwt>
<rscale>  0 0.49718492E+03</rscale>
<asrwt>0</asrwt>
<pdfrwt beam="1">  1        2 0.38113376E+00 0.49718492E+03</pdfrwt>
<pdfrwt beam="2">  1       -2 0.38756244E-01 0.49718492E+03</pdfrwt>
<totfact> 0.24685327E+01</totfact>
</mgrwt>
</event>
<event>
 4    1  0.5387657E-008  0.8912538E+03  0.7818608E-02  0.9436581E-01
          2   -1    0    0  501    0  0.00000000000E+00  0.00000000000E+00  0.12194268622E+04  0.12194268622E+04  0.25500000000E-02 0. -1.
         -2   -1    0    0    0  501 -0.00000000000E+00 -0.00000000000E+00 -0.15343618544E+04  0.15343618544E+04  0.25500000000E-02 0.  1.
    8880022    1    1    2    0    0 -0.31990348031E+03 -0.81768178095E+03 -0.12019663111E+04  0.14963476861E+04  0.15294330000E+03 0.  0.
    8880022    1    1    2    0    0  0.31990348031E+03  0.81768178095E+03  0.88703131892E+03  0.12574410306E+04  0.15294330000E+03 0.  0.
<mgrwt>
<rscale>  0 0.89125383E+03</rscale>
<asrwt>0</asrwt>
<pdfrwt beam="1">  1        2 0.18760413E+00 0.89125383E+03</pdfrwt>
<pdfrwt beam="2">  1       -2 0.23605567E+00 0.89125383E+03</pdfrwt>
<totfact> 0.14606535E+00</totfact>
</mgrwt>
</event>
<event>
 4    1  0.5387657E-008  0.7660272E+03  0.7818608E-02  0.9610536E-01
         -2   -1    0    0    0  501 -0.00000000000E+00  0.00000000000E+00  0.55491331802E+03  0.55491331803E+03  0.25500000000E-02 0.  1.
          2   -1    0    0  501    0  0.00000000000E+00 -0.00000000000E+00 -0.32833442325E+04  0.32833442325E+04  0.25500000000E-02 0. -1.
    8880022    1    1    2    0    0 -0.46264057369E+03 -0.59107507794E+03 -0.29443619795E+04  0.30423782091E+04  0.15294330000E+03 0.  0.
    8880022    1    1    2    0    0  0.46264057369E+03  0.59107507794E+03  0.21593106501E+03  0.79587934138E+03  0.15294330000E+03 0.  0.
<mgrwt>
<rscale>  0 0.76602722E+03</rscale>
<asrwt>0</asrwt>
<pdfrwt beam="1">  1        2 0.50512987E+00 0.76602722E+03</pdfrwt>
<pdfrwt beam="2">  1       -2 0.85371282E-01 0.76602722E+03</pdfrwt>
<totfact> 0.14655053E+00</totfact>
</mgrwt>
</event>
<event>
 4    1  0.5387657E-008  0.1751988E+03  0.7818608E-02  0.1172532E+00
         -2   -1    0    0    0  501 -0.00000000000E+00  0.00000000000E+00  0.50909995518E+03  0.50909995519E+03  0.25500000000E-02 0.  1.
          2   -1    0    0  501    0  0.00000000000E+00 -0.00000000000E+00 -0.87318601723E+02  0.87318601760E+02  0.25500000000E-02 0. -1.
    8880022    1    1    2    0    0 -0.15876119666E+02  0.83969681342E+02  0.44983885388E+02  0.18088162295E+03  0.15294330000E+03 0.  0.
    8880022    1    1    2    0    0  0.15876119666E+02 -0.83969681342E+02  0.37679746807E+03  0.41553693400E+03  0.15294330000E+03 0.  1.
<mgrwt>
<rscale>  0 0.17519878E+03</rscale>
<asrwt>0</asrwt>
<pdfrwt beam="1">  1        2 0.13433631E-01 0.17519878E+03</pdfrwt>
<pdfrwt beam="2">  1       -2 0.78323070E-01 0.17519878E+03</pdfrwt>
<totfact> 0.65893264E+02</totfact>
</mgrwt>
</event>
<event>
 4    1  0.5387657E-008  0.7066878E+03  0.7818608E-02  0.9705863E-01
          2   -1    0    0  501    0  0.00000000000E+00  0.00000000000E+00  0.18933127729E+04  0.18933127729E+04  0.25500000000E-02 0. -1.
         -2   -1    0    0    0  501 -0.00000000000E+00 -0.00000000000E+00 -0.48624936008E+03  0.48624936009E+03  0.25500000000E-02 0.  1.
    8880022    1    1    2    0    0 -0.39996558404E+03 -0.56217751097E+03  0.15083131981E+04  0.16656579417E+04  0.15294330000E+03 0.  0.
    8880022    1    1    2    0    0  0.39996558404E+03  0.56217751097E+03 -0.10124978529E+03  0.71390419125E+03  0.15294330000E+03 0.  0.
<mgrwt>
<rscale>  0 0.70668782E+03</rscale>
<asrwt>0</asrwt>
<pdfrwt beam="1">  1        2 0.29127889E+00 0.70668782E+03</pdfrwt>
<pdfrwt beam="2">  1       -2 0.74807593E-01 0.70668782E+03</pdfrwt>
<totfact> 0.12781665E+01</totfact>
</mgrwt>
</event>
<event>
 4    1  0.5387657E-008  0.2868365E+03  0.7818608E-02  0.1092012E+00
         -2   -1    0    0    0  501 -0.00000000000E+00  0.00000000000E+00  0.60447867345E+02  0.60447867398E+02  0.25500000000E-02 0.  1.
          2   -1    0    0  501    0  0.00000000000E+00 -0.00000000000E+00 -0.24143153519E+04  0.24143153519E+04  0.25500000000E-02 0. -1.
    8880022    1    1    2    0    0  0.15098378829E+03 -0.18996690894E+03 -0.35966169977E+03  0.46003447927E+03  0.15294330000E+03 0.  0.
    8880022    1    1    2    0    0 -0.15098378829E+03  0.18996690894E+03 -0.19942057848E+04  0.20147287400E+04  0.15294330000E+03 0.  0.
<mgrwt>
<rscale>  0 0.28683651E+03</rscale>
<asrwt>0</asrwt>
<pdfrwt beam="1">  1        2 0.37143306E+00 0.28683651E+03</pdfrwt>
<pdfrwt beam="2">  1       -2 0.92996737E-02 0.28683651E+03</pdfrwt>
<totfact> 0.33217883E+02</totfact>
</mgrwt>
</event>
<event>
 4    1  0.5387657E-008  0.3915021E+03  0.7818608E-02  0.1046763E+00
          2   -1    0    0  501    0  0.00000000000E+00  0.00000000000E+00  0.12877111229E+04  0.12877111229E+04  0.25500000000E-02 0. -1.
         -2   -1    0    0    0  501 -0.00000000000E+00 -0.00000000000E+00 -0.31914671604E+03  0.31914671605E+03  0.25500000000E-02 0.  1.
    8880022    1    1    2    0    0  0.35394725350E+03 -0.67849834807E+02  0.11204855199E+04  0.11869126807E+04  0.15294330000E+03 0.  0.
    8880022    1    1    2    0    0 -0.35394725350E+03  0.67849834807E+02 -0.15192111302E+03  0.41994515825E+03  0.15294330000E+03 0.  1.
<mgrwt>
<rscale>  0 0.39150212E+03</rscale>
<asrwt>0</asrwt>
<pdfrwt beam="1">  1        2 0.19810940E+00 0.39150212E+03</pdfrwt>
<pdfrwt beam="2">  1       -2 0.49099495E-01 0.39150212E+03</pdfrwt>
<totfact> 0.70244463E+01</totfact>
</mgrwt>
</event>
<event>
 4    1  0.5387657E-008  0.3901574E+03  0.7818608E-02  0.1047242E+00
         -2   -1    0    0    0  501 -0.00000000000E+00  0.00000000000E+00  0.19558341836E+03  0.19558341838E+03  0.25500000000E-02 0.  1.
          2   -1    0    0  501    0  0.00000000000E+00 -0.00000000000E+00 -0.15568373765E+04  0.15568373765E+04  0.25500000000E-02 0. -1.
    8880022    1    1    2    0    0 -0.22110287014E+03  0.28274491422E+03 -0.13002480286E+04  0.13575226534E+04  0.15294330000E+03 0. -1.
    8880022    1    1    2    0    0  0.22110287014E+03 -0.28274491422E+03 -0.61005929590E+02  0.39489814150E+03  0.15294330000E+03 0.  0.
<mgrwt>
<rscale>  0 0.39015743E+03</rscale>
<asrwt>0</asrwt>
<pdfrwt beam="1">  1        2 0.23951343E+00 0.39015743E+03</pdfrwt>
<pdfrwt beam="2">  1       -2 0.30089758E-01 0.39015743E+03</pdfrwt>
<totfact> 0.12772058E+02</totfact>
</mgrwt>
</event>
<event>
 4    1  0.5387657E-008  0.2997828E+03  0.7818608E-02  0.1085349E+00
         -2   -1    0    0    0  501 -0.00000000000E+00  0.00000000000E+00  0.10581854260E+03  0.10581854263E+03  0.25500000000E-02 0.  1.
          2   -1    0    0  501    0  0.00000000000E+00 -0.00000000000E+00 -0.86111907163E+03  0.86111907164E+03  0.25500000000E-02 0. -1.
    8880022    1    1    2    0    0 -0.20468176937E+03  0.15679115120E+03 -0.43433494465E+03  0.52774670910E+03  0.15294330000E+03 0.  0.
    8880022    1    1    2    0    0  0.20468176937E+03 -0.15679115120E+03 -0.32096558438E+03  0.43919090516E+03  0.15294330000E+03 0.  0.
<mgrwt>
<rscale>  0 0.29978283E+03</rscale>
<asrwt>0</asrwt>
<pdfrwt beam="1">  1        2 0.13247985E+00 0.29978283E+03</pdfrwt>
<pdfrwt beam="2">  1       -2 0.16279776E-01 0.29978283E+03</pdfrwt>
<totfact> 0.96320310E+02</totfact>
</mgrwt>
</event>
<event>
 4    1  0.5387657E-008  0.6893417E+03  0.7818608E-02  0.9735635E-01
          2   -1    0    0  501    0  0.00000000000E+00  0.00000000000E+00  0.25458204798E+04  0.25458204798E+04  0.25500000000E-02 0. -1.
         -2   -1    0    0    0  501 -0.00000000000E+00 -0.00000000000E+00 -0.39973285243E+03  0.39973285243E+03  0.25500000000E-02 0.  1.
    8880022    1    1    2    0    0  0.86908548884E+02 -0.66651873099E+03 -0.22332695477E+01  0.68934530907E+03  0.15294330000E+03 0.  0.
    8880022    1    1    2    0    0 -0.86908548884E+02  0.66651873099E+03  0.21483208969E+04  0.22562080231E+04  0.15294330000E+03 0. -1.
<mgrwt>
<rscale>  0 0.68934169E+03</rscale>
<asrwt>0</asrwt>
<pdfrwt beam="1">  1        2 0.39166468E+00 0.68934169E+03</pdfrwt>
<pdfrwt beam="2">  1       -2 0.61497363E-01 0.68934169E+03</pdfrwt>
<totfact> 0.85437588E+00</totfact>
</mgrwt>
</event>
<event>
 4    1  0.5387657E-008  0.3480226E+03  0.7818608E-02  0.1063430E+00
         -2   -1    0    0    0  501 -0.00000000000E+00  0.00000000000E+00  0.10372355146E+03  0.10372355149E+03  0.25500000000E-02 0.  1.
          2   -1    0    0  501    0  0.00000000000E+00 -0.00000000000E+00 -0.42482427140E+04  0.42482427140E+04  0.25500000000E-02 0. -1.
    8880022    1    1    2    0    0  0.10602370067E+03  0.29408675326E+03 -0.21931119436E+03  0.41136005704E+03  0.15294330000E+03 0.  0.
    8880022    1    1    2    0    0 -0.10602370067E+03 -0.29408675326E+03 -0.39252079681E+04  0.39406062084E+04  0.15294330000E+03 0.  0.
<mgrwt>
<rscale>  0 0.34802255E+03</rscale>
<asrwt>0</asrwt>
<pdfrwt beam="1">  1        2 0.65357567E+00 0.34802255E+03</pdfrwt>
<pdfrwt beam="2">  1       -2 0.15957473E-01 0.34802255E+03</pdfrwt>
<totfact> 0.84224533E+00</totfact>
</mgrwt>
</event>
<event>
 4    1  0.5387657E-008  0.5576628E+03  0.7818608E-02  0.9997357E-01
          2   -1    0    0  501    0  0.00000000000E+00  0.00000000000E+00  0.22901823950E+04  0.22901823950E+04  0.25500000000E-02 0. -1.
         -2   -1    0    0    0  501 -0.00000000000E+00 -0.00000000000E+00 -0.22430810109E+03  0.22430810111E+03  0.25500000000E-02 0.  1.
    8880022    1    1    2    0    0 -0.76509093614E+01 -0.53622536677E+03  0.24315134960E+03  0.60836700454E+03  0.15294330000E+03 0.  1.
    8880022    1    1    2    0    0  0.76509093614E+01  0.53622536677E+03  0.18227229443E+04  0.19061234915E+04  0.15294330000E+03 0.  0.
<mgrwt>
<rscale>  0 0.55766283E+03</rscale>
<asrwt>0</asrwt>
<pdfrwt beam="1">  1        2 0.35233575E+00 0.55766283E+03</pdfrwt>
<pdfrwt beam="2">  1       -2 0.34508939E-01 0.55766283E+03</pdfrwt>
<totfact> 0.38631582E+01</totfact>
</mgrwt>
</event>
<event>
 4    1  0.5387657E-008  0.3138138E+03  0.7818608E-02  0.1078532E+00
         -2   -1    0    0    0  501 -0.00000000000E+00  0.00000000000E+00  0.50579448659E+03  0.50579448660E+03  0.25500000000E-02 0.  1.
          2   -1    0    0  501    0  0.00000000000E+00 -0.00000000000E+00 -0.54927627096E+03  0.54927627096E+03  0.25500000000E-02 0. -1.
    8880022    1    1    2    0    0 -0.15274644766E+03  0.22749938339E+03  0.40210687555E+03  0.51006768090E+03  0.15294330000E+03 0.  0.
    8880022    1    1    2    0    0  0.15274644766E+03 -0.22749938339E+03 -0.44558865991E+03  0.54500307667E+03  0.15294330000E+03 0. -1.
<mgrwt>
<rscale>  0 0.31381380E+03</rscale>
<asrwt>0</asrwt>
<pdfrwt beam="1">  1        2 0.84504041E-01 0.31381380E+03</pdfrwt>
<pdfrwt beam="2">  1       -2 0.77814537E-01 0.31381380E+03</pdfrwt>
<totfact> 0.85175149E+01</totfact>
</mgrwt>
</event>
<event>
 4    1  0.5387657E-008  0.7230568E+03  0.7818608E-02  0.9678595E-01
         -2   -1    0    0    0  501 -0.00000000000E+00  0.00000000000E+00  0.14301138541E+03  0.14301138543E+03  0.25500000000E-02 0.  1.
          2   -1    0    0  501    0  0.00000000000E+00 -0.00000000000E+00 -0.40745641166E+04  0.40745641166E+04  0.25500000000E-02 0. -1.
    8880022    1    1    2    0    0  0.41451803603E+03  0.57235848630E+03 -0.26418796214E+04  0.27390398000E+04  0.15294330000E+03 0.  0.
    8880022    1    1    2    0    0 -0.41451803603E+03 -0.57235848630E+03 -0.12896731098E+04  0.14785357020E+04  0.15294330000E+03 0.  0.
<mgrwt>
<rscale>  0 0.72305677E+03</rscale>
<asrwt>0</asrwt>
<pdfrwt beam="1">  1        2 0.62685593E+00 0.72305677E+03</pdfrwt>
<pdfrwt beam="2">  1       -2 0.22001755E-01 0.72305677E+03</pdfrwt>
<totfact> 0.59663839E+00</totfact>
</mgrwt>
</event>
<event>
 4    1  0.5387657E-008  0.8707960E+03  0.7818608E-02  0.9462843E-01
         -2   -1    0    0    0  501 -0.00000000000E+00  0.00000000000E+00  0.12983876487E+04  0.12983876487E+04  0.25500000000E-02 0.  1.
          2   -1    0    0  501    0  0.00000000000E+00 -0.00000000000E+00 -0.11108846335E+04  0.11108846335E+04  0.25500000000E-02 0. -1.
    8880022    1    1    2    0    0  0.66253338561E+03 -0.54400694535E+03  0.92335487530E+03  0.12692005052E+04  0.15294330000E+03 0.  0.
    8880022    1    1    2    0    0 -0.66253338561E+03  0.54400694535E+03 -0.73585186013E+03  0.11400717770E+04  0.15294330000E+03 0.  0.
<mgrwt>
<rscale>  0 0.87079601E+03</rscale>
<asrwt>0</asrwt>
<pdfrwt beam="1">  1        2 0.17090533E+00 0.87079601E+03</pdfrwt>
<pdfrwt beam="2">  1       -2 0.19975195E+00 0.87079601E+03</pdfrwt>
<totfact> 0.28868592E+00</totfact>
</mgrwt>
</event>
<event>
 4    1  0.6222498E-008  0.6294322E+03  0.7818608E-02  0.9846157E-01
         -2   -1    0    0    0  501 -0.00000000000E+00  0.00000000000E+00  0.84230126889E+03  0.84230126889E+03  0.25500000000E-02 0.  1.
          2   -1    0    0  501    0  0.00000000000E+00 -0.00000000000E+00 -0.24975545904E+04  0.24975545904E+04  0.25500000000E-02 0. -1.
    8880022    1    1    2    0    0  0.22982309800E+03 -0.56566295371E+03 -0.23321119480E+04  0.24155601886E+04  0.15294330000E+03 0. -1.
    8880022    1    1    2    0    0 -0.22982309800E+03  0.56566295371E+03  0.67685862652E+03  0.92429567070E+03  0.15294330000E+03 0.  0.
<mgrwt>
<rscale>  0 0.62943219E+03</rscale>
<asrwt>0</asrwt>
<pdfrwt beam="1">  1        2 0.38423917E+00 0.62943219E+03</pdfrwt>
<pdfrwt beam="2">  1       -2 0.12958481E+00 0.62943219E+03</pdfrwt>
<totfact> 0.16510180E+00</totfact>
</mgrwt>
</event>
<event>
 4    1  0.5387657E-008  0.3473388E+03  0.7818608E-02  0.1063713E+00
          2   -1    0    0  501    0  0.00000000000E+00  0.00000000000E+00  0.12877637130E+04  0.12877637130E+04  0.25500000000E-02 0. -1.
         -2   -1    0    0    0  501 -0.00000000000E+00 -0.00000000000E+00 -0.22646845420E+03  0.22646845422E+03  0.25500000000E-02 0.  1.
    8880022    1    1    2    0    0  0.28625018006E+03  0.12374727895E+03  0.11103839553E+04  0.11634417629E+04  0.15294330000E+03 0.  0.
    8880022    1    1    2    0    0 -0.28625018006E+03 -0.12374727895E+03 -0.49088696429E+02  0.35079040432E+03  0.15294330000E+03 0.  0.
<mgrwt>
<rscale>  0 0.34733875E+03</rscale>
<asrwt>0</asrwt>
<pdfrwt beam="1">  1        2 0.19811750E+00 0.34733875E+03</pdfrwt>
<pdfrwt beam="2">  1       -2 0.34841300E-01 0.34733875E+03</pdfrwt>
<totfact> 0.13772715E+02</totfact>
</mgrwt>
</event>
<event>
 4    1  0.5387657E-008  0.5644580E+03  0.7818608E-02  0.9982018E-01
          2   -1    0    0  501    0  0.00000000000E+00  0.00000000000E+00  0.75035666841E+03  0.75035666841E+03  0.25500000000E-02 0. -1.
         -2   -1    0    0    0  501 -0.00000000000E+00 -0.00000000000E+00 -0.62451614313E+03  0.62451614313E+03  0.25500000000E-02 0.  1.
    8880022    1    1    2    0    0  0.29077707130E+02 -0.54256398451E+03 -0.32600676113E+03  0.65183836313E+03  0.15294330000E+03 0.  0.
    8880022    1    1    2    0    0 -0.29077707130E+02  0.54256398451E+03  0.45184728641E+03  0.72303444841E+03  0.15294330000E+03 0.  0.
<mgrwt>
<rscale>  0 0.56445801E+03</rscale>
<asrwt>0</asrwt>
<pdfrwt beam="1">  1        2 0.11543949E+00 0.56445801E+03</pdfrwt>
<pdfrwt beam="2">  1       -2 0.96079406E-01 0.56445801E+03</pdfrwt>
<totfact> 0.35105365E+01</totfact>
</mgrwt>
</event>
<event>
 4    1  0.5387657E-008  0.5710687E+03  0.7818608E-02  0.9967316E-01
         -2   -1    0    0    0  501 -0.00000000000E+00  0.00000000000E+00  0.31387533662E+03  0.31387533663E+03  0.25500000000E-02 0.  1.
          2   -1    0    0  501    0  0.00000000000E+00 -0.00000000000E+00 -0.17680022477E+04  0.17680022477E+04  0.25500000000E-02 0. -1.
    8880022    1    1    2    0    0 -0.23275631491E+03  0.49855025932E+03 -0.58649768395E+02  0.57407256645E+03  0.15294330000E+03 0.  0.
    8880022    1    1    2    0    0  0.23275631491E+03 -0.49855025932E+03 -0.13954771427E+04  0.15078050179E+04  0.15294330000E+03 0.  0.
<mgrwt>
<rscale>  0 0.57106875E+03</rscale>
<asrwt>0</asrwt>
<pdfrwt beam="1">  1        2 0.27200034E+00 0.57106875E+03</pdfrwt>
<pdfrwt beam="2">  1       -2 0.48288514E-01 0.57106875E+03</pdfrwt>
<totfact> 0.38436629E+01</totfact>
</mgrwt>
</event>
<event>
 4    1  0.5387657E-008  0.2857608E+03  0.7818608E-02  0.1092583E+00
         -2   -1    0    0    0  501 -0.00000000000E+00  0.00000000000E+00  0.54827746308E+03  0.54827746309E+03  0.25500000000E-02 0.  1.
          2   -1    0    0  501    0  0.00000000000E+00 -0.00000000000E+00 -0.15104759490E+04  0.15104759490E+04  0.25500000000E-02 0. -1.
    8880022    1    1    2    0    0  0.11134683402E+03  0.21417152210E+03  0.49621076099E+03  0.57261184992E+03  0.15294330000E+03 0.  1.
    8880022    1    1    2    0    0 -0.11134683402E+03 -0.21417152210E+03 -0.14584092469E+04  0.14861415622E+04  0.15294330000E+03 0.  0.
<mgrwt>
<rscale>  0 0.28576076E+03</rscale>
<asrwt>0</asrwt>
<pdfrwt beam="1">  1        2 0.23238091E+00 0.28576076E+03</pdfrwt>
<pdfrwt beam="2">  1       -2 0.84350379E-01 0.28576076E+03</pdfrwt>
<totfact> 0.17271032E+01</totfact>
</mgrwt>
</event>
<event>
 4    1  0.5387657E-008  0.9581351E+03  0.7818608E-02  0.9355692E-01
         -2   -1    0    0    0  501 -0.00000000000E+00  0.00000000000E+00  0.47753536051E+03  0.47753536051E+03  0.25500000000E-02 0.  1.
          2   -1    0    0  501    0  0.00000000000E+00 -0.00000000000E+00 -0.19760022287E+04  0.19760022287E+04  0.25500000000E-02 0. -1.
    8880022    1    1    2    0    0  0.30688061401E+03 -0.89468182536E+03 -0.54721805150E+03  0.11033904698E+04  0.15294330000E+03 0.  0.
    8880022    1    1    2    0    0 -0.30688061401E+03  0.89468182536E+03 -0.95124881671E+03  0.13501471195E+04  0.15294330000E+03 0.  0.
<mgrwt>
<rscale>  0 0.95813513E+03</rscale>
<asrwt>0</asrwt>
<pdfrwt beam="1">  1        2 0.30400034E+00 0.95813513E+03</pdfrwt>
<pdfrwt beam="2">  1       -2 0.73466980E-01 0.95813513E+03</pdfrwt>
<totfact> 0.11598206E+01</totfact>
</mgrwt>
</event>
<event>
 4    1  0.5387657E-008  0.3481940E+03  0.7818608E-02  0.1063359E+00
         -2   -1    0    0    0  501 -0.00000000000E+00  0.00000000000E+00  0.80538185728E+03  0.80538185728E+03  0.25500000000E-02 0.  1.
          2   -1    0    0  501    0  0.00000000000E+00 -0.00000000000E+00 -0.11075647712E+04  0.11075647712E+04  0.25500000000E-02 0. -1.
    8880022    1    1    2    0    0 -0.25022899680E+03 -0.18770422462E+03 -0.10401917537E+04  0.10969220411E+04  0.15294330000E+03 0.  0.
    8880022    1    1    2    0    0  0.25022899680E+03  0.18770422462E+03  0.73800883972E+03  0.81602458744E+03  0.15294330000E+03 0.  0.
<mgrwt>
<rscale>  0 0.34819403E+03</rscale>
<asrwt>0</asrwt>
<pdfrwt beam="1">  1        2 0.17039458E+00 0.34819403E+03</pdfrwt>
<pdfrwt beam="2">  1       -2 0.12390490E+00 0.34819403E+03</pdfrwt>
<totfact> 0.11547275E+01</totfact>
</mgrwt>
</event>
<event>
 4    1  0.5387657E-008  0.6090728E+03  0.7818608E-02  0.9886760E-01
          2   -1    0    0  501    0  0.00000000000E+00  0.00000000000E+00  0.17120626726E+04  0.17120626726E+04  0.25500000000E-02 0. -1.
         -2   -1    0    0    0  501 -0.00000000000E+00 -0.00000000000E+00 -0.23683986084E+03  0.23683986086E+03  0.25500000000E-02 0.  1.
    8880022    1    1    2    0    0 -0.89070140501E+02 -0.58279028563E+03  0.10219114937E+04  0.11896523698E+04  0.15294330000E+03 0.  0.
    8880022    1    1    2    0    0  0.89070140501E+02  0.58279028563E+03  0.45331131805E+03  0.75925016367E+03  0.15294330000E+03 0.  0.
<mgrwt>
<rscale>  0 0.60907279E+03</rscale>
<asrwt>0</asrwt>
<pdfrwt beam="1">  1        2 0.26339426E+00 0.60907279E+03</pdfrwt>
<pdfrwt beam="2">  1       -2 0.36436901E-01 0.60907279E+03</pdfrwt>
<totfact> 0.71206441E+01</totfact>
</mgrwt>
</event>
<event>
 4    1  0.5387657E-008  0.2033470E+03  0.7818608E-02  0.1146945E+00
         -2   -1    0    0    0  501 -0.00000000000E+00  0.00000000000E+00  0.80507350475E+02  0.80507350515E+02  0.25500000000E-02 0.  1.
          2   -1    0    0  501    0  0.00000000000E+00 -0.00000000000E+00 -0.24480676506E+04  0.24480676506E+04  0.25500000000E-02 0. -1.
    8880022    1    1    2    0    0  0.33349005015E+02 -0.12979285509E+03 -0.59918391572E+02  0.21199105649E+03  0.15294330000E+03 0.  0.
    8880022    1    1    2    0    0 -0.33349005015E+02  0.12979285509E+03 -0.23076419086E+04  0.23165839446E+04  0.15294330000E+03 0. -1.
<mgrwt>
<rscale>  0 0.20334698E+03</rscale>
<asrwt>0</asrwt>
<pdfrwt beam="1">  1        2 0.37662574E+00 0.20334698E+03</pdfrwt>
<pdfrwt beam="2">  1       -2 0.12385748E-01 0.20334698E+03</pdfrwt>
<totfact> 0.20613533E+02</totfact>
</mgrwt>
</event>
<event>
 4    1  0.5387657E-008  0.7644588E+03  0.7818608E-02  0.9612936E-01
          2   -1    0    0  501    0  0.00000000000E+00  0.00000000000E+00  0.11982943965E+04  0.11982943965E+04  0.25500000000E-02 0. -1.
         -2   -1    0    0    0  501 -0.00000000000E+00 -0.00000000000E+00 -0.14984293048E+04  0.14984293048E+04  0.25500000000E-02 0.  1.
    8880022    1    1    2    0    0 -0.29411609108E+02 -0.74842535669E+03 -0.12574756225E+04  0.14716120927E+04  0.15294330000E+03 0.  0.
    8880022    1    1    2    0    0  0.29411609108E+02  0.74842535669E+03  0.95734071424E+03  0.12251116086E+04  0.15294330000E+03 0.  0.
<mgrwt>
<rscale>  0 0.76445877E+03</rscale>
<asrwt>0</asrwt>
<pdfrwt beam="1">  1        2 0.18435298E+00 0.76445877E+03</pdfrwt>
<pdfrwt beam="2">  1       -2 0.23052758E+00 0.76445877E+03</pdfrwt>
<totfact> 0.16593804E+00</totfact>
</mgrwt>
</event>
<event>
 4    1  0.5387657E-008  0.7302983E+03  0.7818608E-02  0.9666777E-01
          2   -1    0    0  501    0  0.00000000000E+00  0.00000000000E+00  0.14518415861E+04  0.14518415861E+04  0.25500000000E-02 0. -1.
         -2   -1    0    0    0  501 -0.00000000000E+00 -0.00000000000E+00 -0.52948629143E+03  0.52948629144E+03  0.25500000000E-02 0.  1.
    8880022    1    1    2    0    0  0.56447553273E+03 -0.43739142851E+03  0.10093759614E+04  0.12458633044E+04  0.15294330000E+03 0.  0.
    8880022    1    1    2    0    0 -0.56447553273E+03  0.43739142851E+03 -0.87020666814E+02  0.73546457307E+03  0.15294330000E+03 0.  0.
<mgrwt>
<rscale>  0 0.73029826E+03</rscale>
<asrwt>0</asrwt>
<pdfrwt beam="1">  1        2 0.22336025E+00 0.73029826E+03</pdfrwt>
<pdfrwt beam="2">  1       -2 0.81459429E-01 0.73029826E+03</pdfrwt>
<totfact> 0.18399602E+01</totfact>
</mgrwt>
</event>
<event>
 4    1  0.5387657E-008  0.3999498E+03  0.7818608E-02  0.1043797E+00
         -2   -1    0    0    0  501 -0.00000000000E+00  0.00000000000E+00  0.37689811017E+03  0.37689811018E+03  0.25500000000E-02 0.  1.
          2   -1    0    0  501    0  0.00000000000E+00 -0.00000000000E+00 -0.11858962386E+04  0.11858962386E+04  0.25500000000E-02 0. -1.
    8880022    1    1    2    0    0 -0.28203967580E+03 -0.23879241397E+03  0.22165200355E+03  0.45726300899E+03  0.15294330000E+03 0.  0.
    8880022    1    1    2    0    0  0.28203967580E+03  0.23879241397E+03 -0.10306501320E+04  0.11055313398E+04  0.15294330000E+03 0.  0.
<mgrwt>
<rscale>  0 0.39994981E+03</rscale>
<asrwt>0</asrwt>
<pdfrwt beam="1">  1        2 0.18244557E+00 0.39994981E+03</pdfrwt>
<pdfrwt beam="2">  1       -2 0.57984325E-01 0.39994981E+03</pdfrwt>
<totfact> 0.57116071E+01</totfact>
</mgrwt>
</event>
<event>
 4    1  0.5387657E-008  0.7870421E+03  0.7818608E-02  0.9578965E-01
         -2   -1    0    0    0  501 -0.00000000000E+00  0.00000000000E+00  0.11831186927E+04  0.11831186927E+04  0.25500000000E-02 0.  1.
          2   -1    0    0  501    0  0.00000000000E+00 -0.00000000000E+00 -0.96252846838E+03  0.96252846839E+03  0.25500000000E-02 0. -1.
    8880022    1    1    2    0    0 -0.57277084873E+03  0.51766512243E+03 -0.61420338683E+03  0.99833915958E+03  0.15294330000E+03 0.  0.
    8880022    1    1    2    0    0  0.57277084873E+03 -0.51766512243E+03  0.83479361118E+03  0.11473080016E+04  0.15294330000E+03 0.  0.
<mgrwt>
<rscale>  0 0.78704211E+03</rscale>
<asrwt>0</asrwt>
<pdfrwt beam="1">  1        2 0.14808130E+00 0.78704211E+03</pdfrwt>
<pdfrwt beam="2">  1       -2 0.18201826E+00 0.78704211E+03</pdfrwt>
<totfact> 0.47536170E+00</totfact>
</mgrwt>
</event>
<event>
 4    1  0.5387657E-008  0.3809167E+03  0.7818608E-02  0.1050595E+00
          2   -1    0    0  501    0  0.00000000000E+00  0.00000000000E+00  0.44432437672E+03  0.44432437673E+03  0.25500000000E-02 0. -1.
         -2   -1    0    0    0  501 -0.00000000000E+00 -0.00000000000E+00 -0.71399499123E+03  0.71399499124E+03  0.25500000000E-02 0.  1.
    8880022    1    1    2    0    0  0.19534920793E+03  0.28904074451E+03  0.29179478559E+03  0.47983509140E+03  0.15294330000E+03 0.  0.
    8880022    1    1    2    0    0 -0.19534920793E+03 -0.28904074451E+03 -0.56146540010E+03  0.67848427657E+03  0.15294330000E+03 0.  1.
<mgrwt>
<rscale>  0 0.38091668E+03</rscale>
<asrwt>0</asrwt>
<pdfrwt beam="1">  1        2 0.68357596E-01 0.38091668E+03</pdfrwt>
<pdfrwt beam="2">  1       -2 0.10984538E+00 0.38091668E+03</pdfrwt>
<totfact> 0.48626176E+01</totfact>
</mgrwt>
</event>
<event>
 4    1  0.5387657E-008  0.1091976E+04  0.7818608E-02  0.9213048E-01
         -2   -1    0    0    0  501 -0.00000000000E+00  0.00000000000E+00  0.12022260627E+04  0.12022260627E+04  0.25500000000E-02 0.  1.
          2   -1    0    0  501    0  0.00000000000E+00 -0.00000000000E+00 -0.10439897330E+04  0.10439897330E+04  0.25500000000E-02 0. -1.
    8880022    1    1    2    0    0  0.18175695775E+03  0.10658256052E+04  0.33014188668E+03  0.11407914492E+04  0.15294330000E+03 0.  0.
    8880022    1    1    2    0    0 -0.18175695775E+03 -0.10658256052E+04 -0.17190555694E+03  0.11054243465E+04  0.15294330000E+03 0.  0.
<mgrwt>
<rscale>  0 0.10919759E+04</rscale>
<asrwt>0</asrwt>
<pdfrwt beam="1">  1        2 0.16061381E+00 0.10919759E+04</pdfrwt>
<pdfrwt beam="2">  1       -2 0.18495785E+00 0.10919759E+04</pdfrwt>
<totfact> 0.38886375E+00</totfact>
</mgrwt>
</event>
<event>
 4    1  0.5387657E-008  0.2217969E+03  0.7818608E-02  0.1132550E+00
          2   -1    0    0  501    0  0.00000000000E+00  0.00000000000E+00  0.81417293039E+03  0.81417293040E+03  0.25500000000E-02 0. -1.
         -2   -1    0    0    0  501 -0.00000000000E+00 -0.00000000000E+00 -0.14423659409E+03  0.14423659411E+03  0.25500000000E-02 0.  1.
    8880022    1    1    2    0    0  0.59938465350E+02 -0.14902881626E+03  0.70026299740E+03  0.73454892706E+03  0.15294330000E+03 0.  0.
    8880022    1    1    2    0    0 -0.59938465350E+02  0.14902881626E+03 -0.30326661095E+02  0.22386059745E+03  0.15294330000E+03 0.  0.
<mgrwt>
<rscale>  0 0.22179689E+03</rscale>
<asrwt>0</asrwt>
<pdfrwt beam="1">  1        2 0.12525737E+00 0.22179689E+03</pdfrwt>
<pdfrwt beam="2">  1       -2 0.22190245E-01 0.22179689E+03</pdfrwt>
<totfact> 0.61287579E+02</totfact>
</mgrwt>
</event>
<event>
 4    1  0.5387657E-008  0.5284051E+03  0.7818608E-02  0.1006620E+00
          2   -1    0    0  501    0  0.00000000000E+00  0.00000000000E+00  0.15098544906E+04  0.15098544907E+04  0.25500000000E-02 0. -1.
         -2   -1    0    0    0  501 -0.00000000000E+00 -0.00000000000E+00 -0.25483161886E+03  0.25483161887E+03  0.25500000000E-02 0.  1.
    8880022    1    1    2    0    0 -0.43131618849E+03  0.26417154415E+03  0.16537979566E+03  0.55368076454E+03  0.15294330000E+03 0.  0.
    8880022    1    1    2    0    0  0.43131618849E+03 -0.26417154415E+03  0.10896430761E+04  0.12110053450E+04  0.15294330000E+03 0.  0.
<mgrwt>
<rscale>  0 0.52840506E+03</rscale>
<asrwt>0</asrwt>
<pdfrwt beam="1">  1        2 0.23228531E+00 0.52840506E+03</pdfrwt>
<pdfrwt beam="2">  1       -2 0.39204865E-01 0.52840506E+03</pdfrwt>
<totfact> 0.80611412E+01</totfact>
</mgrwt>
</event>
<event>
 4    1  0.5387657E-008  0.3209954E+03  0.7818608E-02  0.1075192E+00
         -2   -1    0    0    0  501 -0.00000000000E+00  0.00000000000E+00  0.16460727735E+03  0.16460727737E+03  0.25500000000E-02 0.  1.
          2   -1    0    0  501    0  0.00000000000E+00 -0.00000000000E+00 -0.12672323940E+04  0.12672323940E+04  0.25500000000E-02 0. -1.
    8880022    1    1    2    0    0  0.13576186800E+03 -0.24741688927E+03 -0.42032653919E+02  0.32373569298E+03  0.15294330000E+03 0.  0.
    8880022    1    1    2    0    0 -0.13576186800E+03  0.24741688927E+03 -0.10605924627E+04  0.11081039784E+04  0.15294330000E+03 0.  0.
<mgrwt>
<rscale>  0 0.32099541E+03</rscale>
<asrwt>0</asrwt>
<pdfrwt beam="1">  1        2 0.19495882E+00 0.32099541E+03</pdfrwt>
<pdfrwt beam="2">  1       -2 0.25324197E-01 0.32099541E+03</pdfrwt>
<totfact> 0.25447039E+02</totfact>
</mgrwt>
</event>
<event>
 4    1  0.5387657E-008  0.7480550E+03  0.7818608E-02  0.9638407E-01
         -2   -1    0    0    0  501 -0.00000000000E+00  0.00000000000E+00  0.12626957509E+04  0.12626957509E+04  0.25500000000E-02 0.  1.
          2   -1    0    0  501    0  0.00000000000E+00 -0.00000000000E+00 -0.82001717675E+03  0.82001717675E+03  0.25500000000E-02 0. -1.
    8880022    1    1    2    0    0  0.13333123334E+03 -0.72001213910E+03 -0.48460711220E+03  0.89130825444E+03  0.15294330000E+03 0.  0.
    8880022    1    1    2    0    0 -0.13333123334E+03  0.72001213910E+03  0.92728568635E+03  0.11914046732E+04  0.15294330000E+03 0.  0.
<mgrwt>
<rscale>  0 0.74805505E+03</rscale>
<asrwt>0</asrwt>
<pdfrwt beam="1">  1        2 0.12615649E+00 0.74805505E+03</pdfrwt>
<pdfrwt beam="2">  1       -2 0.19426088E+00 0.74805505E+03</pdfrwt>
<totfact> 0.49410445E+00</totfact>
</mgrwt>
</event>
<event>
 4    1  0.5387657E-008  0.7703421E+03  0.7818608E-02  0.9603966E-01
         -2   -1    0    0    0  501 -0.00000000000E+00  0.00000000000E+00  0.37862522657E+03  0.37862522658E+03  0.25500000000E-02 0.  1.
          2   -1    0    0  501    0  0.00000000000E+00 -0.00000000000E+00 -0.19424488188E+04  0.19424488188E+04  0.25500000000E-02 0. -1.
    8880022    1    1    2    0    0 -0.71909938134E+03  0.23006819910E+03 -0.12919166757E+04  0.15041528002E+04  0.15294330000E+03 0.  0.
    8880022    1    1    2    0    0  0.71909938134E+03 -0.23006819910E+03 -0.27190691651E+03  0.81692124513E+03  0.15294330000E+03 0.  0.
<mgrwt>
<rscale>  0 0.77034210E+03</rscale>
<asrwt>0</asrwt>
<pdfrwt beam="1">  1        2 0.29883828E+00 0.77034210E+03</pdfrwt>
<pdfrwt beam="2">  1       -2 0.58250036E-01 0.77034210E+03</pdfrwt>
<totfact> 0.20421169E+01</totfact>
</mgrwt>
</event>
<event>
 4    1  0.5387657E-008  0.6597575E+03  0.7818608E-02  0.9788640E-01
          2   -1    0    0  501    0  0.00000000000E+00  0.00000000000E+00  0.20744669479E+04  0.20744669479E+04  0.25500000000E-02 0. -1.
         -2   -1    0    0    0  501 -0.00000000000E+00 -0.00000000000E+00 -0.66541652857E+03  0.66541652858E+03  0.25500000000E-02 0.  1.
    8880022    1    1    2    0    0  0.56049245391E+03  0.31262842153E+03  0.18380786229E+04  0.19528986143E+04  0.15294330000E+03 0. -1.
    8880022    1    1    2    0    0 -0.56049245391E+03 -0.31262842153E+03 -0.42902820356E+03  0.78698486217E+03  0.15294330000E+03 0.  0.
<mgrwt>
<rscale>  0 0.65975751E+03</rscale>
<asrwt>0</asrwt>
<pdfrwt beam="1">  1        2 0.31914876E+00 0.65975751E+03</pdfrwt>
<pdfrwt beam="2">  1       -2 0.10237177E+00 0.65975751E+03</pdfrwt>
<totfact> 0.50036253E+00</totfact>
</mgrwt>
</event>
<event>
 4    1  0.5387657E-008  0.4743244E+03  0.7818608E-02  0.1020707E+00
         -2   -1    0    0    0  501 -0.00000000000E+00  0.00000000000E+00  0.23550789190E+03  0.23550789191E+03  0.25500000000E-02 0.  1.
          2   -1    0    0  501    0  0.00000000000E+00 -0.00000000000E+00 -0.14167505555E+04  0.14167505555E+04  0.25500000000E-02 0. -1.
    8880022    1    1    2    0    0 -0.29086297917E+03 -0.34203901072E+03 -0.10620956473E+04  0.11631985104E+04  0.15294330000E+03 0.  0.
    8880022    1    1    2    0    0  0.29086297917E+03  0.34203901072E+03 -0.11914701629E+03  0.48905993703E+03  0.15294330000E+03 0.  0.
<mgrwt>
<rscale>  0 0.47432437E+03</rscale>
<asrwt>0</asrwt>
<pdfrwt beam="1">  1        2 0.21796162E+00 0.47432437E+03</pdfrwt>
<pdfrwt beam="2">  1       -2 0.36231984E-01 0.47432437E+03</pdfrwt>
<totfact> 0.10632495E+02</totfact>
</mgrwt>
</event>
<event>
 4    1  0.5387657E-008  0.2269472E+03  0.7818608E-02  0.1128807E+00
          2   -1    0    0  501    0  0.00000000000E+00  0.00000000000E+00  0.25835477561E+03  0.25835477563E+03  0.25500000000E-02 0. -1.
         -2   -1    0    0    0  501 -0.00000000000E+00 -0.00000000000E+00 -0.30021584278E+03  0.30021584279E+03  0.25500000000E-02 0.  1.
    8880022    1    1    2    0    0 -0.12455472798E+03 -0.11224757868E+03 -0.18280802003E+03  0.29141692536E+03  0.15294330000E+03 0.  1.
    8880022    1    1    2    0    0  0.12455472798E+03  0.11224757868E+03  0.14094695286E+03  0.26715369306E+03  0.15294330000E+03 0.  0.
<mgrwt>
<rscale>  0 0.22694725E+03</rscale>
<asrwt>0</asrwt>
<pdfrwt beam="1">  1        2 0.39746889E-01 0.22694725E+03</pdfrwt>
<pdfrwt beam="2">  1       -2 0.46187053E-01 0.22694725E+03</pdfrwt>
<totfact> 0.58051529E+02</totfact>
</mgrwt>
</event>
<event>
 4    1  0.5387657E-008  0.3758608E+03  0.7818608E-02  0.1052474E+00
          2   -1    0    0  501    0  0.00000000000E+00  0.00000000000E+00  0.12795131318E+04  0.12795131318E+04  0.25500000000E-02 0. -1.
         -2   -1    0    0    0  501 -0.00000000000E+00 -0.00000000000E+00 -0.12773260582E+03  0.12773260585E+03  0.25500000000E-02 0.  1.
    8880022    1    1    2    0    0  0.11081071860E+03 -0.32496261391E+03  0.31677529668E+03  0.49154649567E+03  0.15294330000E+03 0.  1.
    8880022    1    1    2    0    0 -0.11081071860E+03  0.32496261391E+03  0.83500522926E+03  0.91569924195E+03  0.15294330000E+03 0. -1.
<mgrwt>
<rscale>  0 0.37586084E+03</rscale>
<asrwt>0</asrwt>
<pdfrwt beam="1">  1        2 0.19684819E+00 0.37586084E+03</pdfrwt>
<pdfrwt beam="2">  1       -2 0.19651169E-01 0.37586084E+03</pdfrwt>
<totfact> 0.38799264E+02</totfact>
</mgrwt>
</event>
<event>
 4    1  0.5387657E-008  0.3990092E+03  0.7818608E-02  0.1044123E+00
          2   -1    0    0  501    0  0.00000000000E+00  0.00000000000E+00  0.50262498069E+03  0.50262498070E+03  0.25500000000E-02 0. -1.
         -2   -1    0    0    0  501 -0.00000000000E+00 -0.00000000000E+00 -0.62280452105E+03  0.62280452105E+03  0.25500000000E-02 0.  1.
    8880022    1    1    2    0    0  0.35615369193E+03 -0.94716406429E+02  0.33437590935E+03  0.52059154016E+03  0.15294330000E+03 0.  0.
    8880022    1    1    2    0    0 -0.35615369193E+03  0.94716406429E+02 -0.45455544970E+03  0.60483796159E+03  0.15294330000E+03 0.  0.
<mgrwt>
<rscale>  0 0.39900915E+03</rscale>
<asrwt>0</asrwt>
<pdfrwt beam="1">  1        2 0.77326920E-01 0.39900915E+03</pdfrwt>
<pdfrwt beam="2">  1       -2 0.95816081E-01 0.39900915E+03</pdfrwt>
<totfact> 0.58284943E+01</totfact>
</mgrwt>
</event>
<event>
 4    1  0.5387657E-008  0.1020823E+04  0.7818608E-02  0.9285997E-01
          2   -1    0    0  501    0  0.00000000000E+00  0.00000000000E+00  0.18308808801E+04  0.18308808801E+04  0.25500000000E-02 0. -1.
         -2   -1    0    0    0  501 -0.00000000000E+00 -0.00000000000E+00 -0.12453895448E+04  0.12453895448E+04  0.25500000000E-02 0.  1.
    8880022    1    1    2    0    0 -0.70482408132E+03  0.72243423442E+03  0.14261535377E+04  0.17538511268E+04  0.15294330000E+03 0.  0.
    8880022    1    1    2    0    0  0.70482408132E+03 -0.72243423442E+03 -0.84066220237E+03  0.13224192982E+04  0.15294330000E+03 0.  0.
<mgrwt>
<rscale>  0 0.10208231E+04</rscale>
<asrwt>0</asrwt>
<pdfrwt beam="1">  1        2 0.28167398E+00 0.10208231E+04</pdfrwt>
<pdfrwt beam="2">  1       -2 0.19159839E+00 0.10208231E+04</pdfrwt>
<totfact> 0.12458238E+00</totfact>
</mgrwt>
</event>
<event>
 4    1  0.5387657E-008  0.4077611E+03  0.7818608E-02  0.1041125E+00
         -2   -1    0    0    0  501 -0.00000000000E+00  0.00000000000E+00  0.41544057318E+03  0.41544057319E+03  0.25500000000E-02 0.  1.
          2   -1    0    0  501    0  0.00000000000E+00 -0.00000000000E+00 -0.79784287028E+03  0.79784287029E+03  0.25500000000E-02 0. -1.
    8880022    1    1    2    0    0  0.35939993795E+03  0.11708594036E+03 -0.61946098873E+03  0.74162052452E+03  0.15294330000E+03 0.  0.
    8880022    1    1    2    0    0 -0.35939993795E+03 -0.11708594036E+03  0.23705869162E+03  0.47166291895E+03  0.15294330000E+03 0.  1.
<mgrwt>
<rscale>  0 0.40776106E+03</rscale>
<asrwt>0</asrwt>
<pdfrwt beam="1">  1        2 0.12274506E+00 0.40776106E+03</pdfrwt>
<pdfrwt beam="2">  1       -2 0.63913934E-01 0.40776106E+03</pdfrwt>
<totfact> 0.81821616E+01</totfact>
</mgrwt>
</event>
<event>
 4    1  0.5387657E-008  0.5464488E+03  0.7818608E-02  0.1002319E+00
          2   -1    0    0  501    0  0.00000000000E+00  0.00000000000E+00  0.16488318042E+04  0.16488318042E+04  0.25500000000E-02 0. -1.
         -2   -1    0    0    0  501 -0.00000000000E+00 -0.00000000000E+00 -0.20021191202E+04  0.20021191202E+04  0.25500000000E-02 0.  1.
    8880022    1    1    2    0    0  0.50124483295E+03  0.15481669737E+03  0.15643135361E+04  0.16570102850E+04  0.15294330000E+03 0.  0.
    8880022    1    1    2    0    0 -0.50124483295E+03 -0.15481669737E+03 -0.19176008521E+04  0.19939406394E+04  0.15294330000E+03 0.  0.
<mgrwt>
<rscale>  0 0.54644876E+03</rscale>
<asrwt>0</asrwt>
<pdfrwt beam="1">  1        2 0.25366643E+00 0.54644876E+03</pdfrwt>
<pdfrwt beam="2">  1       -2 0.30801833E+00 0.54644876E+03</pdfrwt>
<totfact> 0.33353674E-01</totfact>
</mgrwt>
</event>
<event>
 4    1  0.5387657E-008  0.3710667E+03  0.7818608E-02  0.1054286E+00
          2   -1    0    0  501    0  0.00000000000E+00  0.00000000000E+00  0.17731938690E+04  0.17731938690E+04  0.25500000000E-02 0. -1.
         -2   -1    0    0    0  501 -0.00000000000E+00 -0.00000000000E+00 -0.43086317527E+03  0.43086317528E+03  0.25500000000E-02 0.  1.
    8880022    1    1    2    0    0  0.31297506383E+03  0.12784946920E+03 -0.32662865957E+03  0.49434483068E+03  0.15294330000E+03 0.  0.
    8880022    1    1    2    0    0 -0.31297506383E+03 -0.12784946920E+03  0.16689593533E+04  0.17097122136E+04  0.15294330000E+03 0.  0.
<mgrwt>
<rscale>  0 0.37106675E+03</rscale>
<asrwt>0</asrwt>
<pdfrwt beam="1">  1        2 0.27279906E+00 0.37106675E+03</pdfrwt>
<pdfrwt beam="2">  1       -2 0.66286642E-01 0.37106675E+03</pdfrwt>
<totfact> 0.20642685E+01</totfact>
</mgrwt>
</event>
<event>
 4    1  0.5387657E-008  0.2327729E+03  0.7818608E-02  0.1124703E+00
          2   -1    0    0  501    0  0.00000000000E+00  0.00000000000E+00  0.68364658163E+03  0.68364658163E+03  0.25500000000E-02 0. -1.
         -2   -1    0    0    0  501 -0.00000000000E+00 -0.00000000000E+00 -0.30767138903E+03  0.30767138904E+03  0.25500000000E-02 0.  1.
    8880022    1    1    2    0    0  0.15944927766E+03 -0.73263259025E+02  0.61506040114E+03  0.65763403754E+03  0.15294330000E+03 0.  0.
    8880022    1    1    2    0    0 -0.15944927766E+03  0.73263259025E+02 -0.23908520854E+03  0.33368393313E+03  0.15294330000E+03 0.  1.
<mgrwt>
<rscale>  0 0.23277292E+03</rscale>
<asrwt>0</asrwt>
<pdfrwt beam="1">  1        2 0.10517640E+00 0.23277292E+03</pdfrwt>
<pdfrwt beam="2">  1       -2 0.47334059E-01 0.23277292E+03</pdfrwt>
<totfact> 0.18782745E+02</totfact>
</mgrwt>
</event>
<event>
 4    1  0.5387657E-008  0.4136063E+03  0.7818608E-02  0.1039168E+00
          2   -1    0    0  501    0  0.00000000000E+00  0.00000000000E+00  0.24562838861E+04  0.24562838861E+04  0.25500000000E-02 0. -1.
         -2   -1    0    0    0  501 -0.00000000000E+00 -0.00000000000E+00 -0.19941058308E+03  0.19941058310E+03  0.25500000000E-02 0.  1.
    8880022    1    1    2    0    0 -0.28267781638E+03  0.26033018974E+03  0.21995913431E+04  0.22381403631E+04  0.15294330000E+03 0. -1.
    8880022    1    1    2    0    0  0.28267781638E+03 -0.26033018974E+03  0.57281959982E+02  0.41755410610E+03  0.15294330000E+03 0.  0.
<mgrwt>
<rscale>  0 0.41360634E+03</rscale>
<asrwt>0</asrwt>
<pdfrwt beam="1">  1        2 0.37788986E+00 0.41360634E+03</pdfrwt>
<pdfrwt beam="2">  1       -2 0.30678548E-01 0.41360634E+03</pdfrwt>
<totfact> 0.40198311E+01</totfact>
</mgrwt>
</event>
<event>
 4    1  0.5387657E-008  0.2108311E+03  0.7818608E-02  0.1140910E+00
         -2   -1    0    0    0  501 -0.00000000000E+00  0.00000000000E+00  0.21275227209E+03  0.21275227211E+03  0.25500000000E-02 0.  1.
          2   -1    0    0  501    0  0.00000000000E+00 -0.00000000000E+00 -0.44899558557E+03  0.44899558558E+03  0.25500000000E-02 0. -1.
    8880022    1    1    2    0    0 -0.11469848315E+03 -0.88895159783E+02 -0.36006237454E+03  0.41724651951E+03  0.15294330000E+03 0.  0.
    8880022    1    1    2    0    0  0.11469848315E+03  0.88895159783E+02  0.12381906107E+03  0.24450133817E+03  0.15294330000E+03 0.  1.
<mgrwt>
<rscale>  0 0.21083108E+03</rscale>
<asrwt>0</asrwt>
<pdfrwt beam="1">  1        2 0.69076243E-01 0.21083108E+03</pdfrwt>
<pdfrwt beam="2">  1       -2 0.32731119E-01 0.21083108E+03</pdfrwt>
<totfact> 0.61445160E+02</totfact>
</mgrwt>
</event>
<event>
 4    1  0.5387657E-008  0.4835666E+03  0.7818608E-02  0.1018160E+00
         -2   -1    0    0    0  501 -0.00000000000E+00  0.00000000000E+00  0.23358597694E+03  0.23358597696E+03  0.25500000000E-02 0.  1.
          2   -1    0    0  501    0  0.00000000000E+00 -0.00000000000E+00 -0.24840894258E+04  0.24840894258E+04  0.25500000000E-02 0. -1.
    8880022    1    1    2    0    0 -0.37363220976E+03 -0.26616534111E+03 -0.75330002642E+02  0.48939889588E+03  0.15294330000E+03 0.  0.
    8880022    1    1    2    0    0  0.37363220976E+03  0.26616534111E+03 -0.21751734462E+04  0.22282765069E+04  0.15294330000E+03 0.  0.
<mgrwt>
<rscale>  0 0.48356661E+03</rscale>
<asrwt>0</asrwt>
<pdfrwt beam="1">  1        2 0.38216758E+00 0.48356661E+03</pdfrwt>
<pdfrwt beam="2">  1       -2 0.35936306E-01 0.48356661E+03</pdfrwt>
<totfact> 0.28366797E+01</totfact>
</mgrwt>
</event>
<event>
 4    1  0.5387657E-008  0.5734573E+03  0.7818608E-02  0.9962057E-01
          2   -1    0    0  501    0  0.00000000000E+00  0.00000000000E+00  0.10537040928E+04  0.10537040928E+04  0.25500000000E-02 0. -1.
         -2   -1    0    0    0  501 -0.00000000000E+00 -0.00000000000E+00 -0.78632504931E+03  0.78632504931E+03  0.25500000000E-02 0.  1.
    8880022    1    1    2    0    0  0.50626642961E+03  0.22171139210E+03 -0.58078914434E+03  0.81619196415E+03  0.15294330000E+03 0.  0.
    8880022    1    1    2    0    0 -0.50626642961E+03 -0.22171139210E+03  0.84816818785E+03  0.10238371780E+04  0.15294330000E+03 0.  0.
<mgrwt>
<rscale>  0 0.57345732E+03</rscale>
<asrwt>0</asrwt>
<pdfrwt beam="1">  1        2 0.16210832E+00 0.57345732E+03</pdfrwt>
<pdfrwt beam="2">  1       -2 0.12097308E+00 0.57345732E+03</pdfrwt>
<totfact> 0.12625195E+01</totfact>
</mgrwt>
</event>
<event>
 4    1  0.5387657E-008  0.7931648E+03  0.7818608E-02  0.9569964E-01
          2   -1    0    0  501    0  0.00000000000E+00  0.00000000000E+00  0.26976758867E+04  0.26976758867E+04  0.25500000000E-02 0. -1.
         -2   -1    0    0    0  501 -0.00000000000E+00 -0.00000000000E+00 -0.47679393049E+03  0.47679393050E+03  0.25500000000E-02 0.  1.
    8880022    1    1    2    0    0 -0.75126880710E+03 -0.20325832393E+03  0.22449422323E+04  0.23809401601E+04  0.15294330000E+03 0.  0.
    8880022    1    1    2    0    0  0.75126880710E+03  0.20325832393E+03 -0.24060276071E+02  0.79352965708E+03  0.15294330000E+03 0.  0.
<mgrwt>
<rscale>  0 0.79316481E+03</rscale>
<asrwt>0</asrwt>
<pdfrwt beam="1">  1        2 0.41502705E+00 0.79316481E+03</pdfrwt>
<pdfrwt beam="2">  1       -2 0.73352913E-01 0.79316481E+03</pdfrwt>
<totfact> 0.46823388E+00</totfact>
</mgrwt>
</event>
<event>
 4    1  0.5387657E-008  0.5198201E+03  0.7818608E-02  0.1008731E+00
         -2   -1    0    0    0  501 -0.00000000000E+00  0.00000000000E+00  0.38125432703E+03  0.38125432704E+03  0.25500000000E-02 0.  1.
          2   -1    0    0  501    0  0.00000000000E+00 -0.00000000000E+00 -0.18781372930E+04  0.18781372930E+04  0.25500000000E-02 0. -1.
    8880022    1    1    2    0    0 -0.43866842948E+03  0.23321935434E+03  0.14296865164E+03  0.53912238557E+03  0.15294330000E+03 0.  1.
    8880022    1    1    2    0    0  0.43866842948E+03 -0.23321935434E+03 -0.16398516176E+04  0.17202692344E+04  0.15294330000E+03 0.  0.
<mgrwt>
<rscale>  0 0.51982008E+03</rscale>
<asrwt>0</asrwt>
<pdfrwt beam="1">  1        2 0.28894419E+00 0.51982008E+03</pdfrwt>
<pdfrwt beam="2">  1       -2 0.58654513E-01 0.51982008E+03</pdfrwt>
<totfact> 0.22697458E+01</totfact>
</mgrwt>
</event>
<event>
 4    1  0.5387657E-008  0.9110155E+03  0.7818608E-02  0.9411915E-01
         -2   -1    0    0    0  501 -0.00000000000E+00  0.00000000000E+00  0.10264047706E+04  0.10264047706E+04  0.25500000000E-02 0.  1.
          2   -1    0    0  501    0  0.00000000000E+00 -0.00000000000E+00 -0.12733100386E+04  0.12733100386E+04  0.25500000000E-02 0. -1.
    8880022    1    1    2    0    0 -0.80378451622E+03 -0.40060959529E+03 -0.81810686000E+03  0.12244378644E+04  0.15294330000E+03 0.  0.
    8880022    1    1    2    0    0  0.80378451622E+03  0.40060959529E+03  0.57120159201E+03  0.10752769448E+04  0.15294330000E+03 0.  0.
<mgrwt>
<rscale>  0 0.91101550E+03</rscale>
<asrwt>0</asrwt>
<pdfrwt beam="1">  1        2 0.19589385E+00 0.91101550E+03</pdfrwt>
<pdfrwt beam="2">  1       -2 0.15790843E+00 0.91101550E+03</pdfrwt>
<totfact> 0.44809743E+00</totfact>
</mgrwt>
</event>
<event>
 4    1  0.5387657E-008  0.8761640E+03  0.7818608E-02  0.9455878E-01
         -2   -1    0    0    0  501 -0.00000000000E+00  0.00000000000E+00  0.59069075073E+03  0.59069075073E+03  0.25500000000E-02 0.  1.
          2   -1    0    0  501    0  0.00000000000E+00 -0.00000000000E+00 -0.21506392162E+04  0.21506392162E+04  0.25500000000E-02 0. -1.
    8880022    1    1    2    0    0  0.71460101386E+03  0.48333957780E+03  0.82252702025E+02  0.88001642967E+03  0.15294330000E+03 0.  0.
    8880022    1    1    2    0    0 -0.71460101386E+03 -0.48333957780E+03 -0.16422011675E+04  0.18613135373E+04  0.15294330000E+03 0.  0.
<mgrwt>
<rscale>  0 0.87616403E+03</rscale>
<asrwt>0</asrwt>
<pdfrwt beam="1">  1        2 0.33086757E+00 0.87616403E+03</pdfrwt>
<pdfrwt beam="2">  1       -2 0.90875501E-01 0.87616403E+03</pdfrwt>
<totfact> 0.58011431E+00</totfact>
</mgrwt>
</event>
<event>
 4    1  0.5387657E-008  0.1687338E+03  0.7818608E-02  0.1179175E+00
         -2   -1    0    0    0  501 -0.00000000000E+00  0.00000000000E+00  0.28030400379E+02  0.28030400495E+02  0.25500000000E-02 0.  1.
          2   -1    0    0  501    0  0.00000000000E+00 -0.00000000000E+00 -0.21792696730E+04  0.21792696730E+04  0.25500000000E-02 0. -1.
    8880022    1    1    2    0    0 -0.60316937687E+02  0.37964674066E+02 -0.18820519688E+04  0.18896006763E+04  0.15294330000E+03 0. -1.
    8880022    1    1    2    0    0  0.60316937687E+02 -0.37964674066E+02 -0.26918730380E+03  0.31769939722E+03  0.15294330000E+03 0.  0.
<mgrwt>
<rscale>  0 0.16873382E+03</rscale>
<asrwt>0</asrwt>
<pdfrwt beam="1">  1        2 0.33527212E+00 0.16873382E+03</pdfrwt>
<pdfrwt beam="2">  1       -2 0.43123710E-02 0.16873382E+03</pdfrwt>
<totfact> 0.14821353E+03</totfact>
</mgrwt>
</event>
<event>
 4    1  0.5387657E-008  0.1018691E+04  0.7818608E-02  0.9288280E-01
         -2   -1    0    0    0  501 -0.00000000000E+00  0.00000000000E+00  0.15297340660E+04  0.15297340660E+04  0.25500000000E-02 0.  1.
          2   -1    0    0  501    0  0.00000000000E+00 -0.00000000000E+00 -0.12448848543E+04  0.12448848543E+04  0.25500000000E-02 0. -1.
    8880022    1    1    2    0    0 -0.10062218295E+04  0.43088294746E+02  0.10782895351E+04  0.14833876587E+04  0.15294330000E+03 0.  0.
    8880022    1    1    2    0    0  0.10062218295E+04 -0.43088294746E+02 -0.79344032337E+03  0.12912312616E+04  0.15294330000E+03 0.  0.
<mgrwt>
<rscale>  0 0.10186906E+04</rscale>
<asrwt>0</asrwt>
<pdfrwt beam="1">  1        2 0.19152075E+00 0.10186906E+04</pdfrwt>
<pdfrwt beam="2">  1       -2 0.23534370E+00 0.10186906E+04</pdfrwt>
<totfact> 0.14001866E+00</totfact>
</mgrwt>
</event>
<event>
 4    1  0.5387657E-008  0.5565497E+03  0.7818608E-02  0.9999892E-01
         -2   -1    0    0    0  501 -0.00000000000E+00  0.00000000000E+00  0.10284262793E+04  0.10284262793E+04  0.25500000000E-02 0.  1.
          2   -1    0    0  501    0  0.00000000000E+00 -0.00000000000E+00 -0.12850789231E+04  0.12850789231E+04  0.25500000000E-02 0. -1.
    8880022    1    1    2    0    0 -0.11539956573E+03  0.52253123594E+03  0.88383444923E+03  0.10444668204E+04  0.15294330000E+03 0.  0.
    8880022    1    1    2    0    0  0.11539956573E+03 -0.52253123594E+03 -0.11404870931E+04  0.12690383819E+04  0.15294330000E+03 0.  0.
<mgrwt>
<rscale>  0 0.55654973E+03</rscale>
<asrwt>0</asrwt>
<pdfrwt beam="1">  1        2 0.19770445E+00 0.55654973E+03</pdfrwt>
<pdfrwt beam="2">  1       -2 0.15821943E+00 0.55654973E+03</pdfrwt>
<totfact> 0.46334678E+00</totfact>
</mgrwt>
</event>
<event>
 4    1  0.5387657E-008  0.6657887E+03  0.7818608E-02  0.9777596E-01
         -2   -1    0    0    0  501 -0.00000000000E+00  0.00000000000E+00  0.44198125027E+03  0.44198125028E+03  0.25500000000E-02 0.  1.
          2   -1    0    0  501    0  0.00000000000E+00 -0.00000000000E+00 -0.12755990836E+04  0.12755990836E+04  0.25500000000E-02 0. -1.
    8880022    1    1    2    0    0  0.46457817799E+03  0.45171903797E+03 -0.81386408130E+03  0.10514986298E+04  0.15294330000E+03 0.  0.
    8880022    1    1    2    0    0 -0.46457817799E+03 -0.45171903797E+03 -0.19753752029E+02  0.66608170404E+03  0.15294330000E+03 0.  1.
<mgrwt>
<rscale>  0 0.66578872E+03</rscale>
<asrwt>0</asrwt>
<pdfrwt beam="1">  1        2 0.19624601E+00 0.66578872E+03</pdfrwt>
<pdfrwt beam="2">  1       -2 0.67997116E-01 0.66578872E+03</pdfrwt>
<totfact> 0.34815985E+01</totfact>
</mgrwt>
</event>
<event>
 4    1  0.5387657E-008  0.1807997E+03  0.7818608E-02  0.1167031E+00
         -2   -1    0    0    0  501 -0.00000000000E+00  0.00000000000E+00  0.22581954063E+03  0.22581954064E+03  0.25500000000E-02 0.  1.
          2   -1    0    0  501    0  0.00000000000E+00 -0.00000000000E+00 -0.23179462742E+04  0.23179462742E+04  0.25500000000E-02 0. -1.
    8880022    1    1    2    0    0  0.88504017302E+02 -0.38261134100E+02  0.18546498720E+03  0.25900924685E+03  0.15294330000E+03 0.  0.
    8880022    1    1    2    0    0 -0.88504017302E+02  0.38261134100E+02 -0.22775917208E+04  0.22847565680E+04  0.15294330000E+03 0.  0.
<mgrwt>
<rscale>  0 0.18079969E+03</rscale>
<asrwt>0</asrwt>
<pdfrwt beam="1">  1        2 0.35660710E+00 0.18079969E+03</pdfrwt>
<pdfrwt beam="2">  1       -2 0.34741469E-01 0.18079969E+03</pdfrwt>
<totfact> 0.41446529E+01</totfact>
</mgrwt>
</event>
<event>
 4    1  0.5387657E-008  0.6604090E+03  0.7818608E-02  0.9787441E-01
          2   -1    0    0  501    0  0.00000000000E+00  0.00000000000E+00  0.31563482878E+04  0.31563482878E+04  0.25500000000E-02 0. -1.
         -2   -1    0    0    0  501 -0.00000000000E+00 -0.00000000000E+00 -0.39197639895E+03  0.39197639896E+03  0.25500000000E-02 0.  1.
    8880022    1    1    2    0    0  0.63424887614E+03  0.10235595798E+03  0.28097883041E+04  0.28863558938E+04  0.15294330000E+03 0.  0.
    8880022    1    1    2    0    0 -0.63424887614E+03 -0.10235595798E+03 -0.45416415243E+02  0.66196879292E+03  0.15294330000E+03 0.  0.
<mgrwt>
<rscale>  0 0.66040899E+03</rscale>
<asrwt>0</asrwt>
<pdfrwt beam="1">  1        2 0.48559205E+00 0.66040899E+03</pdfrwt>
<pdfrwt beam="2">  1       -2 0.60304060E-01 0.66040899E+03</pdfrwt>
<totfact> 0.38783764E+00</totfact>
</mgrwt>
</event>
<event>
 4    1  0.5387657E-008  0.4776952E+03  0.7818608E-02  0.1019771E+00
         -2   -1    0    0    0  501 -0.00000000000E+00  0.00000000000E+00  0.51515233623E+03  0.51515233624E+03  0.25500000000E-02 0.  1.
          2   -1    0    0  501    0  0.00000000000E+00 -0.00000000000E+00 -0.52916366719E+03  0.52916366720E+03  0.25500000000E-02 0. -1.
    8880022    1    1    2    0    0 -0.44866552309E+03 -0.59163293790E+02 -0.21775479265E+03  0.52498557092E+03  0.15294330000E+03 0.  0.
    8880022    1    1    2    0    0  0.44866552309E+03  0.59163293790E+02  0.20374346169E+03  0.51933043251E+03  0.15294330000E+03 0.  0.
<mgrwt>
<rscale>  0 0.47769520E+03</rscale>
<asrwt>0</asrwt>
<pdfrwt beam="1">  1        2 0.81409795E-01 0.47769520E+03</pdfrwt>
<pdfrwt beam="2">  1       -2 0.79254205E-01 0.47769520E+03</pdfrwt>
<totfact> 0.83889709E+01</totfact>
</mgrwt>
</event>
<event>
 4    1  0.5387657E-008  0.2703019E+03  0.7818608E-02  0.1101107E+00
          2   -1    0    0  501    0  0.00000000000E+00  0.00000000000E+00  0.35896728926E+04  0.35896728926E+04  0.25500000000E-02 0. -1.
         -2   -1    0    0    0  501 -0.00000000000E+00 -0.00000000000E+00 -0.58622326196E+02  0.58622326252E+02  0.25500000000E-02 0.  1.
    8880022    1    1    2    0    0  0.21841476367E+03  0.44344927436E+02  0.29168685628E+03  0.39767368120E+03  0.15294330000E+03 0.  0.
    8880022    1    1    2    0    0 -0.21841476367E+03 -0.44344927436E+02  0.32393637102E+04  0.32506215377E+04  0.15294330000E+03 0. -1.
<mgrwt>
<rscale>  0 0.27030193E+03</rscale>
<asrwt>0</asrwt>
<pdfrwt beam="1">  1        2 0.55225735E+00 0.27030193E+03</pdfrwt>
<pdfrwt beam="2">  1       -2 0.90188198E-02 0.27030193E+03</pdfrwt>
<totfact> 0.69262842E+01</totfact>
</mgrwt>
</event>
<event>
 4    1  0.5387657E-008  0.2296180E+03  0.7818608E-02  0.1126909E+00
          2   -1    0    0  501    0  0.00000000000E+00  0.00000000000E+00  0.30427380668E+03  0.30427380669E+03  0.25500000000E-02 0. -1.
         -2   -1    0    0    0  501 -0.00000000000E+00 -0.00000000000E+00 -0.22900473927E+03  0.22900473928E+03  0.25500000000E-02 0.  1.
    8880022    1    1    2    0    0 -0.17122768542E+03 -0.37218037386E+01  0.16916540551E+03  0.28520406644E+03  0.15294330000E+03 0.  0.
    8880022    1    1    2    0    0  0.17122768542E+03  0.37218037386E+01 -0.93896338094E+02  0.24807447954E+03  0.15294330000E+03 0.  1.
<mgrwt>
<rscale>  0 0.22961800E+03</rscale>
<asrwt>0</asrwt>
<pdfrwt beam="1">  1        2 0.46811355E-01 0.22961800E+03</pdfrwt>
<pdfrwt beam="2">  1       -2 0.35231498E-01 0.22961800E+03</pdfrwt>
<totfact> 0.81749740E+02</totfact>
</mgrwt>
</event>
<event>
 4    1  0.5387657E-008  0.5934336E+03  0.7818608E-02  0.9919124E-01
         -2   -1    0    0    0  501 -0.00000000000E+00  0.00000000000E+00  0.24900100153E+03  0.24900100154E+03  0.25500000000E-02 0.  1.
          2   -1    0    0  501    0  0.00000000000E+00 -0.00000000000E+00 -0.28349361304E+04  0.28349361304E+04  0.25500000000E-02 0. -1.
    8880022    1    1    2    0    0  0.54419882767E+03 -0.18060836397E+03 -0.23845197964E+04  0.24572541704E+04  0.15294330000E+03 0.  0.
    8880022    1    1    2    0    0 -0.54419882767E+03  0.18060836397E+03 -0.20141533243E+03  0.62668296157E+03  0.15294330000E+03 0.  0.
<mgrwt>
<rscale>  0 0.59343357E+03</rscale>
<asrwt>0</asrwt>
<pdfrwt beam="1">  1        2 0.43614400E+00 0.59343357E+03</pdfrwt>
<pdfrwt beam="2">  1       -2 0.38307848E-01 0.59343357E+03</pdfrwt>
<totfact> 0.15415122E+01</totfact>
</mgrwt>
</event>
<event>
 4    1  0.5387657E-008  0.5525541E+03  0.7818608E-02  0.1000904E+00
         -2   -1    0    0    0  501 -0.00000000000E+00  0.00000000000E+00  0.19267679436E+04  0.19267679436E+04  0.25500000000E-02 0.  1.
          2   -1    0    0  501    0  0.00000000000E+00 -0.00000000000E+00 -0.49437748127E+03  0.49437748128E+03  0.25500000000E-02 0. -1.
    8880022    1    1    2    0    0 -0.37452960488E+03 -0.37636672248E+03  0.17140738764E+04  0.18009345467E+04  0.15294330000E+03 0.  0.
    8880022    1    1    2    0    0  0.37452960488E+03  0.37636672248E+03 -0.28168341402E+03  0.62021087822E+03  0.15294330000E+03 0.  0.
<mgrwt>
<rscale>  0 0.55255406E+03</rscale>
<asrwt>0</asrwt>
<pdfrwt beam="1">  1        2 0.76058073E-01 0.55255406E+03</pdfrwt>
<pdfrwt beam="2">  1       -2 0.29642584E+00 0.55255406E+03</pdfrwt>
<totfact> 0.22490649E+00</totfact>
</mgrwt>
</event>
<event>
 4    1  0.5387657E-008  0.8362462E+03  0.7818608E-02  0.9508985E-01
         -2   -1    0    0    0  501 -0.00000000000E+00  0.00000000000E+00  0.12476604680E+04  0.12476604680E+04  0.25500000000E-02 0.  1.
          2   -1    0    0  501    0  0.00000000000E+00 -0.00000000000E+00 -0.94831543826E+03  0.94831543827E+03  0.25500000000E-02 0. -1.
    8880022    1    1    2    0    0  0.18810779956E+03  0.80033211537E+03 -0.55248800081E+03  0.10022727589E+04  0.15294330000E+03 0.  0.
    8880022    1    1    2    0    0 -0.18810779956E+03 -0.80033211537E+03  0.85183303058E+03  0.11937031474E+04  0.15294330000E+03 0.  0.
<mgrwt>
<rscale>  0 0.83624619E+03</rscale>
<asrwt>0</asrwt>
<pdfrwt beam="1">  1        2 0.14589468E+00 0.83624619E+03</pdfrwt>
<pdfrwt beam="2">  1       -2 0.19194776E+00 0.83624619E+03</pdfrwt>
<totfact> 0.41377310E+00</totfact>
</mgrwt>
</event>
<event>
 4    1  0.5387657E-008  0.2341099E+03  0.7818608E-02  0.1123780E+00
         -2   -1    0    0    0  501 -0.00000000000E+00  0.00000000000E+00  0.43072501893E+03  0.43072501894E+03  0.25500000000E-02 0.  1.
          2   -1    0    0  501    0  0.00000000000E+00 -0.00000000000E+00 -0.52490696345E+03  0.52490696345E+03  0.25500000000E-02 0. -1.
    8880022    1    1    2    0    0 -0.17579803926E+03  0.22601610167E+02 -0.46297932065E+03  0.51880370830E+03  0.15294330000E+03 0. -1.
    8880022    1    1    2    0    0  0.17579803926E+03 -0.22601610167E+02  0.36879737613E+03  0.43682827409E+03  0.15294330000E+03 0.  0.
<mgrwt>
<rscale>  0 0.23410988E+03</rscale>
<asrwt>0</asrwt>
<pdfrwt beam="1">  1        2 0.80754917E-01 0.23410988E+03</pdfrwt>
<pdfrwt beam="2">  1       -2 0.66265388E-01 0.23410988E+03</pdfrwt>
<totfact> 0.12832873E+02</totfact>
</mgrwt>
</event>
<event>
 4    1  0.5387657E-008  0.3178183E+03  0.7818608E-02  0.1076658E+00
         -2   -1    0    0    0  501 -0.00000000000E+00  0.00000000000E+00  0.73175069623E+02  0.73175069667E+02  0.25500000000E-02 0.  1.
          2   -1    0    0  501    0  0.00000000000E+00 -0.00000000000E+00 -0.26232629643E+04  0.26232629643E+04  0.25500000000E-02 0. -1.
    8880022    1    1    2    0    0  0.16575597187E+03  0.22392354579E+03 -0.34702481913E+03  0.47056845908E+03  0.15294330000E+03 0.  1.
    8880022    1    1    2    0    0 -0.16575597187E+03 -0.22392354579E+03 -0.22030630755E+04  0.22258695749E+04  0.15294330000E+03 0. -1.
<mgrwt>
<rscale>  0 0.31781827E+03</rscale>
<asrwt>0</asrwt>
<pdfrwt beam="1">  1        2 0.40357885E+00 0.31781827E+03</pdfrwt>
<pdfrwt beam="2">  1       -2 0.11257705E-01 0.31781827E+03</pdfrwt>
<totfact> 0.18613969E+02</totfact>
</mgrwt>
</event>
<event>
 4    1  0.5387657E-008  0.1362593E+04  0.7818608E-02  0.8981350E-01
          2   -1    0    0  501    0  0.00000000000E+00  0.00000000000E+00  0.18975450752E+04  0.18975450752E+04  0.25500000000E-02 0. -1.
         -2   -1    0    0    0  501 -0.00000000000E+00 -0.00000000000E+00 -0.11638955433E+04  0.11638955433E+04  0.25500000000E-02 0.  1.
    8880022    1    1    2    0    0 -0.40570076038E+02 -0.13533746046E+04  0.97782652400E+03  0.16771419485E+04  0.15294330000E+03 0.  0.
    8880022    1    1    2    0    0  0.40570076038E+02  0.13533746046E+04 -0.24417699205E+03  0.13842986700E+04  0.15294330000E+03 0.  0.
<mgrwt>
<rscale>  0 0.13625933E+04</rscale>
<asrwt>0</asrwt>
<pdfrwt beam="1">  1        2 0.29193001E+00 0.13625933E+04</pdfrwt>
<pdfrwt beam="2">  1       -2 0.17906085E+00 0.13625933E+04</pdfrwt>
<totfact> 0.13377711E+00</totfact>
</mgrwt>
</event>
<event>
 4    1  0.5387657E-008  0.3293836E+03  0.7818608E-02  0.1071410E+00
         -2   -1    0    0    0  501 -0.00000000000E+00  0.00000000000E+00  0.88477027935E+02  0.88477027972E+02  0.25500000000E-02 0.  1.
          2   -1    0    0  501    0  0.00000000000E+00 -0.00000000000E+00 -0.18685350174E+04  0.18685350174E+04  0.25500000000E-02 0. -1.
    8880022    1    1    2    0    0  0.23887192519E+03 -0.16745785609E+03 -0.14637252590E+04  0.15003283698E+04  0.15294330000E+03 0.  0.
    8880022    1    1    2    0    0 -0.23887192519E+03  0.16745785609E+03 -0.31633273046E+03  0.45668367562E+03  0.15294330000E+03 0.  0.
<mgrwt>
<rscale>  0 0.32938364E+03</rscale>
<asrwt>0</asrwt>
<pdfrwt beam="1">  1        2 0.28746690E+00 0.32938364E+03</pdfrwt>
<pdfrwt beam="2">  1       -2 0.13611852E-01 0.32938364E+03</pdfrwt>
<totfact> 0.34803927E+02</totfact>
</mgrwt>
</event>
<event>
 4    1  0.5387657E-008  0.4853311E+03  0.7818608E-02  0.1017680E+00
         -2   -1    0    0    0  501 -0.00000000000E+00  0.00000000000E+00  0.27984244292E+03  0.27984244293E+03  0.25500000000E-02 0.  1.
          2   -1    0    0  501    0  0.00000000000E+00 -0.00000000000E+00 -0.14483126787E+04  0.14483126787E+04  0.25500000000E-02 0. -1.
    8880022    1    1    2    0    0 -0.44217681028E+03 -0.12897403892E+03 -0.11434433923E+04  0.12421791653E+04  0.15294330000E+03 0.  0.
    8880022    1    1    2    0    0  0.44217681028E+03  0.12897403892E+03 -0.25026843510E+02  0.48597595638E+03  0.15294330000E+03 0.  0.
<mgrwt>
<rscale>  0 0.48533111E+03</rscale>
<asrwt>0</asrwt>
<pdfrwt beam="1">  1        2 0.22281733E+00 0.48533111E+03</pdfrwt>
<pdfrwt beam="2">  1       -2 0.43052684E-01 0.48533111E+03</pdfrwt>
<totfact> 0.73071464E+01</totfact>
</mgrwt>
</event>
<event>
 4    1  0.5387657E-008  0.2162291E+03  0.7818608E-02  0.1136726E+00
          2   -1    0    0  501    0  0.00000000000E+00  0.00000000000E+00  0.64461191854E+03  0.64461191854E+03  0.25500000000E-02 0. -1.
         -2   -1    0    0    0  501 -0.00000000000E+00 -0.00000000000E+00 -0.36447620260E+03  0.36447620261E+03  0.25500000000E-02 0.  1.
    8880022    1    1    2    0    0  0.13527260599E+03 -0.71166514254E+02  0.59162677537E+03  0.62990256789E+03  0.15294330000E+03 0.  0.
    8880022    1    1    2    0    0 -0.13527260599E+03  0.71166514254E+02 -0.31149105943E+03  0.37918555326E+03  0.15294330000E+03 0.  1.
<mgrwt>
<rscale>  0 0.21622905E+03</rscale>
<asrwt>0</asrwt>
<pdfrwt beam="1">  1        2 0.99171064E-01 0.21622905E+03</pdfrwt>
<pdfrwt beam="2">  1       -2 0.56073262E-01 0.21622905E+03</pdfrwt>
<totfact> 0.14370102E+02</totfact>
</mgrwt>
</event>
<event>
 4    1  0.5387657E-008  0.9334835E+03  0.7818608E-02  0.9384667E-01
         -2   -1    0    0    0  501 -0.00000000000E+00  0.00000000000E+00  0.14423705656E+04  0.14423705656E+04  0.25500000000E-02 0.  1.
          2   -1    0    0  501    0  0.00000000000E+00 -0.00000000000E+00 -0.65785846652E+03  0.65785846652E+03  0.25500000000E-02 0. -1.
    8880022    1    1    2    0    0 -0.85073165439E+03  0.35249887478E+03  0.92174934071E+02  0.93802328115E+03  0.15294330000E+03 0.  0.
    8880022    1    1    2    0    0  0.85073165439E+03 -0.35249887478E+03  0.69233716498E+03  0.11622057509E+04  0.15294330000E+03 0.  0.
<mgrwt>
<rscale>  0 0.93348351E+03</rscale>
<asrwt>0</asrwt>
<pdfrwt beam="1">  1        2 0.10120900E+00 0.93348351E+03</pdfrwt>
<pdfrwt beam="2">  1       -2 0.22190316E+00 0.93348351E+03</pdfrwt>
<totfact> 0.42681314E+00</totfact>
</mgrwt>
</event>
<event>
 4    1  0.5387657E-008  0.3899161E+03  0.7818608E-02  0.1047328E+00
          2   -1    0    0  501    0  0.00000000000E+00  0.00000000000E+00  0.18421433385E+04  0.18421433385E+04  0.25500000000E-02 0. -1.
         -2   -1    0    0    0  501 -0.00000000000E+00 -0.00000000000E+00 -0.73888963607E+03  0.73888963608E+03  0.25500000000E-02 0.  1.
    8880022    1    1    2    0    0 -0.11448146328E+03 -0.33990716756E+03 -0.66468310683E+03  0.77060896277E+03  0.15294330000E+03 0.  0.
    8880022    1    1    2    0    0  0.11448146328E+03  0.33990716756E+03  0.17679368092E+04  0.18104240118E+04  0.15294330000E+03 0.  0.
<mgrwt>
<rscale>  0 0.38991607E+03</rscale>
<asrwt>0</asrwt>
<pdfrwt beam="1">  1        2 0.28340667E+00 0.38991607E+03</pdfrwt>
<pdfrwt beam="2">  1       -2 0.11367533E+00 0.38991607E+03</pdfrwt>
<totfact> 0.55456042E+00</totfact>
</mgrwt>
</event>
<event>
 4    1  0.5387657E-008  0.2332505E+03  0.7818608E-02  0.1124373E+00
         -2   -1    0    0    0  501 -0.00000000000E+00  0.00000000000E+00  0.26079242776E+03  0.26079242777E+03  0.25500000000E-02 0.  1.
          2   -1    0    0  501    0  0.00000000000E+00 -0.00000000000E+00 -0.15062299722E+04  0.15062299722E+04  0.25500000000E-02 0. -1.
    8880022    1    1    2    0    0 -0.11294840137E+03  0.13511776345E+03 -0.14427661811E+04  0.14614992499E+04  0.15294330000E+03 0.  0.
    8880022    1    1    2    0    0  0.11294840137E+03 -0.13511776345E+03  0.19732863661E+03  0.30552315004E+03  0.15294330000E+03 0.  1.
<mgrwt>
<rscale>  0 0.23325052E+03</rscale>
<asrwt>0</asrwt>
<pdfrwt beam="1">  1        2 0.23172768E+00 0.23325052E+03</pdfrwt>
<pdfrwt beam="2">  1       -2 0.40121913E-01 0.23325052E+03</pdfrwt>
<totfact> 0.82157849E+01</totfact>
</mgrwt>
</event>
<event>
 4    1  0.5387657E-008  0.5595988E+03  0.7818608E-02  0.9992963E-01
          2   -1    0    0  501    0  0.00000000000E+00  0.00000000000E+00  0.12455824035E+04  0.12455824035E+04  0.25500000000E-02 0. -1.
         -2   -1    0    0    0  501 -0.00000000000E+00 -0.00000000000E+00 -0.49824649022E+03  0.49824649023E+03  0.25500000000E-02 0.  1.
    8880022    1    1    2    0    0 -0.28893556075E+03 -0.45417547401E+03 -0.24003357537E+03  0.60890630624E+03  0.15294330000E+03 0.  0.
    8880022    1    1    2    0    0  0.28893556075E+03  0.45417547401E+03  0.98736948860E+03  0.11349225874E+04  0.15294330000E+03 0.  0.
<mgrwt>
<rscale>  0 0.55959876E+03</rscale>
<asrwt>0</asrwt>
<pdfrwt beam="1">  1        2 0.19162806E+00 0.55959876E+03</pdfrwt>
<pdfrwt beam="2">  1       -2 0.76653305E-01 0.55959876E+03</pdfrwt>
<totfact> 0.28254469E+01</totfact>
</mgrwt>
</event>
<event>
 4    1  0.5387657E-008  0.4753173E+03  0.7818608E-02  0.1020430E+00
          2   -1    0    0  501    0  0.00000000000E+00  0.00000000000E+00  0.31842057913E+04  0.31842057913E+04  0.25500000000E-02 0. -1.
         -2   -1    0    0    0  501 -0.00000000000E+00 -0.00000000000E+00 -0.10172706301E+03  0.10172706304E+03  0.25500000000E-02 0.  1.
    8880022    1    1    2    0    0 -0.19959571698E+03 -0.40335640898E+03  0.63757261735E+03  0.79525174524E+03  0.15294330000E+03 0.  0.
    8880022    1    1    2    0    0  0.19959571698E+03  0.40335640898E+03  0.24449061110E+04  0.24906811091E+04  0.15294330000E+03 0.  0.
<mgrwt>
<rscale>  0 0.47531726E+03</rscale>
<asrwt>0</asrwt>
<pdfrwt beam="1">  1        2 0.48987782E+00 0.47531726E+03</pdfrwt>
<pdfrwt beam="2">  1       -2 0.15650317E-01 0.47531726E+03</pdfrwt>
<totfact> 0.48442945E+01</totfact>
</mgrwt>
</event>
<event>
 4    1  0.5387657E-008  0.4781121E+03  0.7818608E-02  0.1019655E+00
          2   -1    0    0  501    0  0.00000000000E+00  0.00000000000E+00  0.41457162208E+03  0.41457162209E+03  0.25500000000E-02 0. -1.
         -2   -1    0    0    0  501 -0.00000000000E+00 -0.00000000000E+00 -0.13252525779E+04  0.13252525779E+04  0.25500000000E-02 0.  1.
    8880022    1    1    2    0    0 -0.23740948930E+03  0.38579305550E+03 -0.11200893223E+04  0.12178634120E+04  0.15294330000E+03 0.  1.
    8880022    1    1    2    0    0  0.23740948930E+03 -0.38579305550E+03  0.20940836647E+03  0.52196078803E+03  0.15294330000E+03 0.  0.
<mgrwt>
<rscale>  0 0.47811212E+03</rscale>
<asrwt>0</asrwt>
<pdfrwt beam="1">  1        2 0.63780250E-01 0.47811212E+03</pdfrwt>
<pdfrwt beam="2">  1       -2 0.20388501E+00 0.47811212E+03</pdfrwt>
<totfact> 0.10114961E+01</totfact>
</mgrwt>
</event>
<event>
 4    1  0.5387657E-008  0.4885938E+03  0.7818608E-02  0.1016800E+00
          2   -1    0    0  501    0  0.00000000000E+00  0.00000000000E+00  0.23647801499E+04  0.23647801499E+04  0.25500000000E-02 0. -1.
         -2   -1    0    0    0  501 -0.00000000000E+00 -0.00000000000E+00 -0.15204777969E+03  0.15204777971E+03  0.25500000000E-02 0.  1.
    8880022    1    1    2    0    0 -0.33870887640E+03  0.31718843793E+03  0.37684862281E+03  0.61704031120E+03  0.15294330000E+03 0.  0.
    8880022    1    1    2    0    0  0.33870887640E+03 -0.31718843793E+03  0.18358837474E+04  0.18997876184E+04  0.15294330000E+03 0.  0.
<mgrwt>
<rscale>  0 0.48859376E+03</rscale>
<asrwt>0</asrwt>
<pdfrwt beam="1">  1        2 0.36381233E+00 0.48859376E+03</pdfrwt>
<pdfrwt beam="2">  1       -2 0.23391966E-01 0.48859376E+03</pdfrwt>
<totfact> 0.72522508E+01</totfact>
</mgrwt>
</event>
<event>
 4    1  0.5387657E-008  0.2207638E+03  0.7818608E-02  0.1133315E+00
         -2   -1    0    0    0  501 -0.00000000000E+00  0.00000000000E+00  0.14911728960E+04  0.14911728960E+04  0.25500000000E-02 0.  1.
          2   -1    0    0  501    0  0.00000000000E+00 -0.00000000000E+00 -0.68164197575E+03  0.68164197576E+03  0.25500000000E-02 0. -1.
    8880022    1    1    2    0    0 -0.76628738526E+02  0.13954585443E+03 -0.65527646029E+03  0.69146503996E+03  0.15294330000E+03 0. -1.
    8880022    1    1    2    0    0  0.76628738526E+02 -0.13954585443E+03  0.14648073805E+04  0.14813498318E+04  0.15294330000E+03 0.  0.
<mgrwt>
<rscale>  0 0.22076382E+03</rscale>
<asrwt>0</asrwt>
<pdfrwt beam="1">  1        2 0.10486800E+00 0.22076382E+03</pdfrwt>
<pdfrwt beam="2">  1       -2 0.22941121E+00 0.22076382E+03</pdfrwt>
<totfact> 0.42699240E+00</totfact>
</mgrwt>
</event>
<event>
 4    1  0.5387657E-008  0.5800874E+03  0.7818608E-02  0.9947602E-01
          2   -1    0    0  501    0  0.00000000000E+00  0.00000000000E+00  0.26799820737E+04  0.26799820737E+04  0.25500000000E-02 0. -1.
         -2   -1    0    0    0  501 -0.00000000000E+00 -0.00000000000E+00 -0.26528858303E+03  0.26528858304E+03  0.25500000000E-02 0.  1.
    8880022    1    1    2    0    0 -0.51027366715E+03  0.22963139801E+03  0.13859488970E+03  0.59641427784E+03  0.15294330000E+03 0.  0.
    8880022    1    1    2    0    0  0.51027366715E+03 -0.22963139801E+03  0.22760986010E+04  0.23488563789E+04  0.15294330000E+03 0.  0.
<mgrwt>
<rscale>  0 0.58008745E+03</rscale>
<asrwt>0</asrwt>
<pdfrwt beam="1">  1        2 0.41230493E+00 0.58008745E+03</pdfrwt>
<pdfrwt beam="2">  1       -2 0.40813628E-01 0.58008745E+03</pdfrwt>
<totfact> 0.16833548E+01</totfact>
</mgrwt>
</event>
<event>
 4    1  0.5387657E-008  0.7331758E+03  0.7818608E-02  0.9662121E-01
         -2   -1    0    0    0  501 -0.00000000000E+00  0.00000000000E+00  0.16722531733E+04  0.16722531733E+04  0.25500000000E-02 0.  1.
          2   -1    0    0  501    0  0.00000000000E+00 -0.00000000000E+00 -0.38191831350E+03  0.38191831351E+03  0.25500000000E-02 0. -1.
    8880022    1    1    2    0    0  0.32448661925E+03 -0.63942440503E+03  0.10538472806E+04  0.12837993923E+04  0.15294330000E+03 0.  0.
    8880022    1    1    2    0    0 -0.32448661925E+03  0.63942440503E+03  0.23648757915E+03  0.77037209447E+03  0.15294330000E+03 0.  0.
<mgrwt>
<rscale>  0 0.73317582E+03</rscale>
<asrwt>0</asrwt>
<pdfrwt beam="1">  1        2 0.58756664E-01 0.73317582E+03</pdfrwt>
<pdfrwt beam="2">  1       -2 0.25726972E+00 0.73317582E+03</pdfrwt>
<totfact> 0.50135146E+00</totfact>
</mgrwt>
</event>
<event>
 4    1  0.5387657E-008  0.9388154E+03  0.7818608E-02  0.9378320E-01
          2   -1    0    0  501    0  0.00000000000E+00  0.00000000000E+00  0.31058932566E+04  0.31058932566E+04  0.25500000000E-02 0. -1.
         -2   -1    0    0    0  501 -0.00000000000E+00 -0.00000000000E+00 -0.39942736107E+03  0.39942736108E+03  0.25500000000E-02 0.  1.
    8880022    1    1    2    0    0  0.27633471283E+03  0.88409383216E+03  0.41013596214E+03  0.10244930151E+04  0.15294330000E+03 0.  0.
    8880022    1    1    2    0    0 -0.27633471283E+03 -0.88409383216E+03  0.22963299334E+04  0.24808276026E+04  0.15294330000E+03 0.  0.
<mgrwt>
<rscale>  0 0.93881544E+03</rscale>
<asrwt>0</asrwt>
<pdfrwt beam="1">  1        2 0.47782972E+00 0.93881544E+03</pdfrwt>
<pdfrwt beam="2">  1       -2 0.61450365E-01 0.93881544E+03</pdfrwt>
<totfact> 0.38014342E+00</totfact>
</mgrwt>
</event>
<event>
 4    1  0.5387657E-008  0.2820478E+03  0.7818608E-02  0.1094576E+00
          2   -1    0    0  501    0  0.00000000000E+00  0.00000000000E+00  0.93322534091E+02  0.93322534125E+02  0.25500000000E-02 0. -1.
         -2   -1    0    0    0  501 -0.00000000000E+00 -0.00000000000E+00 -0.21560753310E+04  0.21560753310E+04  0.25500000000E-02 0.  1.
    8880022    1    1    2    0    0  0.87840526264E+02 -0.22009848892E+03 -0.19059250897E+04  0.19266814484E+04  0.15294330000E+03 0.  0.
    8880022    1    1    2    0    0 -0.87840526264E+02  0.22009848892E+03 -0.15682770718E+03  0.32271641674E+03  0.15294330000E+03 0. -1.
<mgrwt>
<rscale>  0 0.28204779E+03</rscale>
<asrwt>0</asrwt>
<pdfrwt beam="1">  1        2 0.14357315E-01 0.28204779E+03</pdfrwt>
<pdfrwt beam="2">  1       -2 0.33170386E+00 0.28204779E+03</pdfrwt>
<totfact> 0.97424602E+00</totfact>
</mgrwt>
</event>
<event>
 4    1  0.5387657E-008  0.6707452E+03  0.7818608E-02  0.9768612E-01
         -2   -1    0    0    0  501 -0.00000000000E+00  0.00000000000E+00  0.35817640026E+03  0.35817640027E+03  0.25500000000E-02 0.  1.
          2   -1    0    0  501    0  0.00000000000E+00 -0.00000000000E+00 -0.16692706458E+04  0.16692706459E+04  0.25500000000E-02 0. -1.
    8880022    1    1    2    0    0 -0.64426748402E+03 -0.10689684558E+03 -0.15119951162E+03  0.68757579356E+03  0.15294330000E+03 0.  0.
    8880022    1    1    2    0    0  0.64426748402E+03  0.10689684558E+03 -0.11598947340E+04  0.13398712526E+04  0.15294330000E+03 0.  0.
<mgrwt>
<rscale>  0 0.67074524E+03</rscale>
<asrwt>0</asrwt>
<pdfrwt beam="1">  1        2 0.25681086E+00 0.67074524E+03</pdfrwt>
<pdfrwt beam="2">  1       -2 0.55104063E-01 0.67074524E+03</pdfrwt>
<totfact> 0.32735697E+01</totfact>
</mgrwt>
</event>
<event>
 4    1  0.5387657E-008  0.6958582E+03  0.7818608E-02  0.9724342E-01
          2   -1    0    0  501    0  0.00000000000E+00  0.00000000000E+00  0.25962393056E+04  0.25962393056E+04  0.25500000000E-02 0. -1.
         -2   -1    0    0    0  501 -0.00000000000E+00 -0.00000000000E+00 -0.22102505619E+03  0.22102505621E+03  0.25500000000E-02 0.  1.
    8880022    1    1    2    0    0  0.59519629813E+03 -0.32644812314E+03  0.63094007961E+03  0.93931041061E+03  0.15294330000E+03 0.  0.
    8880022    1    1    2    0    0 -0.59519629813E+03  0.32644812314E+03  0.17442741698E+04  0.18779539512E+04  0.15294330000E+03 0.  0.
<mgrwt>
<rscale>  0 0.69585822E+03</rscale>
<asrwt>0</asrwt>
<pdfrwt beam="1">  1        2 0.39942147E+00 0.69585822E+03</pdfrwt>
<pdfrwt beam="2">  1       -2 0.34003852E-01 0.69585822E+03</pdfrwt>
<totfact> 0.26134943E+01</totfact>
</mgrwt>
</event>
<event>
 4    1  0.5387657E-008  0.2714218E+03  0.7818608E-02  0.1100469E+00
          2   -1    0    0  501    0  0.00000000000E+00  0.00000000000E+00  0.53252295500E+03  0.53252295500E+03  0.25500000000E-02 0. -1.
         -2   -1    0    0    0  501 -0.00000000000E+00 -0.00000000000E+00 -0.41533712205E+03  0.41533712206E+03  0.25500000000E-02 0.  1.
    8880022    1    1    2    0    0 -0.21932654113E+03  0.46626224587E+02  0.44562828997E+03  0.52177999415E+03  0.15294330000E+03 0.  0.
    8880022    1    1    2    0    0  0.21932654113E+03 -0.46626224587E+02 -0.32844245702E+03  0.42608008291E+03  0.15294330000E+03 0.  1.
<mgrwt>
<rscale>  0 0.27142179E+03</rscale>
<asrwt>0</asrwt>
<pdfrwt beam="1">  1        2 0.81926608E-01 0.27142179E+03</pdfrwt>
<pdfrwt beam="2">  1       -2 0.63898019E-01 0.27142179E+03</pdfrwt>
<totfact> 0.13567879E+02</totfact>
</mgrwt>
</event>
<event>
 4    1  0.5387657E-008  0.2844963E+03  0.7818608E-02  0.1093258E+00
         -2   -1    0    0    0  501 -0.00000000000E+00  0.00000000000E+00  0.39457449820E+03  0.39457449821E+03  0.25500000000E-02 0.  1.
          2   -1    0    0  501    0  0.00000000000E+00 -0.00000000000E+00 -0.76164386099E+03  0.76164386099E+03  0.25500000000E-02 0. -1.
    8880022    1    1    2    0    0  0.20140673028E+03 -0.13031427713E+03 -0.67770061942E+03  0.73499405739E+03  0.15294330000E+03 0.  0.
    8880022    1    1    2    0    0 -0.20140673028E+03  0.13031427713E+03  0.31063125663E+03  0.42122430181E+03  0.15294330000E+03 0.  0.
<mgrwt>
<rscale>  0 0.28449628E+03</rscale>
<asrwt>0</asrwt>
<pdfrwt beam="1">  1        2 0.11717598E+00 0.28449628E+03</pdfrwt>
<pdfrwt beam="2">  1       -2 0.60703769E-01 0.28449628E+03</pdfrwt>
<totfact> 0.98479249E+01</totfact>
</mgrwt>
</event>
<event>
 4    1  0.5387657E-008  0.8186532E+03  0.7818608E-02  0.9533403E-01
          2   -1    0    0  501    0  0.00000000000E+00  0.00000000000E+00  0.11188593830E+04  0.11188593830E+04  0.25500000000E-02 0. -1.
         -2   -1    0    0    0  501 -0.00000000000E+00 -0.00000000000E+00 -0.82755748369E+03  0.82755748369E+03  0.25500000000E-02 0.  1.
    8880022    1    1    2    0    0 -0.80225835744E+03 -0.56417602192E+02 -0.36580430261E+03  0.89666373783E+03  0.15294330000E+03 0.  0.
    8880022    1    1    2    0    0  0.80225835744E+03  0.56417602192E+02  0.65710620188E+03  0.10497531288E+04  0.15294330000E+03 0.  0.
<mgrwt>
<rscale>  0 0.81865321E+03</rscale>
<asrwt>0</asrwt>
<pdfrwt beam="1">  1        2 0.17213221E+00 0.81865321E+03</pdfrwt>
<pdfrwt beam="2">  1       -2 0.12731654E+00 0.81865321E+03</pdfrwt>
<totfact> 0.98140385E+00</totfact>
</mgrwt>
</event>
<event>
 4    1  0.5387657E-008  0.4014904E+03  0.7818608E-02  0.1043265E+00
          2   -1    0    0  501    0  0.00000000000E+00  0.00000000000E+00  0.18902474535E+04  0.18902474535E+04  0.25500000000E-02 0. -1.
         -2   -1    0    0    0  501 -0.00000000000E+00 -0.00000000000E+00 -0.25394647918E+03  0.25394647919E+03  0.25500000000E-02 0.  1.
    8880022    1    1    2    0    0  0.10537685083E+03 -0.35594750757E+03 -0.55587602935E+02  0.40532029735E+03  0.15294330000E+03 0.  0.
    8880022    1    1    2    0    0 -0.10537685083E+03  0.35594750757E+03  0.16918885773E+04  0.17388736354E+04  0.15294330000E+03 0.  0.
<mgrwt>
<rscale>  0 0.40149043E+03</rscale>
<asrwt>0</asrwt>
<pdfrwt beam="1">  1        2 0.29080730E+00 0.40149043E+03</pdfrwt>
<pdfrwt beam="2">  1       -2 0.39068689E-01 0.40149043E+03</pdfrwt>
<totfact> 0.51737362E+01</totfact>
</mgrwt>
</event>
<event>
 4    1  0.5387657E-008  0.3426367E+03  0.7818608E-02  0.1065678E+00
         -2   -1    0    0    0  501 -0.00000000000E+00  0.00000000000E+00  0.27100282449E+03  0.27100282450E+03  0.25500000000E-02 0.  1.
          2   -1    0    0  501    0  0.00000000000E+00 -0.00000000000E+00 -0.15128967094E+04  0.15128967094E+04  0.25500000000E-02 0. -1.
    8880022    1    1    2    0    0  0.38878966693E+02 -0.30413261593E+03  0.13255706923E+03  0.36738433791E+03  0.15294330000E+03 0.  0.
    8880022    1    1    2    0    0 -0.38878966693E+02  0.30413261593E+03 -0.13744509542E+04  0.14165151960E+04  0.15294330000E+03 0.  0.
<mgrwt>
<rscale>  0 0.34263665E+03</rscale>
<asrwt>0</asrwt>
<pdfrwt beam="1">  1        2 0.23275333E+00 0.34263665E+03</pdfrwt>
<pdfrwt beam="2">  1       -2 0.41692743E-01 0.34263665E+03</pdfrwt>
<totfact> 0.73572736E+01</totfact>
</mgrwt>
</event>
<event>
 4    1  0.5387657E-008  0.6431542E+03  0.7818608E-02  0.9819710E-01
         -2   -1    0    0    0  501 -0.00000000000E+00  0.00000000000E+00  0.23522626048E+03  0.23522626049E+03  0.25500000000E-02 0.  1.
          2   -1    0    0  501    0  0.00000000000E+00 -0.00000000000E+00 -0.23890669451E+04  0.23890669451E+04  0.25500000000E-02 0. -1.
    8880022    1    1    2    0    0  0.61878384535E+03 -0.85803664146E+02 -0.40281015907E+03  0.75888299052E+03  0.15294330000E+03 0.  0.
    8880022    1    1    2    0    0 -0.61878384535E+03  0.85803664146E+02 -0.17510305256E+04  0.18654102151E+04  0.15294330000E+03 0.  0.
<mgrwt>
<rscale>  0 0.64315423E+03</rscale>
<asrwt>0</asrwt>
<pdfrwt beam="1">  1        2 0.36754874E+00 0.64315423E+03</pdfrwt>
<pdfrwt beam="2">  1       -2 0.36188657E-01 0.64315423E+03</pdfrwt>
<totfact> 0.30657131E+01</totfact>
</mgrwt>
</event>
<event>
 4    1  0.5387657E-008  0.4061335E+03  0.7818608E-02  0.1041676E+00
         -2   -1    0    0    0  501 -0.00000000000E+00  0.00000000000E+00  0.23992706133E+03  0.23992706135E+03  0.25500000000E-02 0.  1.
          2   -1    0    0  501    0  0.00000000000E+00 -0.00000000000E+00 -0.20834111414E+04  0.20834111414E+04  0.25500000000E-02 0. -1.
    8880022    1    1    2    0    0 -0.30825109733E+03  0.21571742029E+03 -0.18726256721E+04  0.19161605636E+04  0.15294330000E+03 0.  0.
    8880022    1    1    2    0    0  0.30825109733E+03 -0.21571742029E+03  0.29141592098E+02  0.40717763915E+03  0.15294330000E+03 0.  0.
<mgrwt>
<rscale>  0 0.40613347E+03</rscale>
<asrwt>0</asrwt>
<pdfrwt beam="1">  1        2 0.32052478E+00 0.40613347E+03</pdfrwt>
<pdfrwt beam="2">  1       -2 0.36911857E-01 0.40613347E+03</pdfrwt>
<totfact> 0.45423668E+01</totfact>
</mgrwt>
</event>
<event>
 4    1  0.5387657E-008  0.1080232E+04  0.7818608E-02  0.9224676E-01
         -2   -1    0    0    0  501 -0.00000000000E+00  0.00000000000E+00  0.81090780327E+03  0.81090780327E+03  0.25500000000E-02 0.  1.
          2   -1    0    0  501    0  0.00000000000E+00 -0.00000000000E+00 -0.19212723107E+04  0.19212723107E+04  0.25500000000E-02 0. -1.
    8880022    1    1    2    0    0 -0.95908999290E+03  0.47292207374E+03  0.12924719215E+03  0.10879362996E+04  0.15294330000E+03 0.  0.
    8880022    1    1    2    0    0  0.95908999290E+03 -0.47292207374E+03 -0.12396116995E+04  0.16442438143E+04  0.15294330000E+03 0.  0.
<mgrwt>
<rscale>  0 0.10802317E+04</rscale>
<asrwt>0</asrwt>
<pdfrwt beam="1">  1        2 0.29558035E+00 0.10802317E+04</pdfrwt>
<pdfrwt beam="2">  1       -2 0.12475505E+00 0.10802317E+04</pdfrwt>
<totfact> 0.35185723E+00</totfact>
</mgrwt>
</event>
<event>
 4    1  0.5387657E-008  0.4632431E+03  0.7818608E-02  0.1023845E+00
         -2   -1    0    0    0  501 -0.00000000000E+00  0.00000000000E+00  0.15946528678E+03  0.15946528680E+03  0.25500000000E-02 0.  1.
          2   -1    0    0  501    0  0.00000000000E+00 -0.00000000000E+00 -0.13913600504E+04  0.13913600504E+04  0.25500000000E-02 0. -1.
    8880022    1    1    2    0    0  0.31984574804E+03  0.29816305005E+03 -0.75640002406E+03  0.88698092222E+03  0.15294330000E+03 0.  0.
    8880022    1    1    2    0    0 -0.31984574804E+03 -0.29816305005E+03 -0.47549473960E+03  0.66384441502E+03  0.15294330000E+03 0.  0.
<mgrwt>
<rscale>  0 0.46324309E+03</rscale>
<asrwt>0</asrwt>
<pdfrwt beam="1">  1        2 0.21405538E+00 0.46324309E+03</pdfrwt>
<pdfrwt beam="2">  1       -2 0.24533122E-01 0.46324309E+03</pdfrwt>
<totfact> 0.22545275E+02</totfact>
</mgrwt>
</event>
<event>
 4    1  0.5387657E-008  0.3071381E+03  0.7818608E-02  0.1081726E+00
         -2   -1    0    0    0  501 -0.00000000000E+00  0.00000000000E+00  0.28097509077E+02  0.28097509193E+02  0.25500000000E-02 0.  1.
          2   -1    0    0  501    0  0.00000000000E+00 -0.00000000000E+00 -0.39600542367E+04  0.39600542367E+04  0.25500000000E-02 0. -1.
    8880022    1    1    2    0    0 -0.13102890119E+03 -0.23189128291E+03 -0.11880577604E+04  0.12271165532E+04  0.15294330000E+03 0.  0.
    8880022    1    1    2    0    0  0.13102890119E+03  0.23189128291E+03 -0.27438989672E+04  0.27610351927E+04  0.15294330000E+03 0.  0.
<mgrwt>
<rscale>  0 0.30713807E+03</rscale>
<asrwt>0</asrwt>
<pdfrwt beam="1">  1        2 0.60923867E+00 0.30713807E+03</pdfrwt>
<pdfrwt beam="2">  1       -2 0.43226969E-02 0.30713807E+03</pdfrwt>
<totfact> 0.11568907E+02</totfact>
</mgrwt>
</event>
<event>
 4    1  0.5387657E-008  0.2800593E+03  0.7818608E-02  0.1095657E+00
         -2   -1    0    0    0  501 -0.00000000000E+00  0.00000000000E+00  0.40912847168E+03  0.40912847168E+03  0.25500000000E-02 0.  1.
          2   -1    0    0  501    0  0.00000000000E+00 -0.00000000000E+00 -0.24680491397E+03  0.24680491398E+03  0.25500000000E-02 0. -1.
    8880022    1    1    2    0    0  0.14932229078E+03  0.18095412109E+03 -0.73797129926E+02  0.28961907718E+03  0.15294330000E+03 0.  1.
    8880022    1    1    2    0    0 -0.14932229078E+03 -0.18095412109E+03  0.23612068763E+03  0.36631430849E+03  0.15294330000E+03 0.  1.
<mgrwt>
<rscale>  0 0.28005927E+03</rscale>
<asrwt>0</asrwt>
<pdfrwt beam="1">  1        2 0.37969987E-01 0.28005927E+03</pdfrwt>
<pdfrwt beam="2">  1       -2 0.62942842E-01 0.28005927E+03</pdfrwt>
<totfact> 0.32523332E+02</totfact>
</mgrwt>
</event>
<event>
 4    1  0.5387657E-008  0.3120136E+03  0.7818608E-02  0.1079385E+00
         -2   -1    0    0    0  501 -0.00000000000E+00  0.00000000000E+00  0.11412681019E+03  0.11412681022E+03  0.25500000000E-02 0.  1.
          2   -1    0    0  501    0  0.00000000000E+00 -0.00000000000E+00 -0.16039104124E+04  0.16039104124E+04  0.25500000000E-02 0. -1.
    8880022    1    1    2    0    0 -0.10879111766E+03 -0.24924958458E+03 -0.15713097516E+03  0.34934604487E+03  0.15294330000E+03 0.  0.
    8880022    1    1    2    0    0  0.10879111766E+03  0.24924958458E+03 -0.13326526271E+04  0.13686911778E+04  0.15294330000E+03 0. -1.
<mgrwt>
<rscale>  0 0.31201365E+03</rscale>
<asrwt>0</asrwt>
<pdfrwt beam="1">  1        2 0.24675543E+00 0.31201365E+03</pdfrwt>
<pdfrwt beam="2">  1       -2 0.17557972E-01 0.31201365E+03</pdfrwt>
<totfact> 0.31514786E+02</totfact>
</mgrwt>
</event>
<event>
 4    1  0.5387657E-008  0.6982490E+03  0.7818608E-02  0.9720231E-01
         -2   -1    0    0    0  501 -0.00000000000E+00  0.00000000000E+00  0.57361768027E+03  0.57361768027E+03  0.25500000000E-02 0.  1.
          2   -1    0    0  501    0  0.00000000000E+00 -0.00000000000E+00 -0.10850399342E+04  0.10850399342E+04  0.25500000000E-02 0. -1.
    8880022    1    1    2    0    0 -0.60590840687E+03  0.31150447436E+03  0.13031109565E+03  0.71030463164E+03  0.15294330000E+03 0.  0.
    8880022    1    1    2    0    0  0.60590840687E+03 -0.31150447436E+03 -0.64173334958E+03  0.94835298283E+03  0.15294330000E+03 0.  0.
<mgrwt>
<rscale>  0 0.69824902E+03</rscale>
<asrwt>0</asrwt>
<pdfrwt beam="1">  1        2 0.16692922E+00 0.69824902E+03</pdfrwt>
<pdfrwt beam="2">  1       -2 0.88248874E-01 0.69824902E+03</pdfrwt>
<totfact> 0.25175919E+01</totfact>
</mgrwt>
</event>
<event>
 4    1  0.5387657E-008  0.6883387E+03  0.7818608E-02  0.9737385E-01
         -2   -1    0    0    0  501 -0.00000000000E+00  0.00000000000E+00  0.69589860925E+03  0.69589860926E+03  0.25500000000E-02 0.  1.
          2   -1    0    0  501    0  0.00000000000E+00 -0.00000000000E+00 -0.98000401645E+03  0.98000401645E+03  0.25500000000E-02 0. -1.
    8880022    1    1    2    0    0 -0.66147456903E+03 -0.11344536335E+03  0.32090830040E+03  0.75946839712E+03  0.15294330000E+03 0.  0.
    8880022    1    1    2    0    0  0.66147456903E+03  0.11344536335E+03 -0.60501370760E+03  0.91643422859E+03  0.15294330000E+03 0.  0.
<mgrwt>
<rscale>  0 0.68833866E+03</rscale>
<asrwt>0</asrwt>
<pdfrwt beam="1">  1        2 0.15076985E+00 0.68833866E+03</pdfrwt>
<pdfrwt beam="2">  1       -2 0.10706132E+00 0.68833866E+03</pdfrwt>
<totfact> 0.18627442E+01</totfact>
</mgrwt>
</event>
<event>
 4    1  0.5387657E-008  0.3021153E+03  0.7818608E-02  0.1084188E+00
          2   -1    0    0  501    0  0.00000000000E+00  0.00000000000E+00  0.43271876123E+03  0.43271876124E+03  0.25500000000E-02 0. -1.
         -2   -1    0    0    0  501 -0.00000000000E+00 -0.00000000000E+00 -0.96136603863E+03  0.96136603863E+03  0.25500000000E-02 0.  1.
    8880022    1    1    2    0    0 -0.16031025171E+03 -0.20538411003E+03  0.35152140797E+03  0.46350939875E+03  0.15294330000E+03 0. -1.
    8880022    1    1    2    0    0  0.16031025171E+03  0.20538411003E+03 -0.88016868537E+03  0.93057540112E+03  0.15294330000E+03 0.  0.
<mgrwt>
<rscale>  0 0.30211531E+03</rscale>
<asrwt>0</asrwt>
<pdfrwt beam="1">  1        2 0.66572117E-01 0.30211531E+03</pdfrwt>
<pdfrwt beam="2">  1       -2 0.14790247E+00 0.30211531E+03</pdfrwt>
<totfact> 0.24204534E+01</totfact>
</mgrwt>
</event>
<event>
 4    1  0.5387657E-008  0.4247229E+03  0.7818608E-02  0.1035540E+00
         -2   -1    0    0    0  501 -0.00000000000E+00  0.00000000000E+00  0.10933460807E+04  0.10933460807E+04  0.25500000000E-02 0.  1.
          2   -1    0    0  501    0  0.00000000000E+00 -0.00000000000E+00 -0.24571693387E+03  0.24571693388E+03  0.25500000000E-02 0. -1.
    8880022    1    1    2    0    0  0.17457887318E+03  0.35569659135E+03  0.40048295629E+02  0.42660680615E+03  0.15294330000E+03 0.  0.
    8880022    1    1    2    0    0 -0.17457887318E+03 -0.35569659135E+03  0.80758085117E+03  0.91245620840E+03  0.15294330000E+03 0.  0.
<mgrwt>
<rscale>  0 0.42472285E+03</rscale>
<asrwt>0</asrwt>
<pdfrwt beam="1">  1        2 0.37802604E-01 0.42472285E+03</pdfrwt>
<pdfrwt beam="2">  1       -2 0.16820709E+00 0.42472285E+03</pdfrwt>
<totfact> 0.31396860E+01</totfact>
</mgrwt>
</event>
<event>
 4    1  0.5387657E-008  0.9119266E+03  0.7818608E-02  0.9410794E-01
          2   -1    0    0  501    0  0.00000000000E+00  0.00000000000E+00  0.26297583682E+04  0.26297583682E+04  0.25500000000E-02 0. -1.
         -2   -1    0    0    0  501 -0.00000000000E+00 -0.00000000000E+00 -0.62693709206E+03  0.62693709207E+03  0.25500000000E-02 0.  1.
    8880022    1    1    2    0    0  0.83895477382E+03 -0.32306864471E+03 -0.14492111286E+03  0.92337004699E+03  0.15294330000E+03 0.  0.
    8880022    1    1    2    0    0 -0.83895477382E+03  0.32306864471E+03  0.21477423890E+04  0.23333254132E+04  0.15294330000E+03 0.  0.
<mgrwt>
<rscale>  0 0.91192660E+03</rscale>
<asrwt>0</asrwt>
<pdfrwt beam="1">  1        2 0.40457821E+00 0.91192660E+03</pdfrwt>
<pdfrwt beam="2">  1       -2 0.96451861E-01 0.91192660E+03</pdfrwt>
<totfact> 0.26947030E+00</totfact>
</mgrwt>
</event>
<event>
 4    1  0.5387657E-008  0.7167241E+03  0.7818608E-02  0.9689052E-01
         -2   -1    0    0    0  501 -0.00000000000E+00  0.00000000000E+00  0.15636216744E+04  0.15636216744E+04  0.25500000000E-02 0.  1.
          2   -1    0    0  501    0  0.00000000000E+00 -0.00000000000E+00 -0.12209911302E+04  0.12209911302E+04  0.25500000000E-02 0. -1.
    8880022    1    1    2    0    0 -0.54821724018E+03 -0.43561407737E+03  0.13616626512E+04  0.15387717815E+04  0.15294330000E+03 0.  1.
    8880022    1    1    2    0    0  0.54821724018E+03  0.43561407737E+03 -0.10190321070E+04  0.12458410231E+04  0.15294330000E+03 0.  0.
<mgrwt>
<rscale>  0 0.71672409E+03</rscale>
<asrwt>0</asrwt>
<pdfrwt beam="1">  1        2 0.18784479E+00 0.71672409E+03</pdfrwt>
<pdfrwt beam="2">  1       -2 0.24055718E+00 0.71672409E+03</pdfrwt>
<totfact> 0.14084852E+00</totfact>
</mgrwt>
</event>
<event>
 4    1  0.5387657E-008  0.3423797E+03  0.7818608E-02  0.1065787E+00
          2   -1    0    0  501    0  0.00000000000E+00  0.00000000000E+00  0.44624499558E+03  0.44624499558E+03  0.25500000000E-02 0. -1.
         -2   -1    0    0    0  501 -0.00000000000E+00 -0.00000000000E+00 -0.10031484473E+04  0.10031484473E+04  0.25500000000E-02 0.  1.
    8880022    1    1    2    0    0 -0.30223675800E+03 -0.49851553965E+02  0.34416986622E+03  0.48546553446E+03  0.15294330000E+03 0.  0.
    8880022    1    1    2    0    0  0.30223675800E+03  0.49851553965E+02 -0.90107331792E+03  0.96392790840E+03  0.15294330000E+03 0.  0.
<mgrwt>
<rscale>  0 0.34237974E+03</rscale>
<asrwt>0</asrwt>
<pdfrwt beam="1">  1        2 0.68653077E-01 0.34237974E+03</pdfrwt>
<pdfrwt beam="2">  1       -2 0.15433053E+00 0.34237974E+03</pdfrwt>
<totfact> 0.20777243E+01</totfact>
</mgrwt>
</event>
<event>
 4    1  0.5387657E-008  0.7194824E+03  0.7818608E-02  0.9684483E-01
         -2   -1    0    0    0  501 -0.00000000000E+00  0.00000000000E+00  0.60095656415E+03  0.60095656416E+03  0.25500000000E-02 0.  1.
          2   -1    0    0  501    0  0.00000000000E+00 -0.00000000000E+00 -0.12180914726E+04  0.12180914726E+04  0.25500000000E-02 0. -1.
    8880022    1    1    2    0    0 -0.67468173120E+03  0.19765567157E+03 -0.80075410598E+03  0.10765045258E+04  0.15294330000E+03 0.  0.
    8880022    1    1    2    0    0  0.67468173120E+03 -0.19765567157E+03  0.18361919751E+03  0.74254351093E+03  0.15294330000E+03 0.  0.
<mgrwt>
<rscale>  0 0.71948235E+03</rscale>
<asrwt>0</asrwt>
<pdfrwt beam="1">  1        2 0.18739869E+00 0.71948235E+03</pdfrwt>
<pdfrwt beam="2">  1       -2 0.92454856E-01 0.71948235E+03</pdfrwt>
<totfact> 0.18767603E+01</totfact>
</mgrwt>
</event>
<event>
 4    1  0.5387657E-008  0.3322686E+03  0.7818608E-02  0.1070137E+00
          2   -1    0    0  501    0  0.00000000000E+00  0.00000000000E+00  0.21737912977E+04  0.21737912977E+04  0.25500000000E-02 0. -1.
         -2   -1    0    0    0  501 -0.00000000000E+00 -0.00000000000E+00 -0.13997522575E+03  0.13997522577E+03  0.25500000000E-02 0.  1.
    8880022    1    1    2    0    0  0.63615810194E+02 -0.28803442514E+03  0.93453876528E+02  0.34516095003E+03  0.15294330000E+03 0.  0.
    8880022    1    1    2    0    0 -0.63615810194E+02  0.28803442514E+03  0.19403621954E+04  0.19686055734E+04  0.15294330000E+03 0.  0.
<mgrwt>
<rscale>  0 0.33226865E+03</rscale>
<asrwt>0</asrwt>
<pdfrwt beam="1">  1        2 0.33442941E+00 0.33226865E+03</pdfrwt>
<pdfrwt beam="2">  1       -2 0.21534652E-01 0.33226865E+03</pdfrwt>
<totfact> 0.11015598E+02</totfact>
</mgrwt>
</event>
<event>
 4    1  0.5387657E-008  0.1067366E+04  0.7818608E-02  0.9237596E-01
          2   -1    0    0  501    0  0.00000000000E+00  0.00000000000E+00  0.15619234103E+04  0.15619234103E+04  0.25500000000E-02 0. -1.
         -2   -1    0    0    0  501 -0.00000000000E+00 -0.00000000000E+00 -0.16272726343E+04  0.16272726343E+04  0.25500000000E-02 0.  1.
    8880022    1    1    2    0    0  0.43306713430E+03  0.96350003371E+03 -0.12171547474E+04  0.16188689848E+04  0.15294330000E+03 0.  0.
    8880022    1    1    2    0    0 -0.43306713430E+03 -0.96350003371E+03  0.11518055234E+04  0.15703270598E+04  0.15294330000E+03 0.  0.
<mgrwt>
<rscale>  0 0.10673664E+04</rscale>
<asrwt>0</asrwt>
<pdfrwt beam="1">  1        2 0.24029591E+00 0.10673664E+04</pdfrwt>
<pdfrwt beam="2">  1       -2 0.25034964E+00 0.10673664E+04</pdfrwt>
<totfact> 0.74072990E-01</totfact>
</mgrwt>
</event>
<event>
 4    1  0.5387657E-008  0.1217921E+04  0.7818608E-02  0.9097313E-01
          2   -1    0    0  501    0  0.00000000000E+00  0.00000000000E+00  0.33949418141E+04  0.33949418141E+04  0.25500000000E-02 0. -1.
         -2   -1    0    0    0  501 -0.00000000000E+00 -0.00000000000E+00 -0.73472875098E+03  0.73472875098E+03  0.25500000000E-02 0.  1.
    8880022    1    1    2    0    0 -0.51656677513E+03 -0.10922907722E+04  0.26446883074E+04  0.29116504358E+04  0.15294330000E+03 0.  0.
    8880022    1    1    2    0    0  0.51656677513E+03  0.10922907722E+04  0.15524755731E+02  0.12180201292E+04  0.15294330000E+03 0.  0.
<mgrwt>
<rscale>  0 0.12179212E+04</rscale>
<asrwt>0</asrwt>
<pdfrwt beam="1">  1        2 0.52229874E+00 0.12179212E+04</pdfrwt>
<pdfrwt beam="2">  1       -2 0.11303519E+00 0.12179212E+04</pdfrwt>
<totfact> 0.58730686E-01</totfact>
</mgrwt>
</event>
<event>
 4    1  0.5387657E-008  0.7807667E+03  0.7818608E-02  0.9588281E-01
         -2   -1    0    0    0  501 -0.00000000000E+00  0.00000000000E+00  0.93784160360E+03  0.93784160360E+03  0.25500000000E-02 0.  1.
          2   -1    0    0  501    0  0.00000000000E+00 -0.00000000000E+00 -0.11503756476E+04  0.11503756476E+04  0.25500000000E-02 0. -1.
    8880022    1    1    2    0    0  0.71817565639E+03 -0.26538416731E+03 -0.79487823911E+03  0.11141939228E+04  0.15294330000E+03 0. -1.
    8880022    1    1    2    0    0 -0.71817565639E+03  0.26538416731E+03  0.58234419507E+03  0.97402332839E+03  0.15294330000E+03 0.  0.
<mgrwt>
<rscale>  0 0.78076673E+03</rscale>
<asrwt>0</asrwt>
<pdfrwt beam="1">  1        2 0.17698087E+00 0.78076673E+03</pdfrwt>
<pdfrwt beam="2">  1       -2 0.14428332E+00 0.78076673E+03</pdfrwt>
<totfact> 0.68446030E+00</totfact>
</mgrwt>
</event>
<event>
 4    1  0.5387657E-008  0.5208098E+03  0.7818608E-02  0.1008486E+00
         -2   -1    0    0    0  501 -0.00000000000E+00  0.00000000000E+00  0.12537724834E+04  0.12537724834E+04  0.25500000000E-02 0.  1.
          2   -1    0    0  501    0  0.00000000000E+00 -0.00000000000E+00 -0.44296802134E+03  0.44296802135E+03  0.25500000000E-02 0. -1.
    8880022    1    1    2    0    0  0.13187763738E+03  0.48006194117E+03 -0.20141059870E+03  0.55839865766E+03  0.15294330000E+03 0.  0.
    8880022    1    1    2    0    0 -0.13187763738E+03 -0.48006194117E+03  0.10122150607E+04  0.11383418470E+04  0.15294330000E+03 0.  0.
<mgrwt>
<rscale>  0 0.52080978E+03</rscale>
<asrwt>0</asrwt>
<pdfrwt beam="1">  1        2 0.68148927E-01 0.52080978E+03</pdfrwt>
<pdfrwt beam="2">  1       -2 0.19288807E+00 0.52080978E+03</pdfrwt>
<totfact> 0.10988710E+01</totfact>
</mgrwt>
</event>
<event>
 4    1  0.5387657E-008  0.3895260E+03  0.7818608E-02  0.1047468E+00
         -2   -1    0    0    0  501 -0.00000000000E+00  0.00000000000E+00  0.39702928080E+03  0.39702928081E+03  0.25500000000E-02 0.  1.
          2   -1    0    0  501    0  0.00000000000E+00 -0.00000000000E+00 -0.46715138433E+03  0.46715138434E+03  0.25500000000E-02 0. -1.
    8880022    1    1    2    0    0 -0.35819523377E+03 -0.59187842600E+01  0.14923736059E+03  0.41713582957E+03  0.15294330000E+03 0.  0.
    8880022    1    1    2    0    0  0.35819523377E+03  0.59187842600E+01 -0.21935946411E+03  0.44704483558E+03  0.15294330000E+03 0.  0.
<mgrwt>
<rscale>  0 0.38952601E+03</rscale>
<asrwt>0</asrwt>
<pdfrwt beam="1">  1        2 0.71869444E-01 0.38952601E+03</pdfrwt>
<pdfrwt beam="2">  1       -2 0.61081428E-01 0.38952601E+03</pdfrwt>
<totfact> 0.17111639E+02</totfact>
</mgrwt>
</event>
<event>
 4    1  0.5387657E-008  0.2610647E+03  0.7818608E-02  0.1106505E+00
         -2   -1    0    0    0  501 -0.00000000000E+00  0.00000000000E+00  0.37338340505E+03  0.37338340506E+03  0.25500000000E-02 0.  1.
          2   -1    0    0  501    0  0.00000000000E+00 -0.00000000000E+00 -0.53309015564E+03  0.53309015565E+03  0.25500000000E-02 0. -1.
    8880022    1    1    2    0    0  0.19567244431E+03 -0.80470007569E+02  0.28768632207E+03  0.38848191786E+03  0.15294330000E+03 0.  0.
    8880022    1    1    2    0    0 -0.19567244431E+03  0.80470007569E+02 -0.44739307266E+03  0.51799164285E+03  0.15294330000E+03 0.  0.
<mgrwt>
<rscale>  0 0.26106471E+03</rscale>
<asrwt>0</asrwt>
<pdfrwt beam="1">  1        2 0.82013870E-01 0.26106471E+03</pdfrwt>
<pdfrwt beam="2">  1       -2 0.57443601E-01 0.26106471E+03</pdfrwt>
<totfact> 0.16935713E+02</totfact>
</mgrwt>
</event>
<event>
 4    1  0.5387657E-008  0.5426515E+03  0.7818608E-02  0.1003209E+00
         -2   -1    0    0    0  501 -0.00000000000E+00  0.00000000000E+00  0.12864852506E+04  0.12864852506E+04  0.25500000000E-02 0.  1.
          2   -1    0    0  501    0  0.00000000000E+00 -0.00000000000E+00 -0.38075533672E+03  0.38075533673E+03  0.25500000000E-02 0. -1.
    8880022    1    1    2    0    0 -0.49933628935E+03  0.14745243181E+03  0.97932672091E+03  0.11196211095E+04  0.15294330000E+03 0.  0.
    8880022    1    1    2    0    0  0.49933628935E+03 -0.14745243181E+03 -0.73596807024E+02  0.54761947786E+03  0.15294330000E+03 0. -1.
<mgrwt>
<rscale>  0 0.54265146E+03</rscale>
<asrwt>0</asrwt>
<pdfrwt beam="1">  1        2 0.58577744E-01 0.54265146E+03</pdfrwt>
<pdfrwt beam="2">  1       -2 0.19792081E+00 0.54265146E+03</pdfrwt>
<totfact> 0.12031501E+01</totfact>
</mgrwt>
</event>
<event>
 4    1  0.5387657E-008  0.6371726E+03  0.7818608E-02  0.9831151E-01
          2   -1    0    0  501    0  0.00000000000E+00  0.00000000000E+00  0.26440327109E+04  0.26440327109E+04  0.25500000000E-02 0. -1.
         -2   -1    0    0    0  501 -0.00000000000E+00 -0.00000000000E+00 -0.17925605064E+03  0.17925605065E+03  0.25500000000E-02 0.  1.
    8880022    1    1    2    0    0 -0.61470250968E+03  0.68833801785E+02  0.69780744484E+03  0.94494663911E+03  0.15294330000E+03 0.  0.
    8880022    1    1    2    0    0  0.61470250968E+03 -0.68833801785E+02  0.17669692154E+04  0.18783421225E+04  0.15294330000E+03 0.  0.
<mgrwt>
<rscale>  0 0.63717260E+03</rscale>
<asrwt>0</asrwt>
<pdfrwt beam="1">  1        2 0.40677428E+00 0.63717260E+03</pdfrwt>
<pdfrwt beam="2">  1       -2 0.27577853E-01 0.63717260E+03</pdfrwt>
<totfact> 0.36574057E+01</totfact>
</mgrwt>
</event>
<event>
 4    1  0.5387657E-008  0.5803474E+03  0.7818608E-02  0.9947039E-01
          2   -1    0    0  501    0  0.00000000000E+00  0.00000000000E+00  0.89894106142E+03  0.89894106143E+03  0.25500000000E-02 0. -1.
         -2   -1    0    0    0  501 -0.00000000000E+00 -0.00000000000E+00 -0.11694319788E+04  0.11694319788E+04  0.25500000000E-02 0.  1.
    8880022    1    1    2    0    0  0.31549445214E+03 -0.46246586350E+03  0.71732620587E+03  0.92269169438E+03  0.15294330000E+03 0.  0.
    8880022    1    1    2    0    0 -0.31549445214E+03  0.46246586350E+03 -0.98781712330E+03  0.11456813459E+04  0.15294330000E+03 0.  0.
<mgrwt>
<rscale>  0 0.58034738E+03</rscale>
<asrwt>0</asrwt>
<pdfrwt beam="1">  1        2 0.13829863E+00 0.58034738E+03</pdfrwt>
<pdfrwt beam="2">  1       -2 0.17991261E+00 0.58034738E+03</pdfrwt>
<totfact> 0.55810208E+00</totfact>
</mgrwt>
</event>
<event>
 4    1  0.5387657E-008  0.7509680E+03  0.7818608E-02  0.9633833E-01
          2   -1    0    0  501    0  0.00000000000E+00  0.00000000000E+00  0.10743796826E+04  0.10743796827E+04  0.25500000000E-02 0. -1.
         -2   -1    0    0    0  501 -0.00000000000E+00 -0.00000000000E+00 -0.99042386920E+03  0.99042386920E+03  0.25500000000E-02 0.  1.
    8880022    1    1    2    0    0  0.68151985726E+03  0.27584780037E+03 -0.66581199003E+03  0.10036227299E+04  0.15294330000E+03 0.  0.
    8880022    1    1    2    0    0 -0.68151985726E+03 -0.27584780037E+03  0.74976780349E+03  0.10611808220E+04  0.15294330000E+03 0.  0.
<mgrwt>
<rscale>  0 0.75096803E+03</rscale>
<asrwt>0</asrwt>
<pdfrwt beam="1">  1        2 0.16528918E+00 0.75096803E+03</pdfrwt>
<pdfrwt beam="2">  1       -2 0.15237290E+00 0.75096803E+03</pdfrwt>
<totfact> 0.66207242E+00</totfact>
</mgrwt>
</event>
<event>
 4    1  0.5387657E-008  0.6778875E+03  0.7818608E-02  0.9755813E-01
          2   -1    0    0  501    0  0.00000000000E+00  0.00000000000E+00  0.20614647771E+04  0.20614647771E+04  0.25500000000E-02 0. -1.
         -2   -1    0    0    0  501 -0.00000000000E+00 -0.00000000000E+00 -0.43171776560E+03  0.43171776561E+03  0.25500000000E-02 0.  1.
    8880022    1    1    2    0    0  0.21476618639E+03  0.62451203986E+03  0.16818198647E+04  0.18132979658E+04  0.15294330000E+03 0.  0.
    8880022    1    1    2    0    0 -0.21476618639E+03 -0.62451203986E+03 -0.52072853212E+02  0.67988457682E+03  0.15294330000E+03 0.  0.
<mgrwt>
<rscale>  0 0.67788749E+03</rscale>
<asrwt>0</asrwt>
<pdfrwt beam="1">  1        2 0.31714842E+00 0.67788749E+03</pdfrwt>
<pdfrwt beam="2">  1       -2 0.66418119E-01 0.67788749E+03</pdfrwt>
<totfact> 0.13486312E+01</totfact>
</mgrwt>
</event>
<event>
 4    1  0.5387657E-008  0.3078552E+03  0.7818608E-02  0.1081379E+00
          2   -1    0    0  501    0  0.00000000000E+00  0.00000000000E+00  0.85173472480E+03  0.85173472481E+03  0.25500000000E-02 0. -1.
         -2   -1    0    0    0  501 -0.00000000000E+00 -0.00000000000E+00 -0.13140746859E+03  0.13140746861E+03  0.25500000000E-02 0.  1.
    8880022    1    1    2    0    0  0.20228760944E+03 -0.17453620491E+03  0.55258340598E+03  0.63255295220E+03  0.15294330000E+03 0.  0.
    8880022    1    1    2    0    0 -0.20228760944E+03  0.17453620491E+03  0.16774385023E+03  0.35058924122E+03  0.15294330000E+03 0.  0.
<mgrwt>
<rscale>  0 0.30785519E+03</rscale>
<asrwt>0</asrwt>
<pdfrwt beam="1">  1        2 0.13103611E+00 0.30785519E+03</pdfrwt>
<pdfrwt beam="2">  1       -2 0.20216533E-01 0.30785519E+03</pdfrwt>
<totfact> 0.67600655E+02</totfact>
</mgrwt>
</event>
<event>
 4    1  0.5829987E-008  0.9354987E+03  0.7818608E-02  0.9382263E-01
          2   -1    0    0  501    0  0.00000000000E+00  0.00000000000E+00  0.31365891148E+04  0.31365891148E+04  0.25500000000E-02 0. -1.
         -2   -1    0    0    0  501 -0.00000000000E+00 -0.00000000000E+00 -0.98341726965E+03  0.98341726965E+03  0.25500000000E-02 0.  1.
    8880022    1    1    2    0    0 -0.50597899577E+03  0.77184934813E+03  0.28200343911E+04  0.29711532744E+04  0.15294330000E+03 0.  0.
    8880022    1    1    2    0    0  0.50597899577E+03 -0.77184934813E+03 -0.66686254588E+03  0.11488531101E+04  0.15294330000E+03 0.  0.
<mgrwt>
<rscale>  0 0.93549870E+03</rscale>
<asrwt>0</asrwt>
<pdfrwt beam="1">  1        2 0.48255218E+00 0.93549870E+03</pdfrwt>
<pdfrwt beam="2">  1       -2 0.15129496E+00 0.93549870E+03</pdfrwt>
<totfact> 0.43111894E-01</totfact>
</mgrwt>
</event>
<event>
 4    1  0.7604519E-008  0.7772459E+03  0.7818608E-02  0.9593550E-01
         -2   -1    0    0    0  501 -0.00000000000E+00  0.00000000000E+00  0.20374620217E+04  0.20374620217E+04  0.25500000000E-02 0.  1.
          2   -1    0    0  501    0  0.00000000000E+00 -0.00000000000E+00 -0.31636631206E+04  0.31636631206E+04  0.25500000000E-02 0. -1.
    8880022    1    1    2    0    0 -0.19720177569E+03  0.73609168858E+03 -0.30388019131E+04  0.31366268880E+04  0.15294330000E+03 0.  0.
    8880022    1    1    2    0    0  0.19720177569E+03 -0.73609168858E+03  0.19126008142E+04  0.20644982543E+04  0.15294330000E+03 0.  0.
<mgrwt>
<rscale>  0 0.77724589E+03</rscale>
<asrwt>0</asrwt>
<pdfrwt beam="1">  1        2 0.48671740E+00 0.77724589E+03</pdfrwt>
<pdfrwt beam="2">  1       -2 0.31345570E+00 0.77724589E+03</pdfrwt>
<totfact> 0.39583838E-02</totfact>
</mgrwt>
</event>
<event>
 4    1  0.5387657E-008  0.8597453E+03  0.7818608E-02  0.9477350E-01
         -2   -1    0    0    0  501 -0.00000000000E+00  0.00000000000E+00  0.13336172071E+04  0.13336172071E+04  0.25500000000E-02 0.  1.
          2   -1    0    0  501    0  0.00000000000E+00 -0.00000000000E+00 -0.85764485198E+03  0.85764485198E+03  0.25500000000E-02 0. -1.
    8880022    1    1    2    0    0 -0.81596486915E+03  0.22354332747E+03 -0.41366054346E+03  0.95408437006E+03  0.15294330000E+03 0.  0.
    8880022    1    1    2    0    0  0.81596486915E+03 -0.22354332747E+03  0.88963289856E+03  0.12371776890E+04  0.15294330000E+03 0.  0.
<mgrwt>
<rscale>  0 0.85974528E+03</rscale>
<asrwt>0</asrwt>
<pdfrwt beam="1">  1        2 0.13194536E+00 0.85974528E+03</pdfrwt>
<pdfrwt beam="2">  1       -2 0.20517188E+00 0.85974528E+03</pdfrwt>
<totfact> 0.38912217E+00</totfact>
</mgrwt>
</event>
<event>
 4    1  0.5387657E-008  0.2838012E+03  0.7818608E-02  0.1093631E+00
         -2   -1    0    0    0  501 -0.00000000000E+00  0.00000000000E+00  0.33257735880E+03  0.33257735881E+03  0.25500000000E-02 0.  1.
          2   -1    0    0  501    0  0.00000000000E+00 -0.00000000000E+00 -0.10984720188E+04  0.10984720188E+04  0.25500000000E-02 0. -1.
    8880022    1    1    2    0    0 -0.15998108646E+01 -0.23905833545E+03  0.24879712937E+03  0.37741636390E+03  0.15294330000E+03 0.  0.
    8880022    1    1    2    0    0  0.15998108646E+01  0.23905833545E+03 -0.10146917894E+04  0.10536330137E+04  0.15294330000E+03 0.  0.
<mgrwt>
<rscale>  0 0.28380116E+03</rscale>
<asrwt>0</asrwt>
<pdfrwt beam="1">  1        2 0.16899569E+00 0.28380116E+03</pdfrwt>
<pdfrwt beam="2">  1       -2 0.51165748E-01 0.28380116E+03</pdfrwt>
<totfact> 0.84859280E+01</totfact>
</mgrwt>
</event>
<event>
 4    1  0.5387657E-008  0.3648863E+03  0.7818608E-02  0.1056666E+00
          2   -1    0    0  501    0  0.00000000000E+00  0.00000000000E+00  0.31380513424E+04  0.31380513424E+04  0.25500000000E-02 0. -1.
         -2   -1    0    0    0  501 -0.00000000000E+00 -0.00000000000E+00 -0.42804541609E+03  0.42804541610E+03  0.25500000000E-02 0.  1.
    8880022    1    1    2    0    0 -0.30856845117E+03  0.12056468552E+03  0.30473771340E+04  0.30691447314E+04  0.15294330000E+03 0.  0.
    8880022    1    1    2    0    0  0.30856845117E+03 -0.12056468552E+03 -0.33737120768E+03  0.49695202710E+03  0.15294330000E+03 0.  0.
<mgrwt>
<rscale>  0 0.36488626E+03</rscale>
<asrwt>0</asrwt>
<pdfrwt beam="1">  1        2 0.48277712E+00 0.36488626E+03</pdfrwt>
<pdfrwt beam="2">  1       -2 0.65853142E-01 0.36488626E+03</pdfrwt>
<totfact> 0.36269972E+00</totfact>
</mgrwt>
</event>
<event>
 4    1  0.5387657E-008  0.4375236E+03  0.7818608E-02  0.1031509E+00
          2   -1    0    0  501    0  0.00000000000E+00  0.00000000000E+00  0.42332733088E+03  0.42332733088E+03  0.25500000000E-02 0. -1.
         -2   -1    0    0    0  501 -0.00000000000E+00 -0.00000000000E+00 -0.88060254602E+03  0.88060254603E+03  0.25500000000E-02 0.  1.
    8880022    1    1    2    0    0  0.25680708116E+02  0.40911579001E+03 -0.68337678777E+03  0.81143743782E+03  0.15294330000E+03 0.  0.
    8880022    1    1    2    0    0 -0.25680708116E+02 -0.40911579001E+03  0.22610157263E+03  0.49249243910E+03  0.15294330000E+03 0.  0.
<mgrwt>
<rscale>  0 0.43752358E+03</rscale>
<asrwt>0</asrwt>
<pdfrwt beam="1">  1        2 0.65127282E-01 0.43752358E+03</pdfrwt>
<pdfrwt beam="2">  1       -2 0.13547731E+00 0.43752358E+03</pdfrwt>
<totfact> 0.30410309E+01</totfact>
</mgrwt>
</event>
<event>
 4    1  0.5387657E-008  0.5957470E+03  0.7818608E-02  0.9914269E-01
          2   -1    0    0  501    0  0.00000000000E+00  0.00000000000E+00  0.11734803970E+04  0.11734803970E+04  0.25500000000E-02 0. -1.
         -2   -1    0    0    0  501 -0.00000000000E+00 -0.00000000000E+00 -0.42529264219E+03  0.42529264220E+03  0.25500000000E-02 0.  1.
    8880022    1    1    2    0    0  0.47769128465E+03  0.32145584530E+03 -0.55536017774E+02  0.59832994760E+03  0.15294330000E+03 0.  0.
    8880022    1    1    2    0    0 -0.47769128465E+03 -0.32145584530E+03  0.80372377257E+03  0.10004430916E+04  0.15294330000E+03 0.  0.
<mgrwt>
<rscale>  0 0.59574699E+03</rscale>
<asrwt>0</asrwt>
<pdfrwt beam="1">  1        2 0.18053545E+00 0.59574699E+03</pdfrwt>
<pdfrwt beam="2">  1       -2 0.65429637E-01 0.59574699E+03</pdfrwt>
<totfact> 0.43762437E+01</totfact>
</mgrwt>
</event>
<event>
 4    1  0.5387657E-008  0.2253016E+03  0.7818608E-02  0.1129991E+00
         -2   -1    0    0    0  501 -0.00000000000E+00  0.00000000000E+00  0.26518126760E+03  0.26518126761E+03  0.25500000000E-02 0.  1.
          2   -1    0    0  501    0  0.00000000000E+00 -0.00000000000E+00 -0.56522186788E+03  0.56522186789E+03  0.25500000000E-02 0. -1.
    8880022    1    1    2    0    0  0.15264939600E+03  0.63775662423E+02  0.18763270330E+03  0.29320105317E+03  0.15294330000E+03 0.  1.
    8880022    1    1    2    0    0 -0.15264939600E+03 -0.63775662423E+02 -0.48767330359E+03  0.53720208233E+03  0.15294330000E+03 0.  0.
<mgrwt>
<rscale>  0 0.22530163E+03</rscale>
<asrwt>0</asrwt>
<pdfrwt beam="1">  1        2 0.86957210E-01 0.22530163E+03</pdfrwt>
<pdfrwt beam="2">  1       -2 0.40797118E-01 0.22530163E+03</pdfrwt>
<totfact> 0.31374554E+02</totfact>
</mgrwt>
</event>
<event>
 4    1  0.5387657E-008  0.1698565E+03  0.7818608E-02  0.1177998E+00
          2   -1    0    0  501    0  0.00000000000E+00  0.00000000000E+00  0.26976172861E+04  0.26976172861E+04  0.25500000000E-02 0. -1.
         -2   -1    0    0    0  501 -0.00000000000E+00 -0.00000000000E+00 -0.35161044210E+02  0.35161044303E+02  0.25500000000E-02 0.  1.
    8880022    1    1    2    0    0  0.73648642091E+02  0.59553440928E+01  0.19143858306E+03  0.25592962451E+03  0.15294330000E+03 0.  0.
    8880022    1    1    2    0    0 -0.73648642091E+02 -0.59553440928E+01  0.24710176589E+04  0.24768487059E+04  0.15294330000E+03 0. -1.
<mgrwt>
<rscale>  0 0.16985653E+03</rscale>
<asrwt>0</asrwt>
<pdfrwt beam="1">  1        2 0.41501815E+00 0.16985653E+03</pdfrwt>
<pdfrwt beam="2">  1       -2 0.54093901E-02 0.16985653E+03</pdfrwt>
<totfact> 0.55559569E+02</totfact>
</mgrwt>
</event>
<event>
 4    1  0.5387657E-008  0.1238056E+04  0.7818608E-02  0.9080184E-01
         -2   -1    0    0    0  501 -0.00000000000E+00  0.00000000000E+00  0.11177493041E+04  0.11177493041E+04  0.25500000000E-02 0.  1.
          2   -1    0    0  501    0  0.00000000000E+00 -0.00000000000E+00 -0.25605037946E+04  0.25605037946E+04  0.25500000000E-02 0. -1.
    8880022    1    1    2    0    0 -0.31824118533E+03  0.11866392099E+04 -0.19747350467E+04  0.23307424191E+04  0.15294330000E+03 0.  0.
    8880022    1    1    2    0    0  0.31824118533E+03 -0.11866392099E+04  0.53198055616E+03  0.13475106796E+04  0.15294330000E+03 0.  0.
<mgrwt>
<rscale>  0 0.12380556E+04</rscale>
<asrwt>0</asrwt>
<pdfrwt beam="1">  1        2 0.39392366E+00 0.12380556E+04</pdfrwt>
<pdfrwt beam="2">  1       -2 0.17196143E+00 0.12380556E+04</pdfrwt>
<totfact> 0.64408896E-01</totfact>
</mgrwt>
</event>
<event>
 4    1  0.5387657E-008  0.9300989E+03  0.7818608E-02  0.9388719E-01
         -2   -1    0    0    0  501 -0.00000000000E+00  0.00000000000E+00  0.12143495463E+04  0.12143495463E+04  0.25500000000E-02 0.  1.
          2   -1    0    0  501    0  0.00000000000E+00 -0.00000000000E+00 -0.14412294886E+04  0.14412294887E+04  0.25500000000E-02 0. -1.
    8880022    1    1    2    0    0  0.90597635077E+03  0.14456559937E+03  0.83079525432E+03  0.12471185863E+04  0.15294330000E+03 0.  0.
    8880022    1    1    2    0    0 -0.90597635077E+03 -0.14456559937E+03 -0.10576751967E+04  0.14084604486E+04  0.15294330000E+03 0.  0.
<mgrwt>
<rscale>  0 0.93009893E+03</rscale>
<asrwt>0</asrwt>
<pdfrwt beam="1">  1        2 0.22172761E+00 0.93009893E+03</pdfrwt>
<pdfrwt beam="2">  1       -2 0.18682301E+00 0.93009893E+03</pdfrwt>
<totfact> 0.22358132E+00</totfact>
</mgrwt>
</event>
<event>
 4    1  0.5387657E-008  0.5066131E+03  0.7818608E-02  0.1012067E+00
         -2   -1    0    0    0  501 -0.00000000000E+00  0.00000000000E+00  0.45317757487E+03  0.45317757488E+03  0.25500000000E-02 0.  1.
          2   -1    0    0  501    0  0.00000000000E+00 -0.00000000000E+00 -0.30237110387E+04  0.30237110387E+04  0.25500000000E-02 0. -1.
    8880022    1    1    2    0    0 -0.47455361818E+03  0.89800013326E+02 -0.28524694623E+04  0.28971087078E+04  0.15294330000E+03 0.  0.
    8880022    1    1    2    0    0  0.47455361818E+03 -0.89800013326E+02  0.28193599840E+03  0.57977990577E+03  0.15294330000E+03 0.  1.
<mgrwt>
<rscale>  0 0.50661310E+03</rscale>
<asrwt>0</asrwt>
<pdfrwt beam="1">  1        2 0.46518630E+00 0.50661310E+03</pdfrwt>
<pdfrwt beam="2">  1       -2 0.69719629E-01 0.50661310E+03</pdfrwt>
<totfact> 0.35773385E+00</totfact>
</mgrwt>
</event>
<event>
 4    1  0.5387657E-008  0.1854400E+03  0.7818608E-02  0.1162640E+00
         -2   -1    0    0    0  501 -0.00000000000E+00  0.00000000000E+00  0.10429689956E+04  0.10429689956E+04  0.25500000000E-02 0.  1.
          2   -1    0    0  501    0  0.00000000000E+00 -0.00000000000E+00 -0.51610494893E+03  0.51610494894E+03  0.25500000000E-02 0. -1.
    8880022    1    1    2    0    0  0.65261786779E+01  0.10466013420E+03  0.10176578040E+04  0.10344154841E+04  0.15294330000E+03 0.  0.
    8880022    1    1    2    0    0 -0.65261786779E+01 -0.10466013420E+03 -0.49079375741E+03  0.52465846036E+03  0.15294330000E+03 0. -1.
<mgrwt>
<rscale>  0 0.18543998E+03</rscale>
<asrwt>0</asrwt>
<pdfrwt beam="1">  1        2 0.79400762E-01 0.18543998E+03</pdfrwt>
<pdfrwt beam="2">  1       -2 0.16045677E+00 0.18543998E+03</pdfrwt>
<totfact> 0.16600140E+01</totfact>
</mgrwt>
</event>
<event>
 4    1  0.5387657E-008  0.3789997E+03  0.7818608E-02  0.1051304E+00
         -2   -1    0    0    0  501 -0.00000000000E+00  0.00000000000E+00  0.18501207957E+03  0.18501207958E+03  0.25500000000E-02 0.  1.
          2   -1    0    0  501    0  0.00000000000E+00 -0.00000000000E+00 -0.83922981534E+03  0.83922981534E+03  0.25500000000E-02 0. -1.
    8880022    1    1    2    0    0 -0.13036245778E+03  0.32133273424E+03 -0.18696823110E+03  0.42260841089E+03  0.15294330000E+03 0. -1.
    8880022    1    1    2    0    0  0.13036245778E+03 -0.32133273424E+03 -0.46724950467E+03  0.60163348404E+03  0.15294330000E+03 0.  1.
<mgrwt>
<rscale>  0 0.37899967E+03</rscale>
<asrwt>0</asrwt>
<pdfrwt beam="1">  1        2 0.12911228E+00 0.37899967E+03</pdfrwt>
<pdfrwt beam="2">  1       -2 0.28463397E-01 0.37899967E+03</pdfrwt>
<totfact> 0.37462206E+02</totfact>
</mgrwt>
</event>
<event>
 4    1  0.5387657E-008  0.5205569E+03  0.7818608E-02  0.1008548E+00
         -2   -1    0    0    0  501 -0.00000000000E+00  0.00000000000E+00  0.70893706336E+03  0.70893706336E+03  0.25500000000E-02 0.  1.
          2   -1    0    0  501    0  0.00000000000E+00 -0.00000000000E+00 -0.15229067527E+04  0.15229067527E+04  0.25500000000E-02 0. -1.
    8880022    1    1    2    0    0 -0.41107695042E+03  0.28036321914E+03 -0.13727639153E+04  0.14681485667E+04  0.15294330000E+03 0.  0.
    8880022    1    1    2    0    0  0.41107695042E+03 -0.28036321914E+03  0.55879422599E+03  0.76369524931E+03  0.15294330000E+03 0.  1.
<mgrwt>
<rscale>  0 0.52055686E+03</rscale>
<asrwt>0</asrwt>
<pdfrwt beam="1">  1        2 0.23429335E+00 0.52055686E+03</pdfrwt>
<pdfrwt beam="2">  1       -2 0.10906724E+00 0.52055686E+03</pdfrwt>
<totfact> 0.88066218E+00</totfact>
</mgrwt>
</event>
<event>
 4    1  0.5387657E-008  0.1914421E+03  0.7818608E-02  0.1157167E+00
         -2   -1    0    0    0  501 -0.00000000000E+00  0.00000000000E+00  0.11539855079E+03  0.11539855082E+03  0.25500000000E-02 0.  1.
          2   -1    0    0  501    0  0.00000000000E+00 -0.00000000000E+00 -0.18469751681E+04  0.18469751681E+04  0.25500000000E-02 0. -1.
    8880022    1    1    2    0    0 -0.52211274469E+02  0.10262753333E+03  0.27062355706E+02  0.19334542118E+03  0.15294330000E+03 0.  1.
    8880022    1    1    2    0    0  0.52211274469E+02 -0.10262753333E+03 -0.17586389730E+04  0.17690282978E+04  0.15294330000E+03 0.  0.
<mgrwt>
<rscale>  0 0.19144211E+03</rscale>
<asrwt>0</asrwt>
<pdfrwt beam="1">  1        2 0.28415000E+00 0.19144211E+03</pdfrwt>
<pdfrwt beam="2">  1       -2 0.17753625E-01 0.19144211E+03</pdfrwt>
<totfact> 0.23673559E+02</totfact>
</mgrwt>
</event>
<event>
 4    1  0.5387657E-008  0.7264181E+03  0.7818608E-02  0.9673091E-01
          2   -1    0    0  501    0  0.00000000000E+00  0.00000000000E+00  0.11201830689E+04  0.11201830689E+04  0.25500000000E-02 0. -1.
         -2   -1    0    0    0  501 -0.00000000000E+00 -0.00000000000E+00 -0.80926207627E+03  0.80926207627E+03  0.25500000000E-02 0.  1.
    8880022    1    1    2    0    0 -0.60882156474E+03  0.36555154586E+03  0.77910964866E+03  0.10652206945E+04  0.15294330000E+03 0.  0.
    8880022    1    1    2    0    0  0.60882156474E+03 -0.36555154586E+03 -0.46818865606E+03  0.86422445062E+03  0.15294330000E+03 0.  0.
<mgrwt>
<rscale>  0 0.72641812E+03</rscale>
<asrwt>0</asrwt>
<pdfrwt beam="1">  1        2 0.17233586E+00 0.72641812E+03</pdfrwt>
<pdfrwt beam="2">  1       -2 0.12450186E+00 0.72641812E+03</pdfrwt>
<totfact> 0.10476435E+01</totfact>
</mgrwt>
</event>
<event>
 4    1  0.5387657E-008  0.5315920E+03  0.7818608E-02  0.1005847E+00
          2   -1    0    0  501    0  0.00000000000E+00  0.00000000000E+00  0.12616397195E+04  0.12616397195E+04  0.25500000000E-02 0. -1.
         -2   -1    0    0    0  501 -0.00000000000E+00 -0.00000000000E+00 -0.47835727923E+03  0.47835727924E+03  0.25500000000E-02 0.  1.
    8880022    1    1    2    0    0 -0.17770923566E+03 -0.47709312420E+03 -0.24277758702E+03  0.58440656342E+03  0.15294330000E+03 0.  0.
    8880022    1    1    2    0    0  0.17770923566E+03  0.47709312420E+03  0.10260600273E+04  0.11555904353E+04  0.15294330000E+03 0.  0.
<mgrwt>
<rscale>  0 0.53159202E+03</rscale>
<asrwt>0</asrwt>
<pdfrwt beam="1">  1        2 0.19409842E+00 0.53159202E+03</pdfrwt>
<pdfrwt beam="2">  1       -2 0.73593427E-01 0.53159202E+03</pdfrwt>
<totfact> 0.30385824E+01</totfact>
</mgrwt>
</event>
<event>
 4    1  0.5387657E-008  0.4388143E+03  0.7818608E-02  0.1031111E+00
          2   -1    0    0  501    0  0.00000000000E+00  0.00000000000E+00  0.53408983571E+03  0.53408983572E+03  0.25500000000E-02 0. -1.
         -2   -1    0    0    0  501 -0.00000000000E+00 -0.00000000000E+00 -0.42607651064E+03  0.42607651065E+03  0.25500000000E-02 0.  1.
    8880022    1    1    2    0    0  0.22125678915E+03 -0.34671568866E+03 -0.13428516574E+03  0.45890139928E+03  0.15294330000E+03 0.  0.
    8880022    1    1    2    0    0 -0.22125678915E+03  0.34671568866E+03  0.24229849082E+03  0.50126494709E+03  0.15294330000E+03 0.  0.
<mgrwt>
<rscale>  0 0.43881430E+03</rscale>
<asrwt>0</asrwt>
<pdfrwt beam="1">  1        2 0.82167667E-01 0.43881430E+03</pdfrwt>
<pdfrwt beam="2">  1       -2 0.65550232E-01 0.43881430E+03</pdfrwt>
<totfact> 0.12599385E+02</totfact>
</mgrwt>
</event>
<event>
 4    1  0.5387657E-008  0.1285526E+04  0.7818608E-02  0.9041123E-01
         -2   -1    0    0    0  501 -0.00000000000E+00  0.00000000000E+00  0.76969918495E+03  0.76969918495E+03  0.25500000000E-02 0.  1.
          2   -1    0    0  501    0  0.00000000000E+00 -0.00000000000E+00 -0.27588742544E+04  0.27588742544E+04  0.25500000000E-02 0. -1.
    8880022    1    1    2    0    0 -0.94608418597E+03 -0.85680178472E+03 -0.18254315699E+04  0.22326613390E+04  0.15294330000E+03 0.  0.
    8880022    1    1    2    0    0  0.94608418597E+03  0.85680178472E+03 -0.16374349958E+03  0.12959121004E+04  0.15294330000E+03 0.  0.
<mgrwt>
<rscale>  0 0.12855257E+04</rscale>
<asrwt>0</asrwt>
<pdfrwt beam="1">  1        2 0.42444219E+00 0.12855257E+04</pdfrwt>
<pdfrwt beam="2">  1       -2 0.11841526E+00 0.12855257E+04</pdfrwt>
<totfact> 0.13087003E+00</totfact>
</mgrwt>
</event>
<event>
 4    1  0.5387657E-008  0.2824568E+03  0.7818608E-02  0.1094355E+00
          2   -1    0    0  501    0  0.00000000000E+00  0.00000000000E+00  0.11947822074E+04  0.11947822074E+04  0.25500000000E-02 0. -1.
         -2   -1    0    0    0  501 -0.00000000000E+00 -0.00000000000E+00 -0.89448898579E+02  0.89448898615E+02  0.25500000000E-02 0.  1.
    8880022    1    1    2    0    0  0.23082273430E+03 -0.55776634162E+02  0.22938066965E+03  0.36386441460E+03  0.15294330000E+03 0.  0.
    8880022    1    1    2    0    0 -0.23082273430E+03  0.55776634162E+02  0.87595263914E+03  0.92036669138E+03  0.15294330000E+03 0. -1.
<mgrwt>
<rscale>  0 0.28245676E+03</rscale>
<asrwt>0</asrwt>
<pdfrwt beam="1">  1        2 0.18381264E+00 0.28245676E+03</pdfrwt>
<pdfrwt beam="2">  1       -2 0.13761369E-01 0.28245676E+03</pdfrwt>
<totfact> 0.79621211E+02</totfact>
</mgrwt>
</event>
<event>
 4    1  0.5387657E-008  0.1186915E+04  0.7818608E-02  0.9124388E-01
         -2   -1    0    0    0  501 -0.00000000000E+00  0.00000000000E+00  0.59068840035E+03  0.59068840036E+03  0.25500000000E-02 0.  1.
          2   -1    0    0  501    0  0.00000000000E+00 -0.00000000000E+00 -0.32721763661E+04  0.32721763661E+04  0.25500000000E-02 0. -1.
    8880022    1    1    2    0    0 -0.60663318323E+03 -0.10086478997E+04 -0.33502460067E+03  0.12332913446E+04  0.15294330000E+03 0.  0.
    8880022    1    1    2    0    0  0.60663318323E+03  0.10086478997E+04 -0.23464633651E+04  0.26295734219E+04  0.15294330000E+03 0.  0.
<mgrwt>
<rscale>  0 0.11869145E+04</rscale>
<asrwt>0</asrwt>
<pdfrwt beam="1">  1        2 0.50341173E+00 0.11869145E+04</pdfrwt>
<pdfrwt beam="2">  1       -2 0.90875141E-01 0.11869145E+04</pdfrwt>
<totfact> 0.11997262E+00</totfact>
</mgrwt>
</event>
<event>
 4    1  0.5387657E-008  0.7554295E+03  0.7818608E-02  0.9626871E-01
         -2   -1    0    0    0  501 -0.00000000000E+00  0.00000000000E+00  0.86798736280E+03  0.86798736280E+03  0.25500000000E-02 0.  1.
          2   -1    0    0  501    0  0.00000000000E+00 -0.00000000000E+00 -0.14619642113E+04  0.14619642113E+04  0.25500000000E-02 0. -1.
    8880022    1    1    2    0    0  0.60892883853E+03 -0.42010441670E+03  0.56720428016E+03  0.94466629016E+03  0.15294330000E+03 0.  0.
    8880022    1    1    2    0    0 -0.60892883853E+03  0.42010441670E+03 -0.11611811287E+04  0.13852852840E+04  0.15294330000E+03 0.  0.
<mgrwt>
<rscale>  0 0.75542948E+03</rscale>
<asrwt>0</asrwt>
<pdfrwt beam="1">  1        2 0.22491757E+00 0.75542948E+03</pdfrwt>
<pdfrwt beam="2">  1       -2 0.13353652E+00 0.75542948E+03</pdfrwt>
<totfact> 0.55414636E+00</totfact>
</mgrwt>
</event>
<event>
 4    1  0.5387657E-008  0.4543980E+03  0.7818608E-02  0.1026419E+00
          2   -1    0    0  501    0  0.00000000000E+00  0.00000000000E+00  0.43551603224E+03  0.43551603225E+03  0.25500000000E-02 0. -1.
         -2   -1    0    0    0  501 -0.00000000000E+00 -0.00000000000E+00 -0.60934165525E+03  0.60934165525E+03  0.25500000000E-02 0.  1.
    8880022    1    1    2    0    0  0.22589395334E+02  0.42728868133E+03 -0.33303692402E+03  0.56337478089E+03  0.15294330000E+03 0.  1.
    8880022    1    1    2    0    0 -0.22589395334E+02 -0.42728868133E+03  0.15921130102E+03  0.48148290661E+03  0.15294330000E+03 0. -1.
<mgrwt>
<rscale>  0 0.45439801E+03</rscale>
<asrwt>0</asrwt>
<pdfrwt beam="1">  1        2 0.67002466E-01 0.45439801E+03</pdfrwt>
<pdfrwt beam="2">  1       -2 0.93744871E-01 0.45439801E+03</pdfrwt>
<totfact> 0.71680273E+01</totfact>
</mgrwt>
</event>
<event>
 4    1  0.5387657E-008  0.5832507E+03  0.7818608E-02  0.9940778E-01
          2   -1    0    0  501    0  0.00000000000E+00  0.00000000000E+00  0.14258206037E+04  0.14258206037E+04  0.25500000000E-02 0. -1.
         -2   -1    0    0    0  501 -0.00000000000E+00 -0.00000000000E+00 -0.49037957872E+03  0.49037957873E+03  0.25500000000E-02 0.  1.
    8880022    1    1    2    0    0 -0.54265365388E+03  0.14938790465E+03 -0.21882081339E+03  0.62294777912E+03  0.15294330000E+03 0.  0.
    8880022    1    1    2    0    0  0.54265365388E+03 -0.14938790465E+03  0.11542618383E+04  0.12932524033E+04  0.15294330000E+03 0.  0.
<mgrwt>
<rscale>  0 0.58325071E+03</rscale>
<asrwt>0</asrwt>
<pdfrwt beam="1">  1        2 0.21935701E+00 0.58325071E+03</pdfrwt>
<pdfrwt beam="2">  1       -2 0.75443013E-01 0.58325071E+03</pdfrwt>
<totfact> 0.23047099E+01</totfact>
</mgrwt>
</event>
<event>
 4    1  0.5387657E-008  0.3210341E+03  0.7818608E-02  0.1075174E+00
         -2   -1    0    0    0  501 -0.00000000000E+00  0.00000000000E+00  0.20162104443E+03  0.20162104445E+03  0.25500000000E-02 0.  1.
          2   -1    0    0  501    0  0.00000000000E+00 -0.00000000000E+00 -0.17064536713E+04  0.17064536713E+04  0.25500000000E-02 0. -1.
    8880022    1    1    2    0    0  0.25867337643E+03 -0.11295710828E+03 -0.15508767468E+04  0.15837555243E+04  0.15294330000E+03 0. -1.
    8880022    1    1    2    0    0 -0.25867337643E+03  0.11295710828E+03  0.46044119878E+02  0.32431919150E+03  0.15294330000E+03 0.  0.
<mgrwt>
<rscale>  0 0.32103407E+03</rscale>
<asrwt>0</asrwt>
<pdfrwt beam="1">  1        2 0.26253132E+00 0.32103407E+03</pdfrwt>
<pdfrwt beam="2">  1       -2 0.31018623E-01 0.32103407E+03</pdfrwt>
<totfact> 0.10180699E+02</totfact>
</mgrwt>
</event>
<event>
 4    1  0.5387657E-008  0.5071906E+03  0.7818608E-02  0.1011919E+00
         -2   -1    0    0    0  501 -0.00000000000E+00  0.00000000000E+00  0.43472806512E+03  0.43472806513E+03  0.25500000000E-02 0.  1.
          2   -1    0    0  501    0  0.00000000000E+00 -0.00000000000E+00 -0.11377718113E+04  0.11377718113E+04  0.25500000000E-02 0. -1.
    8880022    1    1    2    0    0 -0.11897481688E+02  0.48343466398E+03 -0.89620685848E+03  0.10297713390E+04  0.15294330000E+03 0.  0.
    8880022    1    1    2    0    0  0.11897481688E+02 -0.48343466398E+03  0.19316311229E+03  0.54272853746E+03  0.15294330000E+03 0.  0.
<mgrwt>
<rscale>  0 0.50719057E+03</rscale>
<asrwt>0</asrwt>
<pdfrwt beam="1">  1        2 0.17504182E+00 0.50719057E+03</pdfrwt>
<pdfrwt beam="2">  1       -2 0.66881242E-01 0.50719057E+03</pdfrwt>
<totfact> 0.44347016E+01</totfact>
</mgrwt>
</event>
<event>
 4    1  0.5387657E-008  0.5213911E+03  0.7818608E-02  0.1008342E+00
          2   -1    0    0  501    0  0.00000000000E+00  0.00000000000E+00  0.97595243578E+03  0.97595243578E+03  0.25500000000E-02 0. -1.
         -2   -1    0    0    0  501 -0.00000000000E+00 -0.00000000000E+00 -0.33108503124E+03  0.33108503124E+03  0.25500000000E-02 0.  1.
    8880022    1    1    2    0    0  0.19625794793E+03  0.45819193666E+03  0.62103294021E+02  0.52507666592E+03  0.15294330000E+03 0.  0.
    8880022    1    1    2    0    0 -0.19625794793E+03 -0.45819193666E+03  0.58276411052E+03  0.78196080111E+03  0.15294330000E+03 0. -1.
<mgrwt>
<rscale>  0 0.52139111E+03</rscale>
<asrwt>0</asrwt>
<pdfrwt beam="1">  1        2 0.15014653E+00 0.52139111E+03</pdfrwt>
<pdfrwt beam="2">  1       -2 0.50936159E-01 0.52139111E+03</pdfrwt>
<totfact> 0.98335945E+01</totfact>
</mgrwt>
</event>
<event>
 4    1  0.5387657E-008  0.1542382E+03  0.7818608E-02  0.1195360E+00
          2   -1    0    0  501    0  0.00000000000E+00  0.00000000000E+00  0.45637202195E+03  0.45637202195E+03  0.25500000000E-02 0. -1.
         -2   -1    0    0    0  501 -0.00000000000E+00 -0.00000000000E+00 -0.15752580518E+03  0.15752580520E+03  0.25500000000E-02 0.  1.
    8880022    1    1    2    0    0 -0.55732370591E+01  0.19149729199E+02  0.40050046103E+03  0.42917367743E+03  0.15294330000E+03 0. -1.
    8880022    1    1    2    0    0  0.55732370591E+01 -0.19149729199E+02 -0.10165424427E+03  0.18472414973E+03  0.15294330000E+03 0.  0.
<mgrwt>
<rscale>  0 0.15423821E+03</rscale>
<asrwt>0</asrwt>
<pdfrwt beam="1">  1        2 0.70211081E-01 0.15423821E+03</pdfrwt>
<pdfrwt beam="2">  1       -2 0.24234739E-01 0.15423821E+03</pdfrwt>
<totfact> 0.10318467E+03</totfact>
</mgrwt>
</event>
<event>
 4    1  0.5387657E-008  0.7819283E+03  0.7818608E-02  0.9586550E-01
         -2   -1    0    0    0  501 -0.00000000000E+00  0.00000000000E+00  0.13055662136E+04  0.13055662136E+04  0.25500000000E-02 0.  1.
          2   -1    0    0  501    0  0.00000000000E+00 -0.00000000000E+00 -0.91421678452E+03  0.91421678452E+03  0.25500000000E-02 0. -1.
    8880022    1    1    2    0    0 -0.87594408012E+02 -0.76180535307E+03 -0.57945998832E+03  0.97323466202E+03  0.15294330000E+03 0.  0.
    8880022    1    1    2    0    0  0.87594408012E+02  0.76180535307E+03  0.97080941736E+03  0.12465483361E+04  0.15294330000E+03 0.  0.
<mgrwt>
<rscale>  0 0.78192828E+03</rscale>
<asrwt>0</asrwt>
<pdfrwt beam="1">  1        2 0.14064874E+00 0.78192828E+03</pdfrwt>
<pdfrwt beam="2">  1       -2 0.20085634E+00 0.78192828E+03</pdfrwt>
<totfact> 0.38360246E+00</totfact>
</mgrwt>
</event>
<event>
 4    1  0.5387657E-008  0.4380119E+03  0.7818608E-02  0.1031359E+00
         -2   -1    0    0    0  501 -0.00000000000E+00  0.00000000000E+00  0.48031678088E+03  0.48031678089E+03  0.25500000000E-02 0.  1.
          2   -1    0    0  501    0  0.00000000000E+00 -0.00000000000E+00 -0.13166446519E+04  0.13166446519E+04  0.25500000000E-02 0. -1.
    8880022    1    1    2    0    0 -0.18087455834E+03  0.36843877959E+03  0.33174623270E+03  0.54946333461E+03  0.15294330000E+03 0.  1.
    8880022    1    1    2    0    0  0.18087455834E+03 -0.36843877959E+03 -0.11680741037E+04  0.12474980981E+04  0.15294330000E+03 0.  0.
<mgrwt>
<rscale>  0 0.43801186E+03</rscale>
<asrwt>0</asrwt>
<pdfrwt beam="1">  1        2 0.20256072E+00 0.43801186E+03</pdfrwt>
<pdfrwt beam="2">  1       -2 0.73894890E-01 0.43801186E+03</pdfrwt>
<totfact> 0.28467796E+01</totfact>
</mgrwt>
</event>
<event>
 4    1  0.5387657E-008  0.5531644E+03  0.7818608E-02  0.1000764E+00
         -2   -1    0    0    0  501 -0.00000000000E+00  0.00000000000E+00  0.42796350128E+03  0.42796350129E+03  0.25500000000E-02 0.  1.
          2   -1    0    0  501    0  0.00000000000E+00 -0.00000000000E+00 -0.76770858707E+03  0.76770858708E+03  0.25500000000E-02 0. -1.
    8880022    1    1    2    0    0  0.11859634931E+03 -0.51820272536E+03 -0.32653118015E+03  0.64234992276E+03  0.15294330000E+03 0.  0.
    8880022    1    1    2    0    0 -0.11859634931E+03  0.51820272536E+03 -0.13213905637E+02  0.55332216561E+03  0.15294330000E+03 0.  0.
<mgrwt>
<rscale>  0 0.55316436E+03</rscale>
<asrwt>0</asrwt>
<pdfrwt beam="1">  1        2 0.11810901E+00 0.55316436E+03</pdfrwt>
<pdfrwt beam="2">  1       -2 0.65840539E-01 0.55316436E+03</pdfrwt>
<totfact> 0.79467075E+01</totfact>
</mgrwt>
</event>
<event>
 4    1  0.5387657E-008  0.9892896E+03  0.7818608E-02  0.9320370E-01
          2   -1    0    0  501    0  0.00000000000E+00  0.00000000000E+00  0.24175516599E+04  0.24175516599E+04  0.25500000000E-02 0. -1.
         -2   -1    0    0    0  501 -0.00000000000E+00 -0.00000000000E+00 -0.82674729448E+03  0.82674729448E+03  0.25500000000E-02 0.  1.
    8880022    1    1    2    0    0  0.47298681117E+03 -0.85532786732E+03 -0.36342557361E+03  0.10539317268E+04  0.15294330000E+03 0.  0.
    8880022    1    1    2    0    0 -0.47298681117E+03  0.85532786732E+03  0.19542299391E+04  0.21903672276E+04  0.15294330000E+03 0. -1.
<mgrwt>
<rscale>  0 0.98928961E+03</rscale>
<asrwt>0</asrwt>
<pdfrwt beam="1">  1        2 0.37193102E+00 0.98928961E+03</pdfrwt>
<pdfrwt beam="2">  1       -2 0.12719189E+00 0.98928961E+03</pdfrwt>
<totfact> 0.17947823E+00</totfact>
</mgrwt>
</event>
<event>
 4    1  0.5387657E-008  0.8994864E+03  0.7818608E-02  0.9426224E-01
          2   -1    0    0  501    0  0.00000000000E+00  0.00000000000E+00  0.30171143235E+04  0.30171143235E+04  0.25500000000E-02 0. -1.
         -2   -1    0    0    0  501 -0.00000000000E+00 -0.00000000000E+00 -0.49936300905E+03  0.49936300905E+03  0.25500000000E-02 0.  1.
    8880022    1    1    2    0    0  0.88540809993E+03 -0.41671851516E+02  0.62508684483E+02  0.90165571882E+03  0.15294330000E+03 0.  0.
    8880022    1    1    2    0    0 -0.88540809993E+03  0.41671851516E+02  0.24552426300E+04  0.26148216138E+04  0.15294330000E+03 0.  0.
<mgrwt>
<rscale>  0 0.89948635E+03</rscale>
<asrwt>0</asrwt>
<pdfrwt beam="1">  1        2 0.46417143E+00 0.89948635E+03</pdfrwt>
<pdfrwt beam="2">  1       -2 0.76825079E-01 0.89948635E+03</pdfrwt>
<totfact> 0.26699047E+00</totfact>
</mgrwt>
</event>
<event>
 4    1  0.5387657E-008  0.2436185E+03  0.7818608E-02  0.1117405E+00
         -2   -1    0    0    0  501 -0.00000000000E+00  0.00000000000E+00  0.12866096049E+04  0.12866096049E+04  0.25500000000E-02 0.  1.
          2   -1    0    0  501    0  0.00000000000E+00 -0.00000000000E+00 -0.13194179778E+03  0.13194179780E+03  0.25500000000E-02 0. -1.
    8880022    1    1    2    0    0 -0.18765865375E+03  0.27249884599E+02  0.11493391112E+04  0.11748746197E+04  0.15294330000E+03 0.  0.
    8880022    1    1    2    0    0  0.18765865375E+03 -0.27249884599E+02  0.53286959139E+01  0.24367678296E+03  0.15294330000E+03 0.  0.
<mgrwt>
<rscale>  0 0.24361851E+03</rscale>
<asrwt>0</asrwt>
<pdfrwt beam="1">  1        2 0.20298739E-01 0.24361851E+03</pdfrwt>
<pdfrwt beam="2">  1       -2 0.19793993E+00 0.24361851E+03</pdfrwt>
<totfact> 0.40895586E+01</totfact>
</mgrwt>
</event>
<event>
 4    1  0.5387657E-008  0.4320252E+03  0.7818608E-02  0.1033222E+00
         -2   -1    0    0    0  501 -0.00000000000E+00  0.00000000000E+00  0.10243884614E+04  0.10243884614E+04  0.25500000000E-02 0.  1.
          2   -1    0    0  501    0  0.00000000000E+00 -0.00000000000E+00 -0.42983250244E+03  0.42983250245E+03  0.25500000000E-02 0. -1.
    8880022    1    1    2    0    0  0.24644680207E+03  0.32018441697E+03 -0.25461230834E+03  0.50147100384E+03  0.15294330000E+03 0.  0.
    8880022    1    1    2    0    0 -0.24644680207E+03 -0.32018441697E+03  0.84916826734E+03  0.95274996006E+03  0.15294330000E+03 0.  0.
<mgrwt>
<rscale>  0 0.43202516E+03</rscale>
<asrwt>0</asrwt>
<pdfrwt beam="1">  1        2 0.66128078E-01 0.43202516E+03</pdfrwt>
<pdfrwt beam="2">  1       -2 0.15759822E+00 0.43202516E+03</pdfrwt>
<totfact> 0.20196410E+01</totfact>
</mgrwt>
</event>
<event>
 4    1  0.5387657E-008  0.2979292E+03  0.7818608E-02  0.1086280E+00
         -2   -1    0    0    0  501 -0.00000000000E+00  0.00000000000E+00  0.32999412513E+03  0.32999412514E+03  0.25500000000E-02 0.  1.
          2   -1    0    0  501    0  0.00000000000E+00 -0.00000000000E+00 -0.21342867134E+04  0.21342867134E+04  0.25500000000E-02 0. -1.
    8880022    1    1    2    0    0  0.17593634674E+03 -0.18551695769E+03  0.24973827457E+03  0.38875570542E+03  0.15294330000E+03 0.  1.
    8880022    1    1    2    0    0 -0.17593634674E+03  0.18551695769E+03 -0.20540308629E+04  0.20755251332E+04  0.15294330000E+03 0.  0.
<mgrwt>
<rscale>  0 0.29792917E+03</rscale>
<asrwt>0</asrwt>
<pdfrwt beam="1">  1        2 0.32835179E+00 0.29792917E+03</pdfrwt>
<pdfrwt beam="2">  1       -2 0.50768328E-01 0.29792917E+03</pdfrwt>
<totfact> 0.23617581E+01</totfact>
</mgrwt>
</event>
<event>
 4    1  0.5387657E-008  0.1524224E+04  0.7818608E-02  0.8868502E-01
         -2   -1    0    0    0  501 -0.00000000000E+00  0.00000000000E+00  0.96144376823E+03  0.96144376823E+03  0.25500000000E-02 0.  1.
          2   -1    0    0  501    0  0.00000000000E+00 -0.00000000000E+00 -0.33343109860E+04  0.33343109860E+04  0.25500000000E-02 0. -1.
    8880022    1    1    2    0    0  0.15157445853E+04 -0.48832139682E+02 -0.59494305210E+02  0.15253843618E+04  0.15294330000E+03 0.  0.
    8880022    1    1    2    0    0 -0.15157445853E+04  0.48832139682E+02 -0.23133729125E+04  0.27703703924E+04  0.15294330000E+03 0.  0.
<mgrwt>
<rscale>  0 0.15242237E+04</rscale>
<asrwt>0</asrwt>
<pdfrwt beam="1">  1        2 0.51297092E+00 0.15242237E+04</pdfrwt>
<pdfrwt beam="2">  1       -2 0.14791443E+00 0.15242237E+04</pdfrwt>
<totfact> 0.31156879E-01</totfact>
</mgrwt>
</event>
<event>
 4    1  0.5387657E-008  0.2075577E+03  0.7818608E-02  0.1143515E+00
          2   -1    0    0  501    0  0.00000000000E+00  0.00000000000E+00  0.63065761183E+03  0.63065761183E+03  0.25500000000E-02 0. -1.
         -2   -1    0    0    0  501 -0.00000000000E+00 -0.00000000000E+00 -0.80861976779E+02  0.80861976819E+02  0.25500000000E-02 0.  1.
    8880022    1    1    2    0    0 -0.99480190659E+02  0.98955675642E+02  0.13473213530E+03  0.24745289526E+03  0.15294330000E+03 0.  1.
    8880022    1    1    2    0    0  0.99480190659E+02 -0.98955675642E+02  0.41506349975E+03  0.46406669339E+03  0.15294330000E+03 0. -1.
<mgrwt>
<rscale>  0 0.20755767E+03</rscale>
<asrwt>0</asrwt>
<pdfrwt beam="1">  1        2 0.97024247E-01 0.20755767E+03</pdfrwt>
<pdfrwt beam="2">  1       -2 0.12440304E-01 0.20755767E+03</pdfrwt>
<totfact> 0.22024189E+03</totfact>
</mgrwt>
</event>
<event>
 4    1  0.5387657E-008  0.2322505E+03  0.7818608E-02  0.1125066E+00
         -2   -1    0    0    0  501 -0.00000000000E+00  0.00000000000E+00  0.13195171175E+03  0.13195171177E+03  0.25500000000E-02 0.  1.
          2   -1    0    0  501    0  0.00000000000E+00 -0.00000000000E+00 -0.73842400003E+03  0.73842400004E+03  0.25500000000E-02 0. -1.
    8880022    1    1    2    0    0 -0.16922979247E+03 -0.43702533931E+02 -0.59400047557E+03  0.63779060210E+03  0.15294330000E+03 0.  0.
    8880022    1    1    2    0    0  0.16922979247E+03  0.43702533931E+02 -0.12471812714E+02  0.23258510971E+03  0.15294330000E+03 0.  1.
<mgrwt>
<rscale>  0 0.23225048E+03</rscale>
<asrwt>0</asrwt>
<pdfrwt beam="1">  1        2 0.11360369E+00 0.23225048E+03</pdfrwt>
<pdfrwt beam="2">  1       -2 0.20300264E-01 0.23225048E+03</pdfrwt>
<totfact> 0.80748569E+02</totfact>
</mgrwt>
</event>
<event>
 4    1  0.5387657E-008  0.4569305E+03  0.7818608E-02  0.1025675E+00
         -2   -1    0    0    0  501 -0.00000000000E+00  0.00000000000E+00  0.67468284646E+03  0.67468284647E+03  0.25500000000E-02 0.  1.
          2   -1    0    0  501    0  0.00000000000E+00 -0.00000000000E+00 -0.96917638069E+03  0.96917638069E+03  0.25500000000E-02 0. -1.
    8880022    1    1    2    0    0 -0.39769343371E+03  0.16502649515E+03 -0.82537647849E+03  0.94341496467E+03  0.15294330000E+03 0. -1.
    8880022    1    1    2    0    0  0.39769343371E+03 -0.16502649515E+03  0.53088294427E+03  0.70044426248E+03  0.15294330000E+03 0.  0.
<mgrwt>
<rscale>  0 0.45693048E+03</rscale>
<asrwt>0</asrwt>
<pdfrwt beam="1">  1        2 0.14910406E+00 0.45693048E+03</pdfrwt>
<pdfrwt beam="2">  1       -2 0.10379736E+00 0.45693048E+03</pdfrwt>
<totfact> 0.21048614E+01</totfact>
</mgrwt>
</event>
<event>
 4    1  0.5387657E-008  0.1407558E+04  0.7818608E-02  0.8948366E-01
         -2   -1    0    0    0  501 -0.00000000000E+00  0.00000000000E+00  0.13827553203E+04  0.13827553203E+04  0.25500000000E-02 0.  1.
          2   -1    0    0  501    0  0.00000000000E+00 -0.00000000000E+00 -0.18989582612E+04  0.18989582613E+04  0.25500000000E-02 0. -1.
    8880022    1    1    2    0    0  0.95578327475E+03  0.10219133250E+04 -0.10710758354E+04  0.17687350311E+04  0.15294330000E+03 0.  0.
    8880022    1    1    2    0    0 -0.95578327475E+03 -0.10219133250E+04  0.55487289446E+03  0.15129785504E+04  0.15294330000E+03 0.  0.
<mgrwt>
<rscale>  0 0.14075582E+04</rscale>
<asrwt>0</asrwt>
<pdfrwt beam="1">  1        2 0.29214742E+00 0.14075582E+04</pdfrwt>
<pdfrwt beam="2">  1       -2 0.21273159E+00 0.14075582E+04</pdfrwt>
<totfact> 0.79264908E-01</totfact>
</mgrwt>
</event>
<event>
 4    1  0.5387657E-008  0.5384831E+03  0.7818608E-02  0.1004195E+00
         -2   -1    0    0    0  501 -0.00000000000E+00  0.00000000000E+00  0.14587598790E+04  0.14587598791E+04  0.25500000000E-02 0.  1.
          2   -1    0    0  501    0  0.00000000000E+00 -0.00000000000E+00 -0.42783991916E+03  0.42783991916E+03  0.25500000000E-02 0. -1.
    8880022    1    1    2    0    0 -0.48988876497E+03 -0.16303808807E+03 -0.17476238384E+03  0.56613246155E+03  0.15294330000E+03 0.  0.
    8880022    1    1    2    0    0  0.48988876497E+03  0.16303808807E+03  0.12056823437E+04  0.13204673367E+04  0.15294330000E+03 0.  1.
<mgrwt>
<rscale>  0 0.53848312E+03</rscale>
<asrwt>0</asrwt>
<pdfrwt beam="1">  1        2 0.65821527E-01 0.53848312E+03</pdfrwt>
<pdfrwt beam="2">  1       -2 0.22442459E+00 0.53848312E+03</pdfrwt>
<totfact> 0.71895495E+00</totfact>
</mgrwt>
</event>
<event>
 4    1  0.5387657E-008  0.9523768E+03  0.7818608E-02  0.9362377E-01
         -2   -1    0    0    0  501 -0.00000000000E+00  0.00000000000E+00  0.89782492262E+03  0.89782492263E+03  0.25500000000E-02 0.  1.
          2   -1    0    0  501    0  0.00000000000E+00 -0.00000000000E+00 -0.30125504700E+04  0.30125504700E+04  0.25500000000E-02 0. -1.
    8880022    1    1    2    0    0 -0.19170042123E+03  0.92026128298E+03 -0.26513566577E+04  0.28172173611E+04  0.15294330000E+03 0.  0.
    8880022    1    1    2    0    0  0.19170042123E+03 -0.92026128298E+03  0.53663111027E+03  0.10931580316E+04  0.15294330000E+03 0.  0.
<mgrwt>
<rscale>  0 0.95237678E+03</rscale>
<asrwt>0</asrwt>
<pdfrwt beam="1">  1        2 0.46346930E+00 0.95237678E+03</pdfrwt>
<pdfrwt beam="2">  1       -2 0.13812691E+00 0.95237678E+03</pdfrwt>
<totfact> 0.65251118E-01</totfact>
</mgrwt>
</event>
<event>
 4    1  0.5387657E-008  0.3056501E+03  0.7818608E-02  0.1082450E+00
          2   -1    0    0  501    0  0.00000000000E+00  0.00000000000E+00  0.28803419657E+04  0.28803419657E+04  0.25500000000E-02 0. -1.
         -2   -1    0    0    0  501 -0.00000000000E+00 -0.00000000000E+00 -0.16458323800E+03  0.16458323802E+03  0.25500000000E-02 0.  1.
    8880022    1    1    2    0    0 -0.20759497682E+03 -0.16411789597E+03  0.27221030742E+04  0.27392092212E+04  0.15294330000E+03 0. -1.
    8880022    1    1    2    0    0  0.20759497682E+03  0.16411789597E+03 -0.63443465164E+01  0.30571598245E+03  0.15294330000E+03 0.  0.
<mgrwt>
<rscale>  0 0.30565015E+03</rscale>
<asrwt>0</asrwt>
<pdfrwt beam="1">  1        2 0.44312952E+00 0.30565015E+03</pdfrwt>
<pdfrwt beam="2">  1       -2 0.25320499E-01 0.30565015E+03</pdfrwt>
<totfact> 0.33865234E+01</totfact>
</mgrwt>
</event>
<event>
 4    1  0.5387657E-008  0.3936055E+03  0.7818608E-02  0.1046017E+00
          2   -1    0    0  501    0  0.00000000000E+00  0.00000000000E+00  0.39161142891E+03  0.39161142892E+03  0.25500000000E-02 0. -1.
         -2   -1    0    0    0  501 -0.00000000000E+00 -0.00000000000E+00 -0.82739203537E+03  0.82739203537E+03  0.25500000000E-02 0.  1.
    8880022    1    1    2    0    0 -0.33648183612E+03 -0.13532768103E+03  0.22241279037E+03  0.45209811947E+03  0.15294330000E+03 0.  0.
    8880022    1    1    2    0    0  0.33648183612E+03  0.13532768103E+03 -0.65819339682E+03  0.76690534483E+03  0.15294330000E+03 0.  1.
<mgrwt>
<rscale>  0 0.39360546E+03</rscale>
<asrwt>0</asrwt>
<pdfrwt beam="1">  1        2 0.60247912E-01 0.39360546E+03</pdfrwt>
<pdfrwt beam="2">  1       -2 0.12729108E+00 0.39360546E+03</pdfrwt>
<totfact> 0.38984496E+01</totfact>
</mgrwt>
</event>
<event>
 4    1  0.5387657E-008  0.3708485E+03  0.7818608E-02  0.1054369E+00
          2   -1    0    0  501    0  0.00000000000E+00  0.00000000000E+00  0.54707253799E+03  0.54707253799E+03  0.25500000000E-02 0. -1.
         -2   -1    0    0    0  501 -0.00000000000E+00 -0.00000000000E+00 -0.37171979253E+03  0.37171979254E+03  0.25500000000E-02 0.  1.
    8880022    1    1    2    0    0  0.30097576789E+03 -0.15346177910E+03 -0.17369983141E+03  0.40951216703E+03  0.15294330000E+03 0.  0.
    8880022    1    1    2    0    0 -0.30097576789E+03  0.15346177910E+03  0.34905257687E+03  0.50928016350E+03  0.15294330000E+03 0.  0.
<mgrwt>
<rscale>  0 0.37084846E+03</rscale>
<asrwt>0</asrwt>
<pdfrwt beam="1">  1        2 0.84165006E-01 0.37084846E+03</pdfrwt>
<pdfrwt beam="2">  1       -2 0.57187660E-01 0.37084846E+03</pdfrwt>
<totfact> 0.16417459E+02</totfact>
</mgrwt>
</event>
<event>
 4    1  0.5387657E-008  0.4568587E+03  0.7818608E-02  0.1025696E+00
          2   -1    0    0  501    0  0.00000000000E+00  0.00000000000E+00  0.11123169924E+04  0.11123169924E+04  0.25500000000E-02 0. -1.
         -2   -1    0    0    0  501 -0.00000000000E+00 -0.00000000000E+00 -0.30271789622E+03  0.30271789624E+03  0.25500000000E-02 0.  1.
    8880022    1    1    2    0    0 -0.19664855901E+03  0.38295891009E+03  0.84102010675E+03  0.95709699380E+03  0.15294330000E+03 0.  0.
    8880022    1    1    2    0    0  0.19664855901E+03 -0.38295891009E+03 -0.31421010595E+02  0.45793789481E+03  0.15294330000E+03 0.  0.
<mgrwt>
<rscale>  0 0.45685866E+03</rscale>
<asrwt>0</asrwt>
<pdfrwt beam="1">  1        2 0.17112569E+00 0.45685866E+03</pdfrwt>
<pdfrwt beam="2">  1       -2 0.46571985E-01 0.45685866E+03</pdfrwt>
<totfact> 0.97740650E+01</totfact>
</mgrwt>
</event>
<event>
 4    1  0.1023234E-007  0.1182617E+04  0.7818608E-02  0.9128210E-01
         -2   -1    0    0    0  501 -0.00000000000E+00  0.00000000000E+00  0.16902476184E+04  0.16902476184E+04  0.25500000000E-02 0.  1.
          2   -1    0    0  501    0  0.00000000000E+00 -0.00000000000E+00 -0.23529108347E+04  0.23529108347E+04  0.25500000000E-02 0. -1.
    8880022    1    1    2    0    0 -0.11265908541E+04 -0.32555145899E+03  0.12964257230E+04  0.17547940088E+04  0.15294330000E+03 0.  0.
    8880022    1    1    2    0    0  0.11265908541E+04  0.32555145899E+03 -0.19590889393E+04  0.22883644443E+04  0.15294330000E+03 0.  0.
<mgrwt>
<rscale>  0 0.11826167E+04</rscale>
<asrwt>0</asrwt>
<pdfrwt beam="1">  1        2 0.36198628E+00 0.11826167E+04</pdfrwt>
<pdfrwt beam="2">  1       -2 0.26003810E+00 0.11826167E+04</pdfrwt>
<totfact> 0.23094333E-01</totfact>
</mgrwt>
</event>
<event>
 4    1  0.5387657E-008  0.2674336E+03  0.7818608E-02  0.1102757E+00
         -2   -1    0    0    0  501 -0.00000000000E+00  0.00000000000E+00  0.86958164790E+03  0.86958164791E+03  0.25500000000E-02 0.  1.
          2   -1    0    0  501    0  0.00000000000E+00 -0.00000000000E+00 -0.89544836395E+03  0.89544836395E+03  0.25500000000E-02 0. -1.
    8880022    1    1    2    0    0  0.17506905813E+03  0.13221159210E+03  0.82807593949E+03  0.87018991880E+03  0.15294330000E+03 0.  0.
    8880022    1    1    2    0    0 -0.17506905813E+03 -0.13221159210E+03 -0.85394265554E+03  0.89484009306E+03  0.15294330000E+03 0. -1.
<mgrwt>
<rscale>  0 0.26743361E+03</rscale>
<asrwt>0</asrwt>
<pdfrwt beam="1">  1        2 0.13776129E+00 0.26743361E+03</pdfrwt>
<pdfrwt beam="2">  1       -2 0.13378179E+00 0.26743361E+03</pdfrwt>
<totfact> 0.13218539E+01</totfact>
</mgrwt>
</event>
<event>
 4    1  0.5387657E-008  0.1545226E+03  0.7818608E-02  0.1195023E+00
         -2   -1    0    0    0  501 -0.00000000000E+00  0.00000000000E+00  0.14783292139E+03  0.14783292141E+03  0.25500000000E-02 0.  1.
          2   -1    0    0  501    0  0.00000000000E+00 -0.00000000000E+00 -0.97206451988E+03  0.97206451989E+03  0.25500000000E-02 0. -1.
    8880022    1    1    2    0    0  0.86756829108E+01  0.20256249642E+02  0.99201497182E+02  0.18362508865E+03  0.15294330000E+03 0.  0.
    8880022    1    1    2    0    0 -0.86756829108E+01 -0.20256249642E+02 -0.92343309568E+03  0.93627235265E+03  0.15294330000E+03 0. -1.
<mgrwt>
<rscale>  0 0.15452261E+03</rscale>
<asrwt>0</asrwt>
<pdfrwt beam="1">  1        2 0.14954838E+00 0.15452261E+03</pdfrwt>
<pdfrwt beam="2">  1       -2 0.22743527E-01 0.15452261E+03</pdfrwt>
<totfact> 0.46767068E+02</totfact>
</mgrwt>
</event>
<event>
 4    1  0.5387657E-008  0.5660249E+03  0.7818608E-02  0.9978514E-01
         -2   -1    0    0    0  501 -0.00000000000E+00  0.00000000000E+00  0.19518623569E+03  0.19518623571E+03  0.25500000000E-02 0.  1.
          2   -1    0    0  501    0  0.00000000000E+00 -0.00000000000E+00 -0.20021638844E+04  0.20021638844E+04  0.25500000000E-02 0. -1.
    8880022    1    1    2    0    0 -0.53250217635E+03  0.11590507135E+03 -0.13698409508E+04  0.14821769250E+04  0.15294330000E+03 0.  0.
    8880022    1    1    2    0    0  0.53250217635E+03 -0.11590507135E+03 -0.43713669789E+03  0.71517319513E+03  0.15294330000E+03 0.  0.
<mgrwt>
<rscale>  0 0.56602492E+03</rscale>
<asrwt>0</asrwt>
<pdfrwt beam="1">  1        2 0.30802520E+00 0.56602492E+03</pdfrwt>
<pdfrwt beam="2">  1       -2 0.30028653E-01 0.56602492E+03</pdfrwt>
<totfact> 0.71787228E+01</totfact>
</mgrwt>
</event>
<event>
 4    1  0.6353842E-008  0.8573198E+03  0.7818608E-02  0.9480565E-01
         -2   -1    0    0    0  501 -0.00000000000E+00  0.00000000000E+00  0.17753617611E+04  0.17753617611E+04  0.25500000000E-02 0.  1.
          2   -1    0    0  501    0  0.00000000000E+00 -0.00000000000E+00 -0.14214622234E+04  0.14214622234E+04  0.25500000000E-02 0. -1.
    8880022    1    1    2    0    0  0.88169005648E+02  0.83894684928E+03 -0.11687115229E+04  0.14494426053E+04  0.15294330000E+03 0.  0.
    8880022    1    1    2    0    0 -0.88169005648E+02 -0.83894684928E+03  0.15226110606E+04  0.17473813792E+04  0.15294330000E+03 0.  0.
<mgrwt>
<rscale>  0 0.85731980E+03</rscale>
<asrwt>0</asrwt>
<pdfrwt beam="1">  1        2 0.21868650E+00 0.85731980E+03</pdfrwt>
<pdfrwt beam="2">  1       -2 0.27313258E+00 0.85731980E+03</pdfrwt>
<totfact> 0.66859978E-01</totfact>
</mgrwt>
</event>
<event>
 4    1  0.5387657E-008  0.4411216E+03  0.7818608E-02  0.1030403E+00
         -2   -1    0    0    0  501 -0.00000000000E+00  0.00000000000E+00  0.39912051021E+03  0.39912051022E+03  0.25500000000E-02 0.  1.
          2   -1    0    0  501    0  0.00000000000E+00 -0.00000000000E+00 -0.15720651171E+04  0.15720651171E+04  0.25500000000E-02 0. -1.
    8880022    1    1    2    0    0  0.15941549562E+03  0.38181580541E+03 -0.14050907820E+04  0.14727078353E+04  0.15294330000E+03 0.  0.
    8880022    1    1    2    0    0 -0.15941549562E+03 -0.38181580541E+03  0.23214617510E+03  0.49847779202E+03  0.15294330000E+03 0.  0.
<mgrwt>
<rscale>  0 0.44112160E+03</rscale>
<asrwt>0</asrwt>
<pdfrwt beam="1">  1        2 0.24185617E+00 0.44112160E+03</pdfrwt>
<pdfrwt beam="2">  1       -2 0.61403156E-01 0.44112160E+03</pdfrwt>
<totfact> 0.30618727E+01</totfact>
</mgrwt>
</event>
<event>
 4    1  0.5387657E-008  0.4445739E+03  0.7818608E-02  0.1029353E+00
         -2   -1    0    0    0  501 -0.00000000000E+00  0.00000000000E+00  0.12493347595E+03  0.12493347597E+03  0.25500000000E-02 0.  1.
          2   -1    0    0  501    0  0.00000000000E+00 -0.00000000000E+00 -0.20572718091E+04  0.20572718091E+04  0.25500000000E-02 0. -1.
    8880022    1    1    2    0    0 -0.13451455549E+03 -0.39517107224E+03 -0.44174067635E+03  0.62672228309E+03  0.15294330000E+03 0.  0.
    8880022    1    1    2    0    0  0.13451455549E+03  0.39517107224E+03 -0.14905976568E+04  0.15554830020E+04  0.15294330000E+03 0.  0.
<mgrwt>
<rscale>  0 0.44457395E+03</rscale>
<asrwt>0</asrwt>
<pdfrwt beam="1">  1        2 0.31650333E+00 0.44457395E+03</pdfrwt>
<pdfrwt beam="2">  1       -2 0.19220536E-01 0.44457395E+03</pdfrwt>
<totfact> 0.15143469E+02</totfact>
</mgrwt>
</event>
<event>
 4    1  0.5387657E-008  0.6410413E+03  0.7818608E-02  0.9823736E-01
         -2   -1    0    0    0  501 -0.00000000000E+00  0.00000000000E+00  0.50477637064E+03  0.50477637065E+03  0.25500000000E-02 0.  1.
          2   -1    0    0  501    0  0.00000000000E+00 -0.00000000000E+00 -0.15971630882E+04  0.15971630882E+04  0.25500000000E-02 0. -1.
    8880022    1    1    2    0    0 -0.54228976888E+03 -0.30571888822E+03  0.18970266376E+03  0.66852149233E+03  0.15294330000E+03 0.  0.
    8880022    1    1    2    0    0  0.54228976888E+03  0.30571888822E+03 -0.12820893813E+04  0.14334179665E+04  0.15294330000E+03 0.  0.
<mgrwt>
<rscale>  0 0.64104125E+03</rscale>
<asrwt>0</asrwt>
<pdfrwt beam="1">  1        2 0.24571739E+00 0.64104125E+03</pdfrwt>
<pdfrwt beam="2">  1       -2 0.77657904E-01 0.64104125E+03</pdfrwt>
<totfact> 0.17228111E+01</totfact>
</mgrwt>
</event>
<event>
 4    1  0.5387657E-008  0.1330920E+04  0.7818608E-02  0.9005399E-01
          2   -1    0    0  501    0  0.00000000000E+00  0.00000000000E+00  0.19479581321E+04  0.19479581321E+04  0.25500000000E-02 0. -1.
         -2   -1    0    0    0  501 -0.00000000000E+00 -0.00000000000E+00 -0.13701187672E+04  0.13701187672E+04  0.25500000000E-02 0.  1.
    8880022    1    1    2    0    0  0.54802839410E+03 -0.12031708163E+04  0.12510321929E+04  0.18265892627E+04  0.15294330000E+03 0.  0.
    8880022    1    1    2    0    0 -0.54802839410E+03  0.12031708163E+04 -0.67319282795E+03  0.14914876367E+04  0.15294330000E+03 0.  0.
<mgrwt>
<rscale>  0 0.13309195E+04</rscale>
<asrwt>0</asrwt>
<pdfrwt beam="1">  1        2 0.29968586E+00 0.13309195E+04</pdfrwt>
<pdfrwt beam="2">  1       -2 0.21078750E+00 0.13309195E+04</pdfrwt>
<totfact> 0.77273867E-01</totfact>
</mgrwt>
</event>
<event>
 4    1  0.5387657E-008  0.6068955E+03  0.7818608E-02  0.9891203E-01
         -2   -1    0    0    0  501 -0.00000000000E+00  0.00000000000E+00  0.16654751841E+03  0.16654751843E+03  0.25500000000E-02 0.  1.
          2   -1    0    0  501    0  0.00000000000E+00 -0.00000000000E+00 -0.26679775996E+04  0.26679775996E+04  0.25500000000E-02 0. -1.
    8880022    1    1    2    0    0  0.35155814389E+03 -0.47046499471E+03 -0.18369375858E+04  0.19345960268E+04  0.15294330000E+03 0.  0.
    8880022    1    1    2    0    0 -0.35155814389E+03  0.47046499471E+03 -0.66449249541E+03  0.89992909123E+03  0.15294330000E+03 0.  0.
<mgrwt>
<rscale>  0 0.60689545E+03</rscale>
<asrwt>0</asrwt>
<pdfrwt beam="1">  1        2 0.41045806E+00 0.60689545E+03</pdfrwt>
<pdfrwt beam="2">  1       -2 0.25622697E-01 0.60689545E+03</pdfrwt>
<totfact> 0.40703801E+01</totfact>
</mgrwt>
</event>
<event>
 4    1  0.5387657E-008  0.3729430E+03  0.7818608E-02  0.1053573E+00
          2   -1    0    0  501    0  0.00000000000E+00  0.00000000000E+00  0.29543081841E+04  0.29543081841E+04  0.25500000000E-02 0. -1.
         -2   -1    0    0    0  501 -0.00000000000E+00 -0.00000000000E+00 -0.12003614139E+03  0.12003614142E+03  0.25500000000E-02 0.  1.
    8880022    1    1    2    0    0 -0.28236059731E+03  0.18965051184E+03  0.26155304915E+04  0.26419852817E+04  0.15294330000E+03 0.  0.
    8880022    1    1    2    0    0  0.28236059731E+03 -0.18965051184E+03  0.21874155118E+03  0.43235904383E+03  0.15294330000E+03 0.  0.
<mgrwt>
<rscale>  0 0.37294299E+03</rscale>
<asrwt>0</asrwt>
<pdfrwt beam="1">  1        2 0.45450894E+00 0.37294299E+03</pdfrwt>
<pdfrwt beam="2">  1       -2 0.18467099E-01 0.37294299E+03</pdfrwt>
<totfact> 0.51914642E+01</totfact>
</mgrwt>
</event>
<event>
 4    1  0.5387657E-008  0.2100971E+03  0.7818608E-02  0.1141489E+00
          2   -1    0    0  501    0  0.00000000000E+00  0.00000000000E+00  0.63648554211E+03  0.63648554212E+03  0.25500000000E-02 0. -1.
         -2   -1    0    0    0  501 -0.00000000000E+00 -0.00000000000E+00 -0.78804441815E+02  0.78804441856E+02  0.25500000000E-02 0.  1.
    8880022    1    1    2    0    0 -0.12322807528E+03 -0.74592130019E+02  0.40271330575E+03  0.45422329755E+03  0.15294330000E+03 0.  0.
    8880022    1    1    2    0    0  0.12322807528E+03  0.74592130019E+02  0.15496779455E+03  0.26106668642E+03  0.15294330000E+03 0. -1.
<mgrwt>
<rscale>  0 0.21009711E+03</rscale>
<asrwt>0</asrwt>
<pdfrwt beam="1">  1        2 0.97920851E-01 0.21009711E+03</pdfrwt>
<pdfrwt beam="2">  1       -2 0.12123760E-01 0.21009711E+03</pdfrwt>
<totfact> 0.22720260E+03</totfact>
</mgrwt>
</event>
<event>
 4    1  0.7277764E-008  0.7694944E+03  0.7818608E-02  0.9605254E-01
         -2   -1    0    0    0  501 -0.00000000000E+00  0.00000000000E+00  0.18955984390E+04  0.18955984390E+04  0.25500000000E-02 0.  1.
          2   -1    0    0  501    0  0.00000000000E+00 -0.00000000000E+00 -0.12339888046E+04  0.12339888046E+04  0.25500000000E-02 0. -1.
    8880022    1    1    2    0    0 -0.53370498498E+03  0.53281228241E+03 -0.10215103785E+04  0.12789077549E+04  0.15294330000E+03 0.  0.
    8880022    1    1    2    0    0  0.53370498498E+03 -0.53281228241E+03  0.16831200128E+04  0.18506794887E+04  0.15294330000E+03 0.  0.
<mgrwt>
<rscale>  0 0.76949437E+03</rscale>
<asrwt>0</asrwt>
<pdfrwt beam="1">  1        2 0.18984443E+00 0.76949437E+03</pdfrwt>
<pdfrwt beam="2">  1       -2 0.29163053E+00 0.76949437E+03</pdfrwt>
<totfact> 0.67467820E-01</totfact>
</mgrwt>
</event>
<event>
 4    1  0.5387657E-008  0.8102589E+03  0.7818608E-02  0.9545285E-01
         -2   -1    0    0    0  501 -0.00000000000E+00  0.00000000000E+00  0.12391263953E+04  0.12391263953E+04  0.25500000000E-02 0.  1.
          2   -1    0    0  501    0  0.00000000000E+00 -0.00000000000E+00 -0.89841820360E+03  0.89841820360E+03  0.25500000000E-02 0. -1.
    8880022    1    1    2    0    0  0.79488530455E+03 -0.35848604518E+02  0.85492734027E+03  0.11778880167E+04  0.15294330000E+03 0.  0.
    8880022    1    1    2    0    0 -0.79488530455E+03  0.35848604518E+02 -0.51421914859E+03  0.95965658213E+03  0.15294330000E+03 0.  0.
<mgrwt>
<rscale>  0 0.81025886E+03</rscale>
<asrwt>0</asrwt>
<pdfrwt beam="1">  1        2 0.13821819E+00 0.81025886E+03</pdfrwt>
<pdfrwt beam="2">  1       -2 0.19063483E+00 0.81025886E+03</pdfrwt>
<totfact> 0.45724894E+00</totfact>
</mgrwt>
</event>
<event>
 4    1  0.5387657E-008  0.5513362E+03  0.7818608E-02  0.1001185E+00
         -2   -1    0    0    0  501 -0.00000000000E+00  0.00000000000E+00  0.24758755923E+03  0.24758755925E+03  0.25500000000E-02 0.  1.
          2   -1    0    0  501    0  0.00000000000E+00 -0.00000000000E+00 -0.14148001196E+04  0.14148001196E+04  0.25500000000E-02 0. -1.
    8880022    1    1    2    0    0  0.19612159006E+03 -0.49205309519E+03 -0.88584683543E+03  0.10434060549E+04  0.15294330000E+03 0.  0.
    8880022    1    1    2    0    0 -0.19612159006E+03  0.49205309519E+03 -0.28136572492E+03  0.61898162392E+03  0.15294330000E+03 0.  0.
<mgrwt>
<rscale>  0 0.55133618E+03</rscale>
<asrwt>0</asrwt>
<pdfrwt beam="1">  1        2 0.21766155E+00 0.55133618E+03</pdfrwt>
<pdfrwt beam="2">  1       -2 0.38090395E-01 0.55133618E+03</pdfrwt>
<totfact> 0.95912173E+01</totfact>
</mgrwt>
</event>
<event>
 4    1  0.5387657E-008  0.1322828E+04  0.7818608E-02  0.9011656E-01
         -2   -1    0    0    0  501 -0.00000000000E+00  0.00000000000E+00  0.10620577574E+04  0.10620577574E+04  0.25500000000E-02 0.  1.
          2   -1    0    0  501    0  0.00000000000E+00 -0.00000000000E+00 -0.17726506220E+04  0.17726506220E+04  0.25500000000E-02 0. -1.
    8880022    1    1    2    0    0  0.10373281606E+04  0.80649351771E+03 -0.73171056897E+03  0.15117121143E+04  0.15294330000E+03 0.  0.
    8880022    1    1    2    0    0 -0.10373281606E+04 -0.80649351771E+03  0.21117704305E+02  0.13229962650E+04  0.15294330000E+03 0.  0.
<mgrwt>
<rscale>  0 0.13228277E+04</rscale>
<asrwt>0</asrwt>
<pdfrwt beam="1">  1        2 0.27271548E+00 0.13228277E+04</pdfrwt>
<pdfrwt beam="2">  1       -2 0.16339350E+00 0.13228277E+04</pdfrwt>
<totfact> 0.20385846E+00</totfact>
</mgrwt>
</event>
<event>
 4    1  0.5387657E-008  0.5779921E+03  0.7818608E-02  0.9952147E-01
         -2   -1    0    0    0  501 -0.00000000000E+00  0.00000000000E+00  0.11233173549E+04  0.11233173549E+04  0.25500000000E-02 0.  1.
          2   -1    0    0  501    0  0.00000000000E+00 -0.00000000000E+00 -0.16832499997E+04  0.16832499997E+04  0.25500000000E-02 0. -1.
    8880022    1    1    2    0    0  0.31968289009E+03  0.45660279936E+03  0.99332924716E+03  0.11492510226E+04  0.15294330000E+03 0.  0.
    8880022    1    1    2    0    0 -0.31968289009E+03 -0.45660279936E+03 -0.15532618919E+04  0.16573163321E+04  0.15294330000E+03 0.  0.
<mgrwt>
<rscale>  0 0.57799214E+03</rscale>
<asrwt>0</asrwt>
<pdfrwt beam="1">  1        2 0.25896154E+00 0.57799214E+03</pdfrwt>
<pdfrwt beam="2">  1       -2 0.17281805E+00 0.57799214E+03</pdfrwt>
<totfact> 0.21806053E+00</totfact>
</mgrwt>
</event>
<event>
 4    1  0.5387657E-008  0.1155446E+04  0.7818608E-02  0.9152774E-01
         -2   -1    0    0    0  501 -0.00000000000E+00  0.00000000000E+00  0.50768413595E+03  0.50768413595E+03  0.25500000000E-02 0.  1.
          2   -1    0    0  501    0  0.00000000000E+00 -0.00000000000E+00 -0.27558224936E+04  0.27558224936E+04  0.25500000000E-02 0. -1.
    8880022    1    1    2    0    0 -0.14181971036E+03 -0.11364644549E+04 -0.14731521446E+04  0.18722267976E+04  0.15294330000E+03 0.  0.
    8880022    1    1    2    0    0  0.14181971036E+03  0.11364644549E+04 -0.77498621300E+03  0.13912798319E+04  0.15294330000E+03 0.  0.
<mgrwt>
<rscale>  0 0.11554462E+04</rscale>
<asrwt>0</asrwt>
<pdfrwt beam="1">  1        2 0.42397268E+00 0.11554462E+04</pdfrwt>
<pdfrwt beam="2">  1       -2 0.78105253E-01 0.11554462E+04</pdfrwt>
<totfact> 0.35696221E+00</totfact>
</mgrwt>
</event>
<event>
 4    1  0.5387657E-008  0.6235935E+03  0.7818608E-02  0.9857631E-01
         -2   -1    0    0    0  501 -0.00000000000E+00  0.00000000000E+00  0.51636475946E+03  0.51636475946E+03  0.25500000000E-02 0.  1.
          2   -1    0    0  501    0  0.00000000000E+00 -0.00000000000E+00 -0.30723261885E+04  0.30723261885E+04  0.25500000000E-02 0. -1.
    8880022    1    1    2    0    0 -0.57227360423E+03 -0.19488487975E+03 -0.28369765106E+04  0.29047038695E+04  0.15294330000E+03 0.  0.
    8880022    1    1    2    0    0  0.57227360423E+03  0.19488487975E+03  0.28101508159E+03  0.68398707849E+03  0.15294330000E+03 0.  0.
<mgrwt>
<rscale>  0 0.62359350E+03</rscale>
<asrwt>0</asrwt>
<pdfrwt beam="1">  1        2 0.47266556E+00 0.62359350E+03</pdfrwt>
<pdfrwt beam="2">  1       -2 0.79440734E-01 0.62359350E+03</pdfrwt>
<totfact> 0.24249598E+00</totfact>
</mgrwt>
</event>
<event>
 4    1  0.5387657E-008  0.6114642E+03  0.7818608E-02  0.9881903E-01
         -2   -1    0    0    0  501 -0.00000000000E+00  0.00000000000E+00  0.38258246303E+03  0.38258246304E+03  0.25500000000E-02 0.  1.
          2   -1    0    0  501    0  0.00000000000E+00 -0.00000000000E+00 -0.24918313785E+04  0.24918313785E+04  0.25500000000E-02 0. -1.
    8880022    1    1    2    0    0 -0.59174588689E+03  0.18266007493E+02 -0.21751006034E+04  0.22594138907E+04  0.15294330000E+03 0.  0.
    8880022    1    1    2    0    0  0.59174588689E+03 -0.18266007493E+02  0.65851687939E+02  0.61499995081E+03  0.15294330000E+03 0.  0.
<mgrwt>
<rscale>  0 0.61146422E+03</rscale>
<asrwt>0</asrwt>
<pdfrwt beam="1">  1        2 0.38335866E+00 0.61146422E+03</pdfrwt>
<pdfrwt beam="2">  1       -2 0.58858842E-01 0.61146422E+03</pdfrwt>
<totfact> 0.10208838E+01</totfact>
</mgrwt>
</event>
<event>
 4    1  0.5387657E-008  0.4171888E+03  0.7818608E-02  0.1037985E+00
          2   -1    0    0  501    0  0.00000000000E+00  0.00000000000E+00  0.10598845793E+04  0.10598845793E+04  0.25500000000E-02 0. -1.
         -2   -1    0    0    0  501 -0.00000000000E+00 -0.00000000000E+00 -0.27800402602E+03  0.27800402603E+03  0.25500000000E-02 0.  1.
    8880022    1    1    2    0    0  0.34556295331E+03 -0.17675150863E+03 -0.37035318601E+02  0.41882946212E+03  0.15294330000E+03 0.  0.
    8880022    1    1    2    0    0 -0.34556295331E+03  0.17675150863E+03  0.81891587189E+03  0.91905914323E+03  0.15294330000E+03 0.  0.
<mgrwt>
<rscale>  0 0.41718881E+03</rscale>
<asrwt>0</asrwt>
<pdfrwt beam="1">  1        2 0.16305916E+00 0.41718881E+03</pdfrwt>
<pdfrwt beam="2">  1       -2 0.42769851E-01 0.41718881E+03</pdfrwt>
<totfact> 0.12500208E+02</totfact>
</mgrwt>
</event>
<event>
 4    1  0.5387657E-008  0.7210254E+03  0.7818608E-02  0.9681937E-01
         -2   -1    0    0    0  501 -0.00000000000E+00  0.00000000000E+00  0.12944930899E+04  0.12944930899E+04  0.25500000000E-02 0.  1.
          2   -1    0    0  501    0  0.00000000000E+00 -0.00000000000E+00 -0.57475481717E+03  0.57475481717E+03  0.25500000000E-02 0. -1.
    8880022    1    1    2    0    0 -0.39116702244E+03 -0.58606682488E+03 -0.15311505612E+03  0.73710368069E+03  0.15294330000E+03 0.  0.
    8880022    1    1    2    0    0  0.39116702244E+03  0.58606682488E+03  0.87285332889E+03  0.11321442264E+04  0.15294330000E+03 0.  1.
<mgrwt>
<rscale>  0 0.72102539E+03</rscale>
<asrwt>0</asrwt>
<pdfrwt beam="1">  1        2 0.88423818E-01 0.72102539E+03</pdfrwt>
<pdfrwt beam="2">  1       -2 0.19915278E+00 0.72102539E+03</pdfrwt>
<totfact> 0.72009967E+00</totfact>
</mgrwt>
</event>
<event>
 4    1  0.5387657E-008  0.2504646E+03  0.7818608E-02  0.1113012E+00
          2   -1    0    0  501    0  0.00000000000E+00  0.00000000000E+00  0.30146279112E+04  0.30146279112E+04  0.25500000000E-02 0. -1.
         -2   -1    0    0    0  501 -0.00000000000E+00 -0.00000000000E+00 -0.13980459203E+03  0.13980459205E+03  0.25500000000E-02 0.  1.
    8880022    1    1    2    0    0  0.12417376964E+03 -0.15466659343E+03 -0.17696484742E+02  0.25108902560E+03  0.15294330000E+03 0.  0.
    8880022    1    1    2    0    0 -0.12417376964E+03  0.15466659343E+03  0.28925198039E+04  0.29033434776E+04  0.15294330000E+03 0.  0.
<mgrwt>
<rscale>  0 0.25046463E+03</rscale>
<asrwt>0</asrwt>
<pdfrwt beam="1">  1        2 0.46378896E+00 0.25046463E+03</pdfrwt>
<pdfrwt beam="2">  1       -2 0.21508396E-01 0.25046463E+03</pdfrwt>
<totfact> 0.38513414E+01</totfact>
</mgrwt>
</event>
<event>
 4    1  0.5387657E-008  0.2101118E+03  0.7818608E-02  0.1141477E+00
          2   -1    0    0  501    0  0.00000000000E+00  0.00000000000E+00  0.16513034479E+04  0.16513034480E+04  0.25500000000E-02 0. -1.
         -2   -1    0    0    0  501 -0.00000000000E+00 -0.00000000000E+00 -0.82140986354E+03  0.82140986354E+03  0.25500000000E-02 0.  1.
    8880022    1    1    2    0    0  0.14343354592E+03  0.13496167008E+02 -0.80112343061E+03  0.82821840882E+03  0.15294330000E+03 0.  1.
    8880022    1    1    2    0    0 -0.14343354592E+03 -0.13496167008E+02  0.16310170150E+04  0.16444949027E+04  0.15294330000E+03 0.  0.
<mgrwt>
<rscale>  0 0.21011183E+03</rscale>
<asrwt>0</asrwt>
<pdfrwt beam="1">  1        2 0.25404668E+00 0.21011183E+03</pdfrwt>
<pdfrwt beam="2">  1       -2 0.12637075E+00 0.21011183E+03</pdfrwt>
<totfact> 0.58320917E+00</totfact>
</mgrwt>
</event>
<event>
 4    1  0.5387657E-008  0.4735367E+03  0.7818608E-02  0.1020927E+00
         -2   -1    0    0    0  501 -0.00000000000E+00  0.00000000000E+00  0.17280288707E+03  0.17280288709E+03  0.25500000000E-02 0.  1.
          2   -1    0    0  501    0  0.00000000000E+00 -0.00000000000E+00 -0.17466241275E+04  0.17466241275E+04  0.25500000000E-02 0. -1.
    8880022    1    1    2    0    0  0.13469915562E+03 -0.42743593864E+03 -0.30033044513E+03  0.56074537310E+03  0.15294330000E+03 0.  0.
    8880022    1    1    2    0    0 -0.13469915562E+03  0.42743593864E+03 -0.12734907953E+04  0.13586816415E+04  0.15294330000E+03 0.  0.
<mgrwt>
<rscale>  0 0.47353669E+03</rscale>
<asrwt>0</asrwt>
<pdfrwt beam="1">  1        2 0.26871139E+00 0.47353669E+03</pdfrwt>
<pdfrwt beam="2">  1       -2 0.26585061E-01 0.47353669E+03</pdfrwt>
<totfact> 0.12482874E+02</totfact>
</mgrwt>
</event>
<event>
 4    1  0.5387657E-008  0.9140941E+03  0.7818608E-02  0.9408133E-01
         -2   -1    0    0    0  501 -0.00000000000E+00  0.00000000000E+00  0.11504608186E+04  0.11504608186E+04  0.25500000000E-02 0.  1.
          2   -1    0    0  501    0  0.00000000000E+00 -0.00000000000E+00 -0.13915843489E+04  0.13915843489E+04  0.25500000000E-02 0. -1.
    8880022    1    1    2    0    0  0.11850129849E+03 -0.89338332472E+03 -0.99939298581E+03  0.13543833710E+04  0.15294330000E+03 0.  0.
    8880022    1    1    2    0    0 -0.11850129849E+03  0.89338332472E+03  0.75826945546E+03  0.11876617964E+04  0.15294330000E+03 0.  0.
<mgrwt>
<rscale>  0 0.91409407E+03</rscale>
<asrwt>0</asrwt>
<pdfrwt beam="1">  1        2 0.21408990E+00 0.91409407E+03</pdfrwt>
<pdfrwt beam="2">  1       -2 0.17699397E+00 0.91409407E+03</pdfrwt>
<totfact> 0.27918467E+00</totfact>
</mgrwt>
</event>
<event>
 4    1  0.5387657E-008  0.7645052E+03  0.7818608E-02  0.9612865E-01
          2   -1    0    0  501    0  0.00000000000E+00  0.00000000000E+00  0.12243623379E+04  0.12243623379E+04  0.25500000000E-02 0. -1.
         -2   -1    0    0    0  501 -0.00000000000E+00 -0.00000000000E+00 -0.11991228877E+04  0.11991228877E+04  0.25500000000E-02 0.  1.
    8880022    1    1    2    0    0 -0.42847456186E+03 -0.61439900324E+03  0.95271999720E+03  0.12215333116E+04  0.15294330000E+03 0. -1.
    8880022    1    1    2    0    0  0.42847456186E+03  0.61439900324E+03 -0.92748054700E+03  0.12019519139E+04  0.15294330000E+03 0.  0.
<mgrwt>
<rscale>  0 0.76450522E+03</rscale>
<asrwt>0</asrwt>
<pdfrwt beam="1">  1        2 0.18836344E+00 0.76450522E+03</pdfrwt>
<pdfrwt beam="2">  1       -2 0.18448044E+00 0.76450522E+03</pdfrwt>
<totfact> 0.31651893E+00</totfact>
</mgrwt>
</event>
<event>
 4    1  0.5387657E-008  0.6169572E+03  0.7818608E-02  0.9870837E-01
         -2   -1    0    0    0  501 -0.00000000000E+00  0.00000000000E+00  0.22037781271E+03  0.22037781272E+03  0.25500000000E-02 0.  1.
          2   -1    0    0  501    0  0.00000000000E+00 -0.00000000000E+00 -0.19680188400E+04  0.19680188400E+04  0.25500000000E-02 0. -1.
    8880022    1    1    2    0    0  0.11603190541E+03  0.58632847390E+03 -0.49105889713E+03  0.78852709265E+03  0.15294330000E+03 0.  0.
    8880022    1    1    2    0    0 -0.11603190541E+03 -0.58632847390E+03 -0.12565821302E+04  0.13998695601E+04  0.15294330000E+03 0.  0.
<mgrwt>
<rscale>  0 0.61695716E+03</rscale>
<asrwt>0</asrwt>
<pdfrwt beam="1">  1        2 0.30277212E+00 0.61695716E+03</pdfrwt>
<pdfrwt beam="2">  1       -2 0.33904280E-01 0.61695716E+03</pdfrwt>
<totfact> 0.59270239E+01</totfact>
</mgrwt>
</event>
<event>
 4    1  0.5387657E-008  0.9063337E+03  0.7818608E-02  0.9417699E-01
         -2   -1    0    0    0  501 -0.00000000000E+00  0.00000000000E+00  0.11072370947E+04  0.11072370947E+04  0.25500000000E-02 0.  1.
          2   -1    0    0  501    0  0.00000000000E+00 -0.00000000000E+00 -0.16882513926E+04  0.16882513926E+04  0.25500000000E-02 0. -1.
    8880022    1    1    2    0    0 -0.62768442360E+03 -0.63565816299E+03  0.75599277969E+03  0.11802397095E+04  0.15294330000E+03 0.  0.
    8880022    1    1    2    0    0  0.62768442360E+03  0.63565816299E+03 -0.13370070776E+04  0.16152487779E+04  0.15294330000E+03 0.  0.
<mgrwt>
<rscale>  0 0.90633365E+03</rscale>
<asrwt>0</asrwt>
<pdfrwt beam="1">  1        2 0.25973098E+00 0.90633365E+03</pdfrwt>
<pdfrwt beam="2">  1       -2 0.17034417E+00 0.90633365E+03</pdfrwt>
<totfact> 0.21246335E+00</totfact>
</mgrwt>
</event>
<event>
 4    1  0.5387657E-008  0.9010691E+03  0.7818608E-02  0.9424246E-01
         -2   -1    0    0    0  501 -0.00000000000E+00  0.00000000000E+00  0.53316456162E+03  0.53316456163E+03  0.25500000000E-02 0.  1.
          2   -1    0    0  501    0  0.00000000000E+00 -0.00000000000E+00 -0.24513710162E+04  0.24513710162E+04  0.25500000000E-02 0. -1.
    8880022    1    1    2    0    0 -0.36779647113E+03  0.80824479677E+03 -0.40686234840E+02  0.90198720523E+03  0.15294330000E+03 0.  0.
    8880022    1    1    2    0    0  0.36779647113E+03 -0.80824479677E+03 -0.18775202197E+04  0.20825483726E+04  0.15294330000E+03 0.  0.
<mgrwt>
<rscale>  0 0.90106911E+03</rscale>
<asrwt>0</asrwt>
<pdfrwt beam="1">  1        2 0.37713400E+00 0.90106911E+03</pdfrwt>
<pdfrwt beam="2">  1       -2 0.82025319E-01 0.90106911E+03</pdfrwt>
<totfact> 0.49643550E+00</totfact>
</mgrwt>
</event>
<event>
 4    1  0.5387657E-008  0.1357658E+04  0.7818608E-02  0.8985051E-01
         -2   -1    0    0    0  501 -0.00000000000E+00  0.00000000000E+00  0.10946387243E+04  0.10946387243E+04  0.25500000000E-02 0.  1.
          2   -1    0    0  501    0  0.00000000000E+00 -0.00000000000E+00 -0.25841172169E+04  0.25841172169E+04  0.25500000000E-02 0. -1.
    8880022    1    1    2    0    0 -0.12288960221E+04  0.55646905235E+03 -0.18304010021E+04  0.22789477223E+04  0.15294330000E+03 0.  0.
    8880022    1    1    2    0    0  0.12288960221E+04 -0.55646905235E+03  0.34092250940E+03  0.13998082190E+04  0.15294330000E+03 0.  0.
<mgrwt>
<rscale>  0 0.13576579E+04</rscale>
<asrwt>0</asrwt>
<pdfrwt beam="1">  1        2 0.39755649E+00 0.13576579E+04</pdfrwt>
<pdfrwt beam="2">  1       -2 0.16840596E+00 0.13576579E+04</pdfrwt>
<totfact> 0.65185647E-01</totfact>
</mgrwt>
</event>
<event>
 4    1  0.5387657E-008  0.4927179E+03  0.7818608E-02  0.1015697E+00
         -2   -1    0    0    0  501 -0.00000000000E+00  0.00000000000E+00  0.18705628532E+03  0.18705628534E+03  0.25500000000E-02 0.  1.
          2   -1    0    0  501    0  0.00000000000E+00 -0.00000000000E+00 -0.31716095132E+04  0.31716095132E+04  0.25500000000E-02 0. -1.
    8880022    1    1    2    0    0 -0.67087105539E+02  0.46355000382E+03 -0.27830615950E+04  0.28263408818E+04  0.15294330000E+03 0.  0.
    8880022    1    1    2    0    0  0.67087105539E+02 -0.46355000382E+03 -0.20149163282E+03  0.53232491665E+03  0.15294330000E+03 0.  0.
<mgrwt>
<rscale>  0 0.49271791E+03</rscale>
<asrwt>0</asrwt>
<pdfrwt beam="1">  1        2 0.48793989E+00 0.49271791E+03</pdfrwt>
<pdfrwt beam="2">  1       -2 0.28777892E-01 0.49271791E+03</pdfrwt>
<totfact> 0.16883990E+01</totfact>
</mgrwt>
</event>
<event>
 4    1  0.5387657E-008  0.6409622E+03  0.7818608E-02  0.9823887E-01
          2   -1    0    0  501    0  0.00000000000E+00  0.00000000000E+00  0.79362691445E+03  0.79362691445E+03  0.25500000000E-02 0. -1.
         -2   -1    0    0    0  501 -0.00000000000E+00 -0.00000000000E+00 -0.93972918104E+03  0.93972918104E+03  0.25500000000E-02 0.  1.
    8880022    1    1    2    0    0  0.46876181734E+03  0.40951583644E+03  0.50777469833E+03  0.81772101536E+03  0.15294330000E+03 0.  0.
    8880022    1    1    2    0    0 -0.46876181734E+03 -0.40951583644E+03 -0.65387696492E+03  0.91563508013E+03  0.15294330000E+03 0.  0.
<mgrwt>
<rscale>  0 0.64096218E+03</rscale>
<asrwt>0</asrwt>
<pdfrwt beam="1">  1        2 0.12209645E+00 0.64096218E+03</pdfrwt>
<pdfrwt beam="2">  1       -2 0.14457372E+00 0.64096218E+03</pdfrwt>
<totfact> 0.11829222E+01</totfact>
</mgrwt>
</event>
<event>
 4    1  0.5387657E-008  0.2318695E+03  0.7818608E-02  0.1125331E+00
         -2   -1    0    0    0  501 -0.00000000000E+00  0.00000000000E+00  0.29504390469E+02  0.29504390579E+02  0.25500000000E-02 0.  1.
          2   -1    0    0  501    0  0.00000000000E+00 -0.00000000000E+00 -0.24925906086E+04  0.24925906086E+04  0.25500000000E-02 0. -1.
    8880022    1    1    2    0    0  0.30732276161E+02 -0.17154401278E+03 -0.18855218494E+04  0.18997252745E+04  0.15294330000E+03 0.  0.
    8880022    1    1    2    0    0 -0.30732276161E+02  0.17154401278E+03 -0.57756436875E+03  0.62236972467E+03  0.15294330000E+03 0.  0.
<mgrwt>
<rscale>  0 0.23186952E+03</rscale>
<asrwt>0</asrwt>
<pdfrwt beam="1">  1        2 0.38347531E+00 0.23186952E+03</pdfrwt>
<pdfrwt beam="2">  1       -2 0.45391390E-02 0.23186952E+03</pdfrwt>
<totfact> 0.92463725E+02</totfact>
</mgrwt>
</event>
<event>
 4    1  0.5387657E-008  0.6793555E+03  0.7818608E-02  0.9753203E-01
         -2   -1    0    0    0  501 -0.00000000000E+00  0.00000000000E+00  0.13678158023E+04  0.13678158023E+04  0.25500000000E-02 0.  1.
          2   -1    0    0  501    0  0.00000000000E+00 -0.00000000000E+00 -0.52374040366E+03  0.52374040367E+03  0.25500000000E-02 0. -1.
    8880022    1    1    2    0    0 -0.39892288660E+03 -0.52819761565E+03  0.98614966620E+03  0.11975036567E+04  0.15294330000E+03 0.  0.
    8880022    1    1    2    0    0  0.39892288660E+03  0.52819761565E+03 -0.14207426757E+03  0.69405254927E+03  0.15294330000E+03 0.  0.
<mgrwt>
<rscale>  0 0.67935546E+03</rscale>
<asrwt>0</asrwt>
<pdfrwt beam="1">  1        2 0.80575447E-01 0.67935546E+03</pdfrwt>
<pdfrwt beam="2">  1       -2 0.21043320E+00 0.67935546E+03</pdfrwt>
<totfact> 0.68368605E+00</totfact>
</mgrwt>
</event>
<event>
 4    1  0.5387657E-008  0.6065736E+03  0.7818608E-02  0.9891861E-01
          2   -1    0    0  501    0  0.00000000000E+00  0.00000000000E+00  0.12116967469E+04  0.12116967469E+04  0.25500000000E-02 0. -1.
         -2   -1    0    0    0  501 -0.00000000000E+00 -0.00000000000E+00 -0.42298253699E+03  0.42298253700E+03  0.25500000000E-02 0.  1.
    8880022    1    1    2    0    0  0.54909097725E+03  0.20745830107E+03 -0.39774202268E+02  0.60787621121E+03  0.15294330000E+03 0.  0.
    8880022    1    1    2    0    0 -0.54909097725E+03 -0.20745830107E+03  0.82848841222E+03  0.10268030727E+04  0.15294330000E+03 0.  0.
<mgrwt>
<rscale>  0 0.60657357E+03</rscale>
<asrwt>0</asrwt>
<pdfrwt beam="1">  1        2 0.18641489E+00 0.60657357E+03</pdfrwt>
<pdfrwt beam="2">  1       -2 0.65074236E-01 0.60657357E+03</pdfrwt>
<totfact> 0.41985896E+01</totfact>
</mgrwt>
</event>
<event>
 4    1  0.5387657E-008  0.6267189E+03  0.7818608E-02  0.9851473E-01
          2   -1    0    0  501    0  0.00000000000E+00  0.00000000000E+00  0.19737984584E+04  0.19737984584E+04  0.25500000000E-02 0. -1.
         -2   -1    0    0    0  501 -0.00000000000E+00 -0.00000000000E+00 -0.93946918750E+03  0.93946918750E+03  0.25500000000E-02 0.  1.
    8880022    1    1    2    0    0  0.20541482343E+03 -0.57200492737E+03 -0.77603032944E+03  0.99749667260E+03  0.15294330000E+03 0.  0.
    8880022    1    1    2    0    0 -0.20541482343E+03  0.57200492737E+03  0.18103596004E+04  0.19157709733E+04  0.15294330000E+03 0.  0.
<mgrwt>
<rscale>  0 0.62671887E+03</rscale>
<asrwt>0</asrwt>
<pdfrwt beam="1">  1        2 0.30366130E+00 0.62671887E+03</pdfrwt>
<pdfrwt beam="2">  1       -2 0.14453372E+00 0.62671887E+03</pdfrwt>
<totfact> 0.24263214E+00</totfact>
</mgrwt>
</event>
<event>
 4    1  0.5387657E-008  0.1892967E+04  0.7818608E-02  0.8658365E-01
          2   -1    0    0  501    0  0.00000000000E+00  0.00000000000E+00  0.18087847428E+04  0.18087847428E+04  0.25500000000E-02 0. -1.
         -2   -1    0    0    0  501 -0.00000000000E+00 -0.00000000000E+00 -0.33607819477E+04  0.33607819477E+04  0.25500000000E-02 0.  1.
    8880022    1    1    2    0    0  0.13431840477E+04  0.13250617387E+04 -0.24321448061E+04  0.30819883206E+04  0.15294330000E+03 0.  0.
    8880022    1    1    2    0    0 -0.13431840477E+04 -0.13250617387E+04  0.88014760123E+03  0.20875783699E+04  0.15294330000E+03 0.  0.
<mgrwt>
<rscale>  0 0.18929669E+04</rscale>
<asrwt>0</asrwt>
<pdfrwt beam="1">  1        2 0.27827458E+00 0.18929669E+04</pdfrwt>
<pdfrwt beam="2">  1       -2 0.51704337E+00 0.18929669E+04</pdfrwt>
<totfact> 0.98213013E-03</totfact>
</mgrwt>
</event>
<event>
 4    1  0.5387657E-008  0.3630788E+03  0.7818608E-02  0.1057371E+00
          2   -1    0    0  501    0  0.00000000000E+00  0.00000000000E+00  0.12547318351E+04  0.12547318351E+04  0.25500000000E-02 0. -1.
         -2   -1    0    0    0  501 -0.00000000000E+00 -0.00000000000E+00 -0.13527440463E+03  0.13527440465E+03  0.25500000000E-02 0.  1.
    8880022    1    1    2    0    0  0.32921466813E+03 -0.72278508594E+01  0.88817372574E+03  0.95952006736E+03  0.15294330000E+03 0.  0.
    8880022    1    1    2    0    0 -0.32921466813E+03  0.72278508594E+01  0.23128370474E+03  0.43048617241E+03  0.15294330000E+03 0.  0.
<mgrwt>
<rscale>  0 0.36307877E+03</rscale>
<asrwt>0</asrwt>
<pdfrwt beam="1">  1        2 0.19303566E+00 0.36307877E+03</pdfrwt>
<pdfrwt beam="2">  1       -2 0.20811447E-01 0.36307877E+03</pdfrwt>
<totfact> 0.36334595E+02</totfact>
</mgrwt>
</event>
<event>
 4    1  0.5387657E-008  0.5106631E+03  0.7818608E-02  0.1011033E+00
          2   -1    0    0  501    0  0.00000000000E+00  0.00000000000E+00  0.10871553526E+04  0.10871553526E+04  0.25500000000E-02 0. -1.
         -2   -1    0    0    0  501 -0.00000000000E+00 -0.00000000000E+00 -0.63134873151E+03  0.63134873151E+03  0.25500000000E-02 0.  1.
    8880022    1    1    2    0    0 -0.24921380697E+03  0.41866174840E+03 -0.44870846862E+03  0.67979123559E+03  0.15294330000E+03 0.  0.
    8880022    1    1    2    0    0  0.24921380697E+03 -0.41866174840E+03  0.90451508969E+03  0.10387128485E+04  0.15294330000E+03 0.  0.
<mgrwt>
<rscale>  0 0.51066313E+03</rscale>
<asrwt>0</asrwt>
<pdfrwt beam="1">  1        2 0.16725467E+00 0.51066313E+03</pdfrwt>
<pdfrwt beam="2">  1       -2 0.97130575E-01 0.51066313E+03</pdfrwt>
<totfact> 0.20610090E+01</totfact>
</mgrwt>
</event>
<event>
 4    1  0.5387657E-008  0.3747730E+03  0.7818608E-02  0.1052883E+00
         -2   -1    0    0    0  501 -0.00000000000E+00  0.00000000000E+00  0.17254142676E+04  0.17254142676E+04  0.25500000000E-02 0.  1.
          2   -1    0    0  501    0  0.00000000000E+00 -0.00000000000E+00 -0.53592343198E+03  0.53592343199E+03  0.25500000000E-02 0. -1.
    8880022    1    1    2    0    0 -0.60483776680E+02 -0.33675632920E+03 -0.44651778111E+03  0.58295187997E+03  0.15294330000E+03 0. -1.
    8880022    1    1    2    0    0  0.60483776680E+02  0.33675632920E+03  0.16360086167E+04  0.16783858196E+04  0.15294330000E+03 0.  0.
<mgrwt>
<rscale>  0 0.37477295E+03</rscale>
<asrwt>0</asrwt>
<pdfrwt beam="1">  1        2 0.82449759E-01 0.37477295E+03</pdfrwt>
<pdfrwt beam="2">  1       -2 0.26544835E+00 0.37477295E+03</pdfrwt>
<totfact> 0.32695768E+00</totfact>
</mgrwt>
</event>
<event>
 4    1  0.5387657E-008  0.2625297E+03  0.7818608E-02  0.1105633E+00
         -2   -1    0    0    0  501 -0.00000000000E+00  0.00000000000E+00  0.10356365353E+04  0.10356365353E+04  0.25500000000E-02 0.  1.
          2   -1    0    0  501    0  0.00000000000E+00 -0.00000000000E+00 -0.56654426557E+03  0.56654426557E+03  0.25500000000E-02 0. -1.
    8880022    1    1    2    0    0 -0.10224111497E+03 -0.18728835225E+03  0.98711634910E+03  0.10214306203E+04  0.15294330000E+03 0.  0.
    8880022    1    1    2    0    0  0.10224111497E+03  0.18728835225E+03 -0.51802407933E+03  0.58075018059E+03  0.15294330000E+03 0.  0.
<mgrwt>
<rscale>  0 0.26252967E+03</rscale>
<asrwt>0</asrwt>
<pdfrwt beam="1">  1        2 0.87160657E-01 0.26252967E+03</pdfrwt>
<pdfrwt beam="2">  1       -2 0.15932870E+00 0.26252967E+03</pdfrwt>
<totfact> 0.14845278E+01</totfact>
</mgrwt>
</event>
<event>
 4    1  0.5387657E-008  0.2573825E+03  0.7818608E-02  0.1108726E+00
          2   -1    0    0  501    0  0.00000000000E+00  0.00000000000E+00  0.26985384632E+04  0.26985384632E+04  0.25500000000E-02 0. -1.
         -2   -1    0    0    0  501 -0.00000000000E+00 -0.00000000000E+00 -0.29634556800E+02  0.29634556910E+02  0.25500000000E-02 0.  1.
    8880022    1    1    2    0    0  0.16928455455E+03  0.11915042754E+03  0.76935527027E+03  0.81126646035E+03  0.15294330000E+03 0.  0.
    8880022    1    1    2    0    0 -0.16928455455E+03 -0.11915042754E+03  0.18995486362E+04  0.19169065598E+04  0.15294330000E+03 0.  0.
<mgrwt>
<rscale>  0 0.25738247E+03</rscale>
<asrwt>0</asrwt>
<pdfrwt beam="1">  1        2 0.41515983E+00 0.25738247E+03</pdfrwt>
<pdfrwt beam="2">  1       -2 0.45591619E-02 0.25738247E+03</pdfrwt>
<totfact> 0.70312402E+02</totfact>
</mgrwt>
</event>
<event>
 4    1  0.5387657E-008  0.9622545E+03  0.7818608E-02  0.9350941E-01
          2   -1    0    0  501    0  0.00000000000E+00  0.00000000000E+00  0.99005809737E+03  0.99005809737E+03  0.25500000000E-02 0. -1.
         -2   -1    0    0    0  501 -0.00000000000E+00 -0.00000000000E+00 -0.15048248243E+04  0.15048248243E+04  0.25500000000E-02 0.  1.
    8880022    1    1    2    0    0  0.73421252203E+03  0.60288808713E+03  0.51008338257E+03  0.10890908058E+04  0.15294330000E+03 0.  0.
    8880022    1    1    2    0    0 -0.73421252203E+03 -0.60288808713E+03 -0.10248501095E+04  0.14057921159E+04  0.15294330000E+03 0.  0.
<mgrwt>
<rscale>  0 0.96225450E+03</rscale>
<asrwt>0</asrwt>
<pdfrwt beam="1">  1        2 0.15231663E+00 0.96225450E+03</pdfrwt>
<pdfrwt beam="2">  1       -2 0.23151151E+00 0.96225450E+03</pdfrwt>
<totfact> 0.21371872E+00</totfact>
</mgrwt>
</event>
<event>
 4    1  0.5387657E-008  0.8307096E+03  0.7818608E-02  0.9516600E-01
          2   -1    0    0  501    0  0.00000000000E+00  0.00000000000E+00  0.40334067085E+03  0.40334067086E+03  0.25500000000E-02 0. -1.
         -2   -1    0    0    0  501 -0.00000000000E+00 -0.00000000000E+00 -0.22504501895E+04  0.22504501895E+04  0.25500000000E-02 0.  1.
    8880022    1    1    2    0    0  0.67432221597E+03 -0.46040880765E+03 -0.15732581099E+04  0.17791063640E+04  0.15294330000E+03 0.  0.
    8880022    1    1    2    0    0 -0.67432221597E+03  0.46040880765E+03 -0.27385140881E+03  0.87468449640E+03  0.15294330000E+03 0.  0.
<mgrwt>
<rscale>  0 0.83070956E+03</rscale>
<asrwt>0</asrwt>
<pdfrwt beam="1">  1        2 0.62052412E-01 0.83070956E+03</pdfrwt>
<pdfrwt beam="2">  1       -2 0.34622310E+00 0.83070956E+03</pdfrwt>
<totfact> 0.13450505E+00</totfact>
</mgrwt>
</event>
<event>
 4    1  0.5387657E-008  0.4375339E+03  0.7818608E-02  0.1031506E+00
         -2   -1    0    0    0  501 -0.00000000000E+00  0.00000000000E+00  0.28613811505E+03  0.28613811506E+03  0.25500000000E-02 0.  1.
          2   -1    0    0  501    0  0.00000000000E+00 -0.00000000000E+00 -0.20109788621E+04  0.20109788621E+04  0.25500000000E-02 0. -1.
    8880022    1    1    2    0    0  0.33270283605E+03 -0.23948507561E+03 -0.18006665643E+04  0.18530612530E+04  0.15294330000E+03 0. -1.
    8880022    1    1    2    0    0 -0.33270283605E+03  0.23948507561E+03  0.75825817282E+02  0.44405572414E+03  0.15294330000E+03 0.  0.
<mgrwt>
<rscale>  0 0.43753392E+03</rscale>
<asrwt>0</asrwt>
<pdfrwt beam="1">  1        2 0.30938135E+00 0.43753392E+03</pdfrwt>
<pdfrwt beam="2">  1       -2 0.44021250E-01 0.43753392E+03</pdfrwt>
<totfact> 0.35071424E+01</totfact>
</mgrwt>
</event>
<event>
 4    1  0.5387657E-008  0.3598716E+03  0.7818608E-02  0.1058635E+00
          2   -1    0    0  501    0  0.00000000000E+00  0.00000000000E+00  0.22003729384E+04  0.22003729384E+04  0.25500000000E-02 0. -1.
         -2   -1    0    0    0  501 -0.00000000000E+00 -0.00000000000E+00 -0.19282706188E+03  0.19282706189E+03  0.25500000000E-02 0.  1.
    8880022    1    1    2    0    0  0.16709661431E+03  0.27963303938E+03  0.63744058669E+01  0.35992805016E+03  0.15294330000E+03 0.  0.
    8880022    1    1    2    0    0 -0.16709661431E+03 -0.27963303938E+03  0.20011714706E+04  0.20332719501E+04  0.15294330000E+03 0.  0.
<mgrwt>
<rscale>  0 0.35987160E+03</rscale>
<asrwt>0</asrwt>
<pdfrwt beam="1">  1        2 0.33851890E+00 0.35987160E+03</pdfrwt>
<pdfrwt beam="2">  1       -2 0.29665703E-01 0.35987160E+03</pdfrwt>
<totfact> 0.59779333E+01</totfact>
</mgrwt>
</event>
<event>
 4    1  0.5387657E-008  0.2115567E+03  0.7818608E-02  0.1140339E+00
          2   -1    0    0  501    0  0.00000000000E+00  0.00000000000E+00  0.56354541758E+03  0.56354541758E+03  0.25500000000E-02 0. -1.
         -2   -1    0    0    0  501 -0.00000000000E+00 -0.00000000000E+00 -0.97399099187E+02  0.97399099220E+02  0.25500000000E-02 0.  1.
    8880022    1    1    2    0    0 -0.64650204084E+02 -0.13109139910E+03  0.91084828937E+02  0.23033172357E+03  0.15294330000E+03 0.  0.
    8880022    1    1    2    0    0  0.64650204084E+02  0.13109139910E+03  0.37506148945E+03  0.43061279323E+03  0.15294330000E+03 0.  1.
<mgrwt>
<rscale>  0 0.21155675E+03</rscale>
<asrwt>0</asrwt>
<pdfrwt beam="1">  1        2 0.86699293E-01 0.21155675E+03</pdfrwt>
<pdfrwt beam="2">  1       -2 0.14984477E-01 0.21155675E+03</pdfrwt>
<totfact> 0.18513653E+03</totfact>
</mgrwt>
</event>
<event>
 4    1  0.5387657E-008  0.4185250E+03  0.7818608E-02  0.1037547E+00
          2   -1    0    0  501    0  0.00000000000E+00  0.00000000000E+00  0.65009319274E+03  0.65009319274E+03  0.25500000000E-02 0. -1.
         -2   -1    0    0    0  501 -0.00000000000E+00 -0.00000000000E+00 -0.64523254144E+03  0.64523254144E+03  0.25500000000E-02 0.  1.
    8880022    1    1    2    0    0  0.10274780946E+03 -0.37578510250E+03  0.49669899176E+03  0.64951758793E+03  0.15294330000E+03 0.  0.
    8880022    1    1    2    0    0 -0.10274780946E+03  0.37578510250E+03 -0.49183834046E+03  0.64580814625E+03  0.15294330000E+03 0.  0.
<mgrwt>
<rscale>  0 0.41852504E+03</rscale>
<asrwt>0</asrwt>
<pdfrwt beam="1">  1        2 0.10001434E+00 0.41852504E+03</pdfrwt>
<pdfrwt beam="2">  1       -2 0.99266544E-01 0.41852504E+03</pdfrwt>
<totfact> 0.39596228E+01</totfact>
</mgrwt>
</event>
<event>
 4    1  0.5387657E-008  0.3180127E+03  0.7818608E-02  0.1076568E+00
         -2   -1    0    0    0  501 -0.00000000000E+00  0.00000000000E+00  0.10811690778E+03  0.10811690781E+03  0.25500000000E-02 0.  1.
          2   -1    0    0  501    0  0.00000000000E+00 -0.00000000000E+00 -0.12709474126E+04  0.12709474126E+04  0.25500000000E-02 0. -1.
    8880022    1    1    2    0    0  0.33623800728E+02  0.27678484350E+03 -0.93571482957E+03  0.98827845512E+03  0.15294330000E+03 0.  0.
    8880022    1    1    2    0    0 -0.33623800728E+02 -0.27678484350E+03 -0.22711567529E+03  0.39078586533E+03  0.15294330000E+03 0.  0.
<mgrwt>
<rscale>  0 0.31801268E+03</rscale>
<asrwt>0</asrwt>
<pdfrwt beam="1">  1        2 0.19553036E+00 0.31801268E+03</pdfrwt>
<pdfrwt beam="2">  1       -2 0.16633371E-01 0.31801268E+03</pdfrwt>
<totfact> 0.52422480E+02</totfact>
</mgrwt>
</event>
<event>
 4    1  0.5387657E-008  0.3131692E+03  0.7818608E-02  0.1078837E+00
          2   -1    0    0  501    0  0.00000000000E+00  0.00000000000E+00  0.22118231152E+04  0.22118231152E+04  0.25500000000E-02 0. -1.
         -2   -1    0    0    0  501 -0.00000000000E+00 -0.00000000000E+00 -0.57541906547E+02  0.57541906603E+02  0.25500000000E-02 0.  1.
    8880022    1    1    2    0    0  0.26852543798E+03  0.50767767097E+02  0.53366439612E+03  0.61876701408E+03  0.15294330000E+03 0.  0.
    8880022    1    1    2    0    0 -0.26852543798E+03 -0.50767767097E+02  0.16206168125E+04  0.16505980077E+04  0.15294330000E+03 0.  0.
<mgrwt>
<rscale>  0 0.31316917E+03</rscale>
<asrwt>0</asrwt>
<pdfrwt beam="1">  1        2 0.34028049E+00 0.31316917E+03</pdfrwt>
<pdfrwt beam="2">  1       -2 0.88526006E-02 0.31316917E+03</pdfrwt>
<totfact> 0.45952164E+02</totfact>
</mgrwt>
</event>
<event>
 4    1  0.5387657E-008  0.9619355E+03  0.7818608E-02  0.9351308E-01
         -2   -1    0    0    0  501 -0.00000000000E+00  0.00000000000E+00  0.21523251665E+04  0.21523251665E+04  0.25500000000E-02 0.  1.
          2   -1    0    0  501    0  0.00000000000E+00 -0.00000000000E+00 -0.84392623440E+03  0.84392623440E+03  0.25500000000E-02 0. -1.
    8880022    1    1    2    0    0  0.49298404251E+03 -0.81172348610E+03  0.17035034632E+04  0.19563343237E+04  0.15294330000E+03 0.  0.
    8880022    1    1    2    0    0 -0.49298404251E+03  0.81172348610E+03 -0.39510453103E+03  0.10399170772E+04  0.15294330000E+03 0.  0.
<mgrwt>
<rscale>  0 0.96193552E+03</rscale>
<asrwt>0</asrwt>
<pdfrwt beam="1">  1        2 0.12983481E+00 0.96193552E+03</pdfrwt>
<pdfrwt beam="2">  1       -2 0.33112695E+00 0.96193552E+03</pdfrwt>
<totfact> 0.66439406E-01</totfact>
</mgrwt>
</event>
<event>
 4    1  0.5387657E-008  0.2560034E+03  0.7818608E-02  0.1109569E+00
          2   -1    0    0  501    0  0.00000000000E+00  0.00000000000E+00  0.14028952898E+04  0.14028952898E+04  0.25500000000E-02 0. -1.
         -2   -1    0    0    0  501 -0.00000000000E+00 -0.00000000000E+00 -0.84470422092E+02  0.84470422131E+02  0.25500000000E-02 0.  1.
    8880022    1    1    2    0    0  0.19795511327E+03 -0.54404674896E+02  0.11563985280E+04  0.11843965992E+04  0.15294330000E+03 0.  0.
    8880022    1    1    2    0    0 -0.19795511327E+03  0.54404674896E+02  0.16202633970E+03  0.30296911277E+03  0.15294330000E+03 0.  1.
<mgrwt>
<rscale>  0 0.25600342E+03</rscale>
<asrwt>0</asrwt>
<pdfrwt beam="1">  1        2 0.21583005E+00 0.25600342E+03</pdfrwt>
<pdfrwt beam="2">  1       -2 0.12995449E-01 0.25600342E+03</pdfrwt>
<totfact> 0.67158925E+02</totfact>
</mgrwt>
</event>
<event>
 4    1  0.5387657E-008  0.5755050E+03  0.7818608E-02  0.9957570E-01
          2   -1    0    0  501    0  0.00000000000E+00  0.00000000000E+00  0.56689866285E+03  0.56689866286E+03  0.25500000000E-02 0. -1.
         -2   -1    0    0    0  501 -0.00000000000E+00 -0.00000000000E+00 -0.10598975384E+04  0.10598975384E+04  0.25500000000E-02 0.  1.
    8880022    1    1    2    0    0 -0.32157332289E+01 -0.55480087581E+03  0.29840142234E+03  0.64826646882E+03  0.15294330000E+03 0. -1.
    8880022    1    1    2    0    0  0.32157332289E+01  0.55480087581E+03 -0.79140029786E+03  0.97852973241E+03  0.15294330000E+03 0.  0.
<mgrwt>
<rscale>  0 0.57550500E+03</rscale>
<asrwt>0</asrwt>
<pdfrwt beam="1">  1        2 0.87215179E-01 0.57550500E+03</pdfrwt>
<pdfrwt beam="2">  1       -2 0.16306116E+00 0.57550500E+03</pdfrwt>
<totfact> 0.13152700E+01</totfact>
</mgrwt>
</event>
<event>
 4    1  0.5387657E-008  0.3257562E+03  0.7818608E-02  0.1073030E+00
          2   -1    0    0  501    0  0.00000000000E+00  0.00000000000E+00  0.28742710490E+04  0.28742710490E+04  0.25500000000E-02 0. -1.
         -2   -1    0    0    0  501 -0.00000000000E+00 -0.00000000000E+00 -0.67874640951E+02  0.67874640999E+02  0.25500000000E-02 0.  1.
    8880022    1    1    2    0    0 -0.12494207756E+03 -0.25906551977E+03  0.40974902818E+03  0.52346096835E+03  0.15294330000E+03 0.  0.
    8880022    1    1    2    0    0  0.12494207756E+03  0.25906551977E+03  0.23966473799E+04  0.24186847217E+04  0.15294330000E+03 0. -1.
<mgrwt>
<rscale>  0 0.32575623E+03</rscale>
<asrwt>0</asrwt>
<pdfrwt beam="1">  1        2 0.44219548E+00 0.32575623E+03</pdfrwt>
<pdfrwt beam="2">  1       -2 0.10442254E-01 0.32575623E+03</pdfrwt>
<totfact> 0.15074403E+02</totfact>
</mgrwt>
</event>
<event>
 4    1  0.5387657E-008  0.2756840E+03  0.7818608E-02  0.1098070E+00
         -2   -1    0    0    0  501 -0.00000000000E+00  0.00000000000E+00  0.91602370573E+02  0.91602370609E+02  0.25500000000E-02 0.  1.
          2   -1    0    0  501    0  0.00000000000E+00 -0.00000000000E+00 -0.10185255316E+04  0.10185255316E+04  0.25500000000E-02 0. -1.
    8880022    1    1    2    0    0 -0.14280060536E+03 -0.17949377585E+03 -0.70246137733E+03  0.75462153966E+03  0.15294330000E+03 0.  0.
    8880022    1    1    2    0    0  0.14280060536E+03  0.17949377585E+03 -0.22446178368E+03  0.35550636254E+03  0.15294330000E+03 0.  0.
<mgrwt>
<rscale>  0 0.27568402E+03</rscale>
<asrwt>0</asrwt>
<pdfrwt beam="1">  1        2 0.15669623E+00 0.27568402E+03</pdfrwt>
<pdfrwt beam="2">  1       -2 0.14092673E-01 0.27568402E+03</pdfrwt>
<totfact> 0.97286469E+02</totfact>
</mgrwt>
</event>
<event>
 4    1  0.5751327E-008  0.8042804E+03  0.7818608E-02  0.9553842E-01
          2   -1    0    0  501    0  0.00000000000E+00  0.00000000000E+00  0.15852254044E+04  0.15852254044E+04  0.25500000000E-02 0. -1.
         -2   -1    0    0    0  501 -0.00000000000E+00 -0.00000000000E+00 -0.14464774676E+04  0.14464774676E+04  0.25500000000E-02 0.  1.
    8880022    1    1    2    0    0 -0.43018277420E+03 -0.66213143515E+03  0.13537341055E+04  0.15746310482E+04  0.15294330000E+03 0.  0.
    8880022    1    1    2    0    0  0.43018277420E+03  0.66213143515E+03 -0.12149861686E+04  0.14570718238E+04  0.15294330000E+03 0.  0.
<mgrwt>
<rscale>  0 0.80428037E+03</rscale>
<asrwt>0</asrwt>
<pdfrwt beam="1">  1        2 0.24388083E+00 0.80428037E+03</pdfrwt>
<pdfrwt beam="2">  1       -2 0.22253500E+00 0.80428037E+03</pdfrwt>
<totfact> 0.11126534E+00</totfact>
</mgrwt>
</event>
<event>
 4    1  0.5387657E-008  0.1366349E+04  0.7818608E-02  0.8978543E-01
          2   -1    0    0  501    0  0.00000000000E+00  0.00000000000E+00  0.20034540117E+04  0.20034540117E+04  0.25500000000E-02 0. -1.
         -2   -1    0    0    0  501 -0.00000000000E+00 -0.00000000000E+00 -0.13074586114E+04  0.13074586114E+04  0.25500000000E-02 0.  1.
    8880022    1    1    2    0    0 -0.87669741320E+03  0.10367838357E+04 -0.53930907274E+03  0.14689332882E+04  0.15294330000E+03 0.  0.
    8880022    1    1    2    0    0  0.87669741320E+03 -0.10367838357E+04  0.12353044731E+04  0.18419793350E+04  0.15294330000E+03 0.  0.
<mgrwt>
<rscale>  0 0.13663494E+04</rscale>
<asrwt>0</asrwt>
<pdfrwt beam="1">  1        2 0.30822369E+00 0.13663494E+04</pdfrwt>
<pdfrwt beam="2">  1       -2 0.20114748E+00 0.13663494E+04</pdfrwt>
<totfact> 0.82824539E-01</totfact>
</mgrwt>
</event>
<event>
 4    1  0.5998112E-008  0.9719190E+03  0.7818608E-02  0.9339891E-01
         -2   -1    0    0    0  501 -0.00000000000E+00  0.00000000000E+00  0.12149722299E+04  0.12149722299E+04  0.25500000000E-02 0.  1.
          2   -1    0    0  501    0  0.00000000000E+00 -0.00000000000E+00 -0.25542143979E+04  0.25542143979E+04  0.25500000000E-02 0. -1.
    8880022    1    1    2    0    0  0.95978497889E+03 -0.69067485789E+01 -0.22414281100E+04  0.24430772674E+04  0.15294330000E+03 0.  0.
    8880022    1    1    2    0    0 -0.95978497889E+03  0.69067485789E+01  0.90218594206E+03  0.13261093605E+04  0.15294330000E+03 0.  0.
<mgrwt>
<rscale>  0 0.97191901E+03</rscale>
<asrwt>0</asrwt>
<pdfrwt beam="1">  1        2 0.39295606E+00 0.97191901E+03</pdfrwt>
<pdfrwt beam="2">  1       -2 0.18691881E+00 0.97191901E+03</pdfrwt>
<totfact> 0.53269546E-01</totfact>
</mgrwt>
</event>
<event>
 4    1  0.5387657E-008  0.6292139E+03  0.7818608E-02  0.9846584E-01
          2   -1    0    0  501    0  0.00000000000E+00  0.00000000000E+00  0.35626685576E+03  0.35626685577E+03  0.25500000000E-02 0. -1.
         -2   -1    0    0    0  501 -0.00000000000E+00 -0.00000000000E+00 -0.12281127264E+04  0.12281127264E+04  0.25500000000E-02 0.  1.
    8880022    1    1    2    0    0  0.17532517180E+03 -0.58461918226E+03 -0.68026779243E+03  0.92664687263E+03  0.15294330000E+03 0.  0.
    8880022    1    1    2    0    0 -0.17532517180E+03  0.58461918226E+03 -0.19157807822E+03  0.65773270954E+03  0.15294330000E+03 0.  0.
<mgrwt>
<rscale>  0 0.62921392E+03</rscale>
<asrwt>0</asrwt>
<pdfrwt beam="1">  1        2 0.54810286E-01 0.62921392E+03</pdfrwt>
<pdfrwt beam="2">  1       -2 0.18894042E+00 0.62921392E+03</pdfrwt>
<totfact> 0.14685514E+01</totfact>
</mgrwt>
</event>
<event>
 4    1  0.5387657E-008  0.1238970E+04  0.7818608E-02  0.9079413E-01
          2   -1    0    0  501    0  0.00000000000E+00  0.00000000000E+00  0.13290260167E+04  0.13290260167E+04  0.25500000000E-02 0. -1.
         -2   -1    0    0    0  501 -0.00000000000E+00 -0.00000000000E+00 -0.13890047239E+04  0.13890047239E+04  0.25500000000E-02 0.  1.
    8880022    1    1    2    0    0 -0.29518867778E+02 -0.12291398514E+04  0.52779835530E+03  0.13467066847E+04  0.15294330000E+03 0.  0.
    8880022    1    1    2    0    0  0.29518867778E+02  0.12291398514E+04 -0.58777706253E+03  0.13713240558E+04  0.15294330000E+03 0.  0.
<mgrwt>
<rscale>  0 0.12389705E+04</rscale>
<asrwt>0</asrwt>
<pdfrwt beam="1">  1        2 0.20446554E+00 0.12389705E+04</pdfrwt>
<pdfrwt beam="2">  1       -2 0.21369303E+00 0.12389705E+04</pdfrwt>
<totfact> 0.16663460E+00</totfact>
</mgrwt>
</event>
<event>
 4    1  0.5387657E-008  0.1184641E+04  0.7818608E-02  0.9126408E-01
          2   -1    0    0  501    0  0.00000000000E+00  0.00000000000E+00  0.46610042738E+04  0.46610042738E+04  0.25500000000E-02 0. -1.
         -2   -1    0    0    0  501 -0.00000000000E+00 -0.00000000000E+00 -0.70222020162E+03  0.70222020163E+03  0.25500000000E-02 0.  1.
    8880022    1    1    2    0    0 -0.18130640696E+03  0.11606505593E+04  0.40061550700E+04  0.41776371111E+04  0.15294330000E+03 0.  0.
    8880022    1    1    2    0    0  0.18130640696E+03 -0.11606505593E+04 -0.47370997890E+02  0.11855873643E+04  0.15294330000E+03 0.  0.
<mgrwt>
<rscale>  0 0.11846406E+04</rscale>
<asrwt>0</asrwt>
<pdfrwt beam="1">  1        2 0.71707758E+00 0.11846406E+04</pdfrwt>
<pdfrwt beam="2">  1       -2 0.10803388E+00 0.11846406E+04</pdfrwt>
<totfact> 0.60167426E-02</totfact>
</mgrwt>
</event>
<event>
 4    1  0.5387657E-008  0.3110738E+03  0.7818608E-02  0.1079832E+00
          2   -1    0    0  501    0  0.00000000000E+00  0.00000000000E+00  0.24566197274E+04  0.24566197274E+04  0.25500000000E-02 0. -1.
         -2   -1    0    0    0  501 -0.00000000000E+00 -0.00000000000E+00 -0.68621740533E+02  0.68621740580E+02  0.25500000000E-02 0.  1.
    8880022    1    1    2    0    0 -0.11579563738E+03 -0.24488089987E+03  0.36992290406E+03  0.48333207292E+03  0.15294330000E+03 0.  0.
    8880022    1    1    2    0    0  0.11579563738E+03  0.24488089987E+03  0.20180750828E+04  0.20419093950E+04  0.15294330000E+03 0.  0.
<mgrwt>
<rscale>  0 0.31107385E+03</rscale>
<asrwt>0</asrwt>
<pdfrwt beam="1">  1        2 0.37794148E+00 0.31107385E+03</pdfrwt>
<pdfrwt beam="2">  1       -2 0.10557191E-01 0.31107385E+03</pdfrwt>
<totfact> 0.25577276E+02</totfact>
</mgrwt>
</event>
<event>
 4    1  0.5387657E-008  0.5150111E+03  0.7818608E-02  0.1009933E+00
         -2   -1    0    0    0  501 -0.00000000000E+00  0.00000000000E+00  0.14237734185E+03  0.14237734187E+03  0.25500000000E-02 0.  1.
          2   -1    0    0  501    0  0.00000000000E+00 -0.00000000000E+00 -0.31043973024E+04  0.31043973024E+04  0.25500000000E-02 0. -1.
    8880022    1    1    2    0    0  0.48214293347E+03 -0.96865588172E+02 -0.25076173091E+04  0.25599572209E+04  0.15294330000E+03 0.  0.
    8880022    1    1    2    0    0 -0.48214293347E+03  0.96865588172E+02 -0.45440265136E+03  0.68681742337E+03  0.15294330000E+03 0.  0.
<mgrwt>
<rscale>  0 0.51501107E+03</rscale>
<asrwt>0</asrwt>
<pdfrwt beam="1">  1        2 0.47759953E+00 0.51501107E+03</pdfrwt>
<pdfrwt beam="2">  1       -2 0.21904209E-01 0.51501107E+03</pdfrwt>
<totfact> 0.30161037E+01</totfact>
</mgrwt>
</event>
<event>
 4    1  0.5387657E-008  0.2164182E+03  0.7818608E-02  0.1136582E+00
          2   -1    0    0  501    0  0.00000000000E+00  0.00000000000E+00  0.88606938971E+03  0.88606938971E+03  0.25500000000E-02 0. -1.
         -2   -1    0    0    0  501 -0.00000000000E+00 -0.00000000000E+00 -0.24581047750E+03  0.24581047751E+03  0.25500000000E-02 0.  1.
    8880022    1    1    2    0    0  0.26111029690E+02 -0.15087548116E+03  0.82154069193E+03  0.84956810098E+03  0.15294330000E+03 0. -1.
    8880022    1    1    2    0    0 -0.26111029690E+02  0.15087548116E+03 -0.18128177972E+03  0.28231176625E+03  0.15294330000E+03 0.  0.
<mgrwt>
<rscale>  0 0.21641823E+03</rscale>
<asrwt>0</asrwt>
<pdfrwt beam="1">  1        2 0.13631837E+00 0.21641823E+03</pdfrwt>
<pdfrwt beam="2">  1       -2 0.37816996E-01 0.21641823E+03</pdfrwt>
<totfact> 0.20958300E+02</totfact>
</mgrwt>
</event>
<event>
 4    1  0.5387657E-008  0.4902428E+03  0.7818608E-02  0.1016358E+00
         -2   -1    0    0    0  501 -0.00000000000E+00  0.00000000000E+00  0.10341446806E+04  0.10341446806E+04  0.25500000000E-02 0.  1.
          2   -1    0    0  501    0  0.00000000000E+00 -0.00000000000E+00 -0.10702270720E+04  0.10702270720E+04  0.25500000000E-02 0. -1.
    8880022    1    1    2    0    0 -0.33455053410E+03  0.32407150244E+03 -0.94900112332E+03  0.10681484839E+04  0.15294330000E+03 0.  0.
    8880022    1    1    2    0    0  0.33455053410E+03 -0.32407150244E+03  0.91291873195E+03  0.10362232688E+04  0.15294330000E+03 0.  0.
<mgrwt>
<rscale>  0 0.49024285E+03</rscale>
<asrwt>0</asrwt>
<pdfrwt beam="1">  1        2 0.16465032E+00 0.49024285E+03</pdfrwt>
<pdfrwt beam="2">  1       -2 0.15909918E+00 0.49024285E+03</pdfrwt>
<totfact> 0.61936722E+00</totfact>
</mgrwt>
</event>
<event>
 4    1  0.5387657E-008  0.2776743E+03  0.7818608E-02  0.1096966E+00
         -2   -1    0    0    0  501 -0.00000000000E+00  0.00000000000E+00  0.91746290416E+02  0.91746290452E+02  0.25500000000E-02 0.  1.
          2   -1    0    0  501    0  0.00000000000E+00 -0.00000000000E+00 -0.20788769209E+04  0.20788769209E+04  0.25500000000E-02 0. -1.
    8880022    1    1    2    0    0 -0.20719633318E+03 -0.10383184849E+03 -0.18312586890E+04  0.18521909762E+04  0.15294330000E+03 0.  0.
    8880022    1    1    2    0    0  0.20719633318E+03  0.10383184849E+03 -0.15587194152E+03  0.31843223520E+03  0.15294330000E+03 0.  1.
<mgrwt>
<rscale>  0 0.27767432E+03</rscale>
<asrwt>0</asrwt>
<pdfrwt beam="1">  1        2 0.31982718E+00 0.27767432E+03</pdfrwt>
<pdfrwt beam="2">  1       -2 0.14114815E-01 0.27767432E+03</pdfrwt>
<totfact> 0.25631864E+02</totfact>
</mgrwt>
</event>
<event>
 4    1  0.5387657E-008  0.4116441E+03  0.7818608E-02  0.1039821E+00
          2   -1    0    0  501    0  0.00000000000E+00  0.00000000000E+00  0.88501737600E+02  0.88501737636E+02  0.25500000000E-02 0. -1.
         -2   -1    0    0    0  501 -0.00000000000E+00 -0.00000000000E+00 -0.20201840447E+04  0.20201840447E+04  0.25500000000E-02 0.  1.
    8880022    1    1    2    0    0 -0.14508319293E+03  0.35356763387E+03 -0.72487318579E+03  0.83360181926E+03  0.15294330000E+03 0.  0.
    8880022    1    1    2    0    0  0.14508319293E+03 -0.35356763387E+03 -0.12068091213E+04  0.12750839631E+04  0.15294330000E+03 0.  0.
<mgrwt>
<rscale>  0 0.41164409E+03</rscale>
<asrwt>0</asrwt>
<pdfrwt beam="1">  1        2 0.13615653E-01 0.41164409E+03</pdfrwt>
<pdfrwt beam="2">  1       -2 0.31079751E+00 0.41164409E+03</pdfrwt>
<totfact> 0.13435100E+01</totfact>
</mgrwt>
</event>
<event>
 4    1  0.5387657E-008  0.4112998E+03  0.7818608E-02  0.1039936E+00
          2   -1    0    0  501    0  0.00000000000E+00  0.00000000000E+00  0.13868276095E+04  0.13868276095E+04  0.25500000000E-02 0. -1.
         -2   -1    0    0    0  501 -0.00000000000E+00 -0.00000000000E+00 -0.33132871846E+03  0.33132871847E+03  0.25500000000E-02 0.  1.
    8880022    1    1    2    0    0  0.86939805991E+02 -0.37177589380E+03  0.12106171886E+04  0.12785779114E+04  0.15294330000E+03 0. -1.
    8880022    1    1    2    0    0 -0.86939805991E+02  0.37177589380E+03 -0.15511829758E+03  0.43957841659E+03  0.15294330000E+03 0.  0.
<mgrwt>
<rscale>  0 0.41129977E+03</rscale>
<asrwt>0</asrwt>
<pdfrwt beam="1">  1        2 0.21335810E+00 0.41129977E+03</pdfrwt>
<pdfrwt beam="2">  1       -2 0.50973648E-01 0.41129977E+03</pdfrwt>
<totfact> 0.57124268E+01</totfact>
</mgrwt>
</event>
<event>
 4    1  0.5387657E-008  0.3673835E+03  0.7818608E-02  0.1055698E+00
         -2   -1    0    0    0  501 -0.00000000000E+00  0.00000000000E+00  0.36805724211E+03  0.36805724211E+03  0.25500000000E-02 0.  1.
          2   -1    0    0  501    0  0.00000000000E+00 -0.00000000000E+00 -0.24818423149E+04  0.24818423149E+04  0.25500000000E-02 0. -1.
    8880022    1    1    2    0    0 -0.73478797000E+02  0.32585248321E+03  0.25857803412E+03  0.44925853044E+03  0.15294330000E+03 0.  1.
    8880022    1    1    2    0    0  0.73478797000E+02 -0.32585248321E+03 -0.23723631069E+04  0.24006410265E+04  0.15294330000E+03 0.  0.
<mgrwt>
<rscale>  0 0.36738349E+03</rscale>
<asrwt>0</asrwt>
<pdfrwt beam="1">  1        2 0.38182188E+00 0.36738349E+03</pdfrwt>
<pdfrwt beam="2">  1       -2 0.56624193E-01 0.36738349E+03</pdfrwt>
<totfact> 0.11957414E+01</totfact>
</mgrwt>
</event>
<event>
 4    1  0.5387657E-008  0.2645773E+03  0.7818608E-02  0.1104424E+00
          2   -1    0    0  501    0  0.00000000000E+00  0.00000000000E+00  0.25972543771E+04  0.25972543771E+04  0.25500000000E-02 0. -1.
         -2   -1    0    0    0  501 -0.00000000000E+00 -0.00000000000E+00 -0.86929518275E+02  0.86929518312E+02  0.25500000000E-02 0.  1.
    8880022    1    1    2    0    0  0.88290040991E+02  0.19701359849E+03  0.23699521628E+04  0.23846749037E+04  0.15294330000E+03 0. -1.
    8880022    1    1    2    0    0 -0.88290040991E+02 -0.19701359849E+03  0.14037269606E+03  0.29950899176E+03  0.15294330000E+03 0.  0.
<mgrwt>
<rscale>  0 0.26457729E+03</rscale>
<asrwt>0</asrwt>
<pdfrwt beam="1">  1        2 0.39957761E+00 0.26457729E+03</pdfrwt>
<pdfrwt beam="2">  1       -2 0.13373772E-01 0.26457729E+03</pdfrwt>
<totfact> 0.14762759E+02</totfact>
</mgrwt>
</event>
<event>
 4    1  0.5387657E-008  0.8041755E+03  0.7818608E-02  0.9553993E-01
          2   -1    0    0  501    0  0.00000000000E+00  0.00000000000E+00  0.45021424406E+03  0.45021424407E+03  0.25500000000E-02 0. -1.
         -2   -1    0    0    0  501 -0.00000000000E+00 -0.00000000000E+00 -0.20683017879E+04  0.20683017879E+04  0.25500000000E-02 0.  1.
    8880022    1    1    2    0    0 -0.65040410379E+03 -0.44752767389E+03 -0.15050683911E+04  0.17064375265E+04  0.15294330000E+03 0.  0.
    8880022    1    1    2    0    0  0.65040410379E+03  0.44752767389E+03 -0.11301915279E+03  0.81207850546E+03  0.15294330000E+03 0.  0.
<mgrwt>
<rscale>  0 0.80417546E+03</rscale>
<asrwt>0</asrwt>
<pdfrwt beam="1">  1        2 0.69263731E-01 0.80417546E+03</pdfrwt>
<pdfrwt beam="2">  1       -2 0.31820027E+00 0.80417546E+03</pdfrwt>
<totfact> 0.17708606E+00</totfact>
</mgrwt>
</event>
<event>
 4    1  0.5387657E-008  0.7920674E+03  0.7818608E-02  0.9571571E-01
         -2   -1    0    0    0  501 -0.00000000000E+00  0.00000000000E+00  0.93380940125E+03  0.93380940126E+03  0.25500000000E-02 0.  1.
          2   -1    0    0  501    0  0.00000000000E+00 -0.00000000000E+00 -0.76252968051E+03  0.76252968051E+03  0.25500000000E-02 0. -1.
    8880022    1    1    2    0    0 -0.61659523652E+03 -0.47306391033E+03 -0.20686459017E+03  0.81863530381E+03  0.15294330000E+03 0. -1.
    8880022    1    1    2    0    0  0.61659523652E+03  0.47306391033E+03  0.37814431091E+03  0.87770377796E+03  0.15294330000E+03 0.  0.
<mgrwt>
<rscale>  0 0.79206742E+03</rscale>
<asrwt>0</asrwt>
<pdfrwt beam="1">  1        2 0.11731226E+00 0.79206742E+03</pdfrwt>
<pdfrwt beam="2">  1       -2 0.14366299E+00 0.79206742E+03</pdfrwt>
<totfact> 0.12456487E+01</totfact>
</mgrwt>
</event>
<event>
 4    1  0.5387657E-008  0.7734749E+03  0.7818608E-02  0.9599225E-01
          2   -1    0    0  501    0  0.00000000000E+00  0.00000000000E+00  0.25105111434E+04  0.25105111434E+04  0.25500000000E-02 0. -1.
         -2   -1    0    0    0  501 -0.00000000000E+00 -0.00000000000E+00 -0.28293499632E+03  0.28293499633E+03  0.25500000000E-02 0.  1.
    8880022    1    1    2    0    0  0.75362808025E+02 -0.75444827851E+03  0.16685262409E+04  0.18390876073E+04  0.15294330000E+03 0.  0.
    8880022    1    1    2    0    0 -0.75362808025E+02  0.75444827851E+03  0.55904990617E+03  0.95435853241E+03  0.15294330000E+03 0.  0.
<mgrwt>
<rscale>  0 0.77347489E+03</rscale>
<asrwt>0</asrwt>
<pdfrwt beam="1">  1        2 0.38623250E+00 0.77347489E+03</pdfrwt>
<pdfrwt beam="2">  1       -2 0.43528459E-01 0.77347489E+03</pdfrwt>
<totfact> 0.17914527E+01</totfact>
</mgrwt>
</event>
<event>
 4    1  0.5387657E-008  0.8207104E+03  0.7818608E-02  0.9530514E-01
         -2   -1    0    0    0  501 -0.00000000000E+00  0.00000000000E+00  0.80337022631E+03  0.80337022631E+03  0.25500000000E-02 0.  1.
          2   -1    0    0  501    0  0.00000000000E+00 -0.00000000000E+00 -0.31906290773E+04  0.31906290773E+04  0.25500000000E-02 0. -1.
    8880022    1    1    2    0    0  0.78593219009E+03  0.18023453480E+03  0.52102792036E+03  0.97212943673E+03  0.15294330000E+03 0.  0.
    8880022    1    1    2    0    0 -0.78593219009E+03 -0.18023453480E+03 -0.29082867713E+04  0.30218698669E+04  0.15294330000E+03 0.  0.
<mgrwt>
<rscale>  0 0.82071039E+03</rscale>
<asrwt>0</asrwt>
<pdfrwt beam="1">  1        2 0.49086600E+00 0.82071039E+03</pdfrwt>
<pdfrwt beam="2">  1       -2 0.12359542E+00 0.82071039E+03</pdfrwt>
<totfact> 0.68695116E-01</totfact>
</mgrwt>
</event>
<event>
 4    1  0.5387657E-008  0.9239591E+03  0.7818608E-02  0.9396117E-01
         -2   -1    0    0    0  501 -0.00000000000E+00  0.00000000000E+00  0.13772662858E+04  0.13772662858E+04  0.25500000000E-02 0.  1.
          2   -1    0    0  501    0  0.00000000000E+00 -0.00000000000E+00 -0.14274624167E+04  0.14274624168E+04  0.25500000000E-02 0. -1.
    8880022    1    1    2    0    0  0.83632001841E+03 -0.36177015369E+03  0.10297250355E+04  0.13834862193E+04  0.15294330000E+03 0.  0.
    8880022    1    1    2    0    0 -0.83632001841E+03  0.36177015369E+03 -0.10799211665E+04  0.14212424832E+04  0.15294330000E+03 0.  0.
<mgrwt>
<rscale>  0 0.92395913E+03</rscale>
<asrwt>0</asrwt>
<pdfrwt beam="1">  1        2 0.21960960E+00 0.92395913E+03</pdfrwt>
<pdfrwt beam="2">  1       -2 0.21188712E+00 0.92395913E+03</pdfrwt>
<totfact> 0.15610755E+00</totfact>
</mgrwt>
</event>
<event>
 4    1  0.5387657E-008  0.8944162E+03  0.7818608E-02  0.9432588E-01
         -2   -1    0    0    0  501 -0.00000000000E+00  0.00000000000E+00  0.68739955298E+03  0.68739955299E+03  0.25500000000E-02 0.  1.
          2   -1    0    0  501    0  0.00000000000E+00 -0.00000000000E+00 -0.23979327621E+04  0.23979327621E+04  0.25500000000E-02 0. -1.
    8880022    1    1    2    0    0  0.83459237319E+03  0.28292098741E+03 -0.19619879626E+04  0.21562414366E+04  0.15294330000E+03 0.  0.
    8880022    1    1    2    0    0 -0.83459237319E+03 -0.28292098741E+03  0.25145475344E+03  0.92909087852E+03  0.15294330000E+03 0.  0.
<mgrwt>
<rscale>  0 0.89441622E+03</rscale>
<asrwt>0</asrwt>
<pdfrwt beam="1">  1        2 0.36891273E+00 0.89441622E+03</pdfrwt>
<pdfrwt beam="2">  1       -2 0.10575378E+00 0.89441622E+03</pdfrwt>
<totfact> 0.29434147E+00</totfact>
</mgrwt>
</event>
<event>
 4    1  0.5387657E-008  0.8879154E+03  0.7818608E-02  0.9440815E-01
         -2   -1    0    0    0  501 -0.00000000000E+00  0.00000000000E+00  0.66508812977E+03  0.66508812978E+03  0.25500000000E-02 0.  1.
          2   -1    0    0  501    0  0.00000000000E+00 -0.00000000000E+00 -0.22136523205E+04  0.22136523205E+04  0.25500000000E-02 0. -1.
    8880022    1    1    2    0    0  0.25540152611E+03 -0.83652380998E+03  0.20671614237E+03  0.91166070483E+03  0.15294330000E+03 0.  0.
    8880022    1    1    2    0    0 -0.25540152611E+03  0.83652380998E+03 -0.17552803331E+04  0.19670797455E+04  0.15294330000E+03 0.  0.
<mgrwt>
<rscale>  0 0.88791535E+03</rscale>
<asrwt>0</asrwt>
<pdfrwt beam="1">  1        2 0.34056189E+00 0.88791535E+03</pdfrwt>
<pdfrwt beam="2">  1       -2 0.10232125E+00 0.88791535E+03</pdfrwt>
<totfact> 0.40428695E+00</totfact>
</mgrwt>
</event>
<event>
 4    1  0.5387657E-008  0.6289167E+03  0.7818608E-02  0.9847165E-01
          2   -1    0    0  501    0  0.00000000000E+00  0.00000000000E+00  0.45733534515E+03  0.45733534516E+03  0.25500000000E-02 0. -1.
         -2   -1    0    0    0  501 -0.00000000000E+00 -0.00000000000E+00 -0.89942848828E+03  0.89942848828E+03  0.25500000000E-02 0.  1.
    8880022    1    1    2    0    0 -0.52432461671E+03 -0.31181443833E+03 -0.88074531155E+02  0.63505379591E+03  0.15294330000E+03 0.  1.
    8880022    1    1    2    0    0  0.52432461671E+03  0.31181443833E+03 -0.35401861197E+03  0.72171003753E+03  0.15294330000E+03 0.  0.
<mgrwt>
<rscale>  0 0.62891669E+03</rscale>
<asrwt>0</asrwt>
<pdfrwt beam="1">  1        2 0.70359284E-01 0.62891669E+03</pdfrwt>
<pdfrwt beam="2">  1       -2 0.13837361E+00 0.62891669E+03</pdfrwt>
<totfact> 0.25863632E+01</totfact>
</mgrwt>
</event>
<event>
 4    1  0.5387657E-008  0.1945661E+04  0.7818608E-02  0.8632456E-01
         -2   -1    0    0    0  501 -0.00000000000E+00  0.00000000000E+00  0.24784324204E+04  0.24784324204E+04  0.25500000000E-02 0.  1.
          2   -1    0    0  501    0  0.00000000000E+00 -0.00000000000E+00 -0.26868914199E+04  0.26868914199E+04  0.25500000000E-02 0. -1.
    8880022    1    1    2    0    0  0.10411569135E+04 -0.16365203660E+04  0.15923460449E+04  0.25141925557E+04  0.15294330000E+03 0.  0.
    8880022    1    1    2    0    0 -0.10411569135E+04  0.16365203660E+04 -0.18008050444E+04  0.26511312846E+04  0.15294330000E+03 0.  0.
<mgrwt>
<rscale>  0 0.19456614E+04</rscale>
<asrwt>0</asrwt>
<pdfrwt beam="1">  1        2 0.41336791E+00 0.19456614E+04</pdfrwt>
<pdfrwt beam="2">  1       -2 0.38129729E+00 0.19456614E+04</pdfrwt>
<totfact> 0.23556922E-02</totfact>
</mgrwt>
</event>
<event>
 4    1  0.5387657E-008  0.1707883E+03  0.7818608E-02  0.1177028E+00
          2   -1    0    0  501    0  0.00000000000E+00  0.00000000000E+00  0.31529215340E+03  0.31529215341E+03  0.25500000000E-02 0. -1.
         -2   -1    0    0    0  501 -0.00000000000E+00 -0.00000000000E+00 -0.11773161525E+03  0.11773161528E+03  0.25500000000E-02 0.  1.
    8880022    1    1    2    0    0  0.22898725660E+02  0.72475189426E+02 -0.14259919504E+01  0.17079429495E+03  0.15294330000E+03 0.  1.
    8880022    1    1    2    0    0 -0.22898725660E+02 -0.72475189426E+02  0.19898653010E+03  0.26222947373E+03  0.15294330000E+03 0. -1.
<mgrwt>
<rscale>  0 0.17078834E+03</rscale>
<asrwt>0</asrwt>
<pdfrwt beam="1">  1        2 0.48506485E-01 0.17078834E+03</pdfrwt>
<pdfrwt beam="2">  1       -2 0.18112556E-01 0.17078834E+03</pdfrwt>
<totfact> 0.25322854E+03</totfact>
</mgrwt>
</event>
<event>
 4    1  0.5387657E-008  0.2105234E+03  0.7818608E-02  0.1141152E+00
          2   -1    0    0  501    0  0.00000000000E+00  0.00000000000E+00  0.70383496498E+03  0.70383496499E+03  0.25500000000E-02 0. -1.
         -2   -1    0    0    0  501 -0.00000000000E+00 -0.00000000000E+00 -0.23764180081E+03  0.23764180082E+03  0.25500000000E-02 0.  1.
    8880022    1    1    2    0    0  0.10359941368E+03  0.10097326324E+03  0.63667719227E+03  0.67058029987E+03  0.15294330000E+03 0. -1.
    8880022    1    1    2    0    0 -0.10359941368E+03 -0.10097326324E+03 -0.17048402809E+03  0.27089646593E+03  0.15294330000E+03 0.  0.
<mgrwt>
<rscale>  0 0.21052337E+03</rscale>
<asrwt>0</asrwt>
<pdfrwt beam="1">  1        2 0.10828230E+00 0.21052337E+03</pdfrwt>
<pdfrwt beam="2">  1       -2 0.36560278E-01 0.21052337E+03</pdfrwt>
<totfact> 0.29896581E+02</totfact>
</mgrwt>
</event>
<event>
 4    1  0.5387657E-008  0.7278842E+03  0.7818608E-02  0.9670700E-01
         -2   -1    0    0    0  501 -0.00000000000E+00  0.00000000000E+00  0.76119918373E+03  0.76119918374E+03  0.25500000000E-02 0.  1.
          2   -1    0    0  501    0  0.00000000000E+00 -0.00000000000E+00 -0.20380324596E+04  0.20380324596E+04  0.25500000000E-02 0. -1.
    8880022    1    1    2    0    0 -0.15200992514E+03  0.69520988178E+03 -0.17741604511E+04  0.19176706589E+04  0.15294330000E+03 0.  0.
    8880022    1    1    2    0    0  0.15200992514E+03 -0.69520988178E+03  0.49732717517E+03  0.88156098441E+03  0.15294330000E+03 0.  0.
<mgrwt>
<rscale>  0 0.72788423E+03</rscale>
<asrwt>0</asrwt>
<pdfrwt beam="1">  1        2 0.31354345E+00 0.72788423E+03</pdfrwt>
<pdfrwt beam="2">  1       -2 0.11710757E+00 0.72788423E+03</pdfrwt>
<totfact> 0.37371955E+00</totfact>
</mgrwt>
</event>
<event>
 4    1  0.5387657E-008  0.5993669E+03  0.7818608E-02  0.9906720E-01
          2   -1    0    0  501    0  0.00000000000E+00  0.00000000000E+00  0.70542253457E+03  0.70542253457E+03  0.25500000000E-02 0. -1.
         -2   -1    0    0    0  501 -0.00000000000E+00 -0.00000000000E+00 -0.64672910914E+03  0.64672910914E+03  0.25500000000E-02 0.  1.
    8880022    1    1    2    0    0  0.16215617945E+03 -0.55637610127E+03  0.34105123713E+03  0.68960611363E+03  0.15294330000E+03 0.  0.
    8880022    1    1    2    0    0 -0.16215617945E+03  0.55637610127E+03 -0.28235781170E+03  0.66254553009E+03  0.15294330000E+03 0.  0.
<mgrwt>
<rscale>  0 0.59936687E+03</rscale>
<asrwt>0</asrwt>
<pdfrwt beam="1">  1        2 0.10852654E+00 0.59936687E+03</pdfrwt>
<pdfrwt beam="2">  1       -2 0.99496786E-01 0.59936687E+03</pdfrwt>
<totfact> 0.34848652E+01</totfact>
</mgrwt>
</event>
<event>
 4    1  0.5387657E-008  0.1579389E+03  0.7818608E-02  0.1191044E+00
         -2   -1    0    0    0  501 -0.00000000000E+00  0.00000000000E+00  0.88902297247E+02  0.88902297283E+02  0.25500000000E-02 0.  1.
          2   -1    0    0  501    0  0.00000000000E+00 -0.00000000000E+00 -0.29714703736E+03  0.29714703737E+03  0.25500000000E-02 0. -1.
    8880022    1    1    2    0    0 -0.22502822676E+02  0.32352429633E+02 -0.14969198284E+03  0.21760606488E+03  0.15294330000E+03 0.  0.
    8880022    1    1    2    0    0  0.22502822676E+02 -0.32352429633E+02 -0.58552757269E+02  0.16844326977E+03  0.15294330000E+03 0.  0.
<mgrwt>
<rscale>  0 0.15793894E+03</rscale>
<asrwt>0</asrwt>
<pdfrwt beam="1">  1        2 0.45714928E-01 0.15793894E+03</pdfrwt>
<pdfrwt beam="2">  1       -2 0.13677277E-01 0.15793894E+03</pdfrwt>
<totfact> 0.42736985E+03</totfact>
</mgrwt>
</event>
<event>
 4    1  0.5387657E-008  0.3266341E+03  0.7818608E-02  0.1072636E+00
         -2   -1    0    0    0  501 -0.00000000000E+00  0.00000000000E+00  0.17082223577E+03  0.17082223579E+03  0.25500000000E-02 0.  1.
          2   -1    0    0  501    0  0.00000000000E+00 -0.00000000000E+00 -0.17170698714E+04  0.17170698714E+04  0.25500000000E-02 0. -1.
    8880022    1    1    2    0    0  0.58059932778E+02  0.28271402828E+03 -0.20176480313E+02  0.32725665915E+03  0.15294330000E+03 0.  0.
    8880022    1    1    2    0    0 -0.58059932778E+02 -0.28271402828E+03 -0.15260711553E+04  0.15606354480E+04  0.15294330000E+03 0. -1.
<mgrwt>
<rscale>  0 0.32663409E+03</rscale>
<asrwt>0</asrwt>
<pdfrwt beam="1">  1        2 0.26416458E+00 0.32663409E+03</pdfrwt>
<pdfrwt beam="2">  1       -2 0.26280345E-01 0.32663409E+03</pdfrwt>
<totfact> 0.13560487E+02</totfact>
</mgrwt>
</event>
<event>
 4    1  0.5387657E-008  0.4576528E+03  0.7818608E-02  0.1025464E+00
          2   -1    0    0  501    0  0.00000000000E+00  0.00000000000E+00  0.27559026074E+04  0.27559026074E+04  0.25500000000E-02 0. -1.
         -2   -1    0    0    0  501 -0.00000000000E+00 -0.00000000000E+00 -0.13375332582E+03  0.13375332584E+03  0.25500000000E-02 0.  1.
    8880022    1    1    2    0    0  0.48612300436E+02 -0.42859220333E+03  0.22604889480E+04  0.23063513109E+04  0.15294330000E+03 0.  0.
    8880022    1    1    2    0    0 -0.48612300436E+02  0.42859220333E+03  0.36166033364E+03  0.58330462234E+03  0.15294330000E+03 0.  0.
<mgrwt>
<rscale>  0 0.45765280E+03</rscale>
<asrwt>0</asrwt>
<pdfrwt beam="1">  1        2 0.42398501E+00 0.45765280E+03</pdfrwt>
<pdfrwt beam="2">  1       -2 0.20577435E-01 0.45765280E+03</pdfrwt>
<totfact> 0.55051189E+01</totfact>
</mgrwt>
</event>
<event>
 4    1  0.5387657E-008  0.3355490E+03  0.7818608E-02  0.1068708E+00
         -2   -1    0    0    0  501 -0.00000000000E+00  0.00000000000E+00  0.12847092798E+04  0.12847092798E+04  0.25500000000E-02 0.  1.
          2   -1    0    0  501    0  0.00000000000E+00 -0.00000000000E+00 -0.61449718977E+03  0.61449718978E+03  0.25500000000E-02 0. -1.
    8880022    1    1    2    0    0 -0.25806426094E+03 -0.15034733017E+03  0.12143882841E+04  0.12598936622E+04  0.15294330000E+03 0.  0.
    8880022    1    1    2    0    0  0.25806426094E+03  0.15034733017E+03 -0.54417619408E+03  0.63931280738E+03  0.15294330000E+03 0.  0.
<mgrwt>
<rscale>  0 0.33554901E+03</rscale>
<asrwt>0</asrwt>
<pdfrwt beam="1">  1        2 0.94538030E-01 0.33554901E+03</pdfrwt>
<pdfrwt beam="2">  1       -2 0.19764758E+00 0.33554901E+03</pdfrwt>
<totfact> 0.72814172E+00</totfact>
</mgrwt>
</event>
<event>
 4    1  0.5387657E-008  0.1989763E+03  0.7818608E-02  0.1150606E+00
          2   -1    0    0  501    0  0.00000000000E+00  0.00000000000E+00  0.20811165565E+03  0.20811165567E+03  0.25500000000E-02 0. -1.
         -2   -1    0    0    0  501 -0.00000000000E+00 -0.00000000000E+00 -0.24052297886E+03  0.24052297888E+03  0.25500000000E-02 0.  1.
    8880022    1    1    2    0    0  0.19909022657E+02 -0.12571218619E+03 -0.11876764514E+03  0.23172684240E+03  0.15294330000E+03 0.  0.
    8880022    1    1    2    0    0 -0.19909022657E+02  0.12571218619E+03  0.86356321928E+02  0.21690779214E+03  0.15294330000E+03 0. -1.
<mgrwt>
<rscale>  0 0.19897632E+03</rscale>
<asrwt>0</asrwt>
<pdfrwt beam="1">  1        2 0.32017178E-01 0.19897632E+03</pdfrwt>
<pdfrwt beam="2">  1       -2 0.37003535E-01 0.19897632E+03</pdfrwt>
<totfact> 0.11217709E+03</totfact>
</mgrwt>
</event>
<event>
 4    1  0.5387657E-008  0.3664726E+03  0.7818608E-02  0.1056050E+00
          2   -1    0    0  501    0  0.00000000000E+00  0.00000000000E+00  0.19146030845E+04  0.19146030845E+04  0.25500000000E-02 0. -1.
         -2   -1    0    0    0  501 -0.00000000000E+00 -0.00000000000E+00 -0.30342290367E+03  0.30342290368E+03  0.25500000000E-02 0.  1.
    8880022    1    1    2    0    0  0.15836987315E+03  0.29296676261E+03 -0.16681698244E+03  0.40265382075E+03  0.15294330000E+03 0.  0.
    8880022    1    1    2    0    0 -0.15836987315E+03 -0.29296676261E+03  0.17779971632E+04  0.18153721674E+04  0.15294330000E+03 0. -1.
<mgrwt>
<rscale>  0 0.36647264E+03</rscale>
<asrwt>0</asrwt>
<pdfrwt beam="1">  1        2 0.29455432E+00 0.36647264E+03</pdfrwt>
<pdfrwt beam="2">  1       -2 0.46680448E-01 0.36647264E+03</pdfrwt>
<totfact> 0.35770225E+01</totfact>
</mgrwt>
</event>
<event>
 4    1  0.5387657E-008  0.7959712E+03  0.7818608E-02  0.9565867E-01
         -2   -1    0    0    0  501 -0.00000000000E+00  0.00000000000E+00  0.58037745659E+03  0.58037745659E+03  0.25500000000E-02 0.  1.
          2   -1    0    0  501    0  0.00000000000E+00 -0.00000000000E+00 -0.22068501062E+04  0.22068501062E+04  0.25500000000E-02 0. -1.
    8880022    1    1    2    0    0  0.48850552727E+03 -0.60954150241E+03 -0.18039132506E+04  0.19717183273E+04  0.15294330000E+03 0.  0.
    8880022    1    1    2    0    0 -0.48850552727E+03  0.60954150241E+03  0.17744060100E+03  0.81550923553E+03  0.15294330000E+03 0.  0.
<mgrwt>
<rscale>  0 0.79597120E+03</rscale>
<asrwt>0</asrwt>
<pdfrwt beam="1">  1        2 0.33951540E+00 0.79597120E+03</pdfrwt>
<pdfrwt beam="2">  1       -2 0.89288841E-01 0.79597120E+03</pdfrwt>
<totfact> 0.56935269E+00</totfact>
</mgrwt>
</event>
<event>
 4    1  0.5387657E-008  0.6679924E+03  0.7818608E-02  0.9773591E-01
         -2   -1    0    0    0  501 -0.00000000000E+00  0.00000000000E+00  0.28691866305E+03  0.28691866306E+03  0.25500000000E-02 0.  1.
          2   -1    0    0  501    0  0.00000000000E+00 -0.00000000000E+00 -0.20086842419E+04  0.20086842419E+04  0.25500000000E-02 0. -1.
    8880022    1    1    2    0    0  0.27487287853E+03 -0.58929375903E+03 -0.31550756873E+03  0.73875497475E+03  0.15294330000E+03 0.  0.
    8880022    1    1    2    0    0 -0.27487287853E+03  0.58929375903E+03 -0.14062580102E+04  0.15568479303E+04  0.15294330000E+03 0.  0.
<mgrwt>
<rscale>  0 0.66799243E+03</rscale>
<asrwt>0</asrwt>
<pdfrwt beam="1">  1        2 0.30902834E+00 0.66799243E+03</pdfrwt>
<pdfrwt beam="2">  1       -2 0.44141334E-01 0.66799243E+03</pdfrwt>
<totfact> 0.33568984E+01</totfact>
</mgrwt>
</event>
<event>
 4    1  0.5387657E-008  0.5642136E+03  0.7818608E-02  0.9982566E-01
         -2   -1    0    0    0  501 -0.00000000000E+00  0.00000000000E+00  0.10620151030E+04  0.10620151030E+04  0.25500000000E-02 0.  1.
          2   -1    0    0  501    0  0.00000000000E+00 -0.00000000000E+00 -0.15812467233E+04  0.15812467233E+04  0.25500000000E-02 0. -1.
    8880022    1    1    2    0    0  0.52152445286E+03 -0.15151749769E+03 -0.14494034388E+04  0.15553479638E+04  0.15294330000E+03 0.  0.
    8880022    1    1    2    0    0 -0.52152445286E+03  0.15151749769E+03  0.93017181858E+03  0.10879138625E+04  0.15294330000E+03 0.  0.
<mgrwt>
<rscale>  0 0.56421358E+03</rscale>
<asrwt>0</asrwt>
<pdfrwt beam="1">  1        2 0.24326873E+00 0.56421358E+03</pdfrwt>
<pdfrwt beam="2">  1       -2 0.16338694E+00 0.56421358E+03</pdfrwt>
<totfact> 0.28998052E+00</totfact>
</mgrwt>
</event>
<event>
 4    1  0.5387657E-008  0.2798084E+03  0.7818608E-02  0.1095794E+00
          2   -1    0    0  501    0  0.00000000000E+00  0.00000000000E+00  0.15079972003E+04  0.15079972003E+04  0.25500000000E-02 0. -1.
         -2   -1    0    0    0  501 -0.00000000000E+00 -0.00000000000E+00 -0.38936838933E+03  0.38936838933E+03  0.25500000000E-02 0.  1.
    8880022    1    1    2    0    0  0.13401110231E+03 -0.19220330978E+03 -0.32385784394E+03  0.42799140637E+03  0.15294330000E+03 0.  1.
    8880022    1    1    2    0    0 -0.13401110231E+03  0.19220330978E+03  0.14424866549E+04  0.14693741833E+04  0.15294330000E+03 0.  0.
<mgrwt>
<rscale>  0 0.27980840E+03</rscale>
<asrwt>0</asrwt>
<pdfrwt beam="1">  1        2 0.23199957E+00 0.27980840E+03</pdfrwt>
<pdfrwt beam="2">  1       -2 0.59902828E-01 0.27980840E+03</pdfrwt>
<totfact> 0.36339055E+01</totfact>
</mgrwt>
</event>
<event>
 4    1  0.5387657E-008  0.7103898E+03  0.7818608E-02  0.9699627E-01
          2   -1    0    0  501    0  0.00000000000E+00  0.00000000000E+00  0.12843222582E+04  0.12843222582E+04  0.25500000000E-02 0. -1.
         -2   -1    0    0    0  501 -0.00000000000E+00 -0.00000000000E+00 -0.41190884993E+03  0.41190884994E+03  0.25500000000E-02 0.  1.
    8880022    1    1    2    0    0 -0.27072713941E+03  0.63872438900E+03  0.25417567502E+03  0.75449251547E+03  0.15294330000E+03 0.  0.
    8880022    1    1    2    0    0  0.27072713941E+03 -0.63872438900E+03  0.61823773326E+03  0.94173859269E+03  0.15294330000E+03 0. -1.
<mgrwt>
<rscale>  0 0.71038981E+03</rscale>
<asrwt>0</asrwt>
<pdfrwt beam="1">  1        2 0.19758803E+00 0.71038981E+03</pdfrwt>
<pdfrwt beam="2">  1       -2 0.63370595E-01 0.71038981E+03</pdfrwt>
<totfact> 0.39843108E+01</totfact>
</mgrwt>
</event>
<event>
 4    1  0.5387657E-008  0.6934301E+03  0.7818608E-02  0.9728534E-01
          2   -1    0    0  501    0  0.00000000000E+00  0.00000000000E+00  0.92177250310E+03  0.92177250311E+03  0.25500000000E-02 0. -1.
         -2   -1    0    0    0  501 -0.00000000000E+00 -0.00000000000E+00 -0.75113787892E+03  0.75113787892E+03  0.25500000000E-02 0.  1.
    8880022    1    1    2    0    0  0.38352313122E+03  0.55710295239E+03 -0.37702105448E+03  0.78929729524E+03  0.15294330000E+03 0.  0.
    8880022    1    1    2    0    0 -0.38352313122E+03 -0.55710295239E+03  0.54765567867E+03  0.88361308678E+03  0.15294330000E+03 0.  0.
<mgrwt>
<rscale>  0 0.69343013E+03</rscale>
<asrwt>0</asrwt>
<pdfrwt beam="1">  1        2 0.14181115E+00 0.69343013E+03</pdfrwt>
<pdfrwt beam="2">  1       -2 0.11555967E+00 0.69343013E+03</pdfrwt>
<totfact> 0.16884666E+01</totfact>
</mgrwt>
</event>
<event>
 4    1  0.5387657E-008  0.3557437E+03  0.7818608E-02  0.1060282E+00
         -2   -1    0    0    0  501 -0.00000000000E+00  0.00000000000E+00  0.14442296673E+03  0.14442296676E+03  0.25500000000E-02 0.  1.
          2   -1    0    0  501    0  0.00000000000E+00 -0.00000000000E+00 -0.10180818057E+04  0.10180818057E+04  0.25500000000E-02 0. -1.
    8880022    1    1    2    0    0  0.10057303759E+03 -0.30503599073E+03 -0.65376424184E+03  0.74428571695E+03  0.15294330000E+03 0.  0.
    8880022    1    1    2    0    0 -0.10057303759E+03  0.30503599073E+03 -0.21989459713E+03  0.41821905552E+03  0.15294330000E+03 0.  0.
<mgrwt>
<rscale>  0 0.35574365E+03</rscale>
<asrwt>0</asrwt>
<pdfrwt beam="1">  1        2 0.15662797E+00 0.35574365E+03</pdfrwt>
<pdfrwt beam="2">  1       -2 0.22218919E-01 0.35574365E+03</pdfrwt>
<totfact> 0.44725036E+02</totfact>
</mgrwt>
</event>
<event>
 4    1  0.5387657E-008  0.5616650E+03  0.7818608E-02  0.9988294E-01
          2   -1    0    0  501    0  0.00000000000E+00  0.00000000000E+00  0.16374710433E+04  0.16374710433E+04  0.25500000000E-02 0. -1.
         -2   -1    0    0    0  501 -0.00000000000E+00 -0.00000000000E+00 -0.34051454163E+03  0.34051454164E+03  0.25500000000E-02 0.  1.
    8880022    1    1    2    0    0  0.31205624353E+02  0.53953881885E+03  0.13001808261E+04  0.14163113223E+04  0.15294330000E+03 0.  0.
    8880022    1    1    2    0    0 -0.31205624353E+02 -0.53953881885E+03 -0.32243244423E+01  0.56167426265E+03  0.15294330000E+03 0.  0.
<mgrwt>
<rscale>  0 0.56166501E+03</rscale>
<asrwt>0</asrwt>
<pdfrwt beam="1">  1        2 0.25191862E+00 0.56166501E+03</pdfrwt>
<pdfrwt beam="2">  1       -2 0.52386853E-01 0.56166501E+03</pdfrwt>
<totfact> 0.38402288E+01</totfact>
</mgrwt>
</event>
<event>
 4    1  0.5387657E-008  0.2604781E+03  0.7818608E-02  0.1106856E+00
         -2   -1    0    0    0  501 -0.00000000000E+00  0.00000000000E+00  0.10201986545E+03  0.10201986548E+03  0.25500000000E-02 0.  1.
          2   -1    0    0  501    0  0.00000000000E+00 -0.00000000000E+00 -0.15260370892E+04  0.15260370892E+04  0.25500000000E-02 0. -1.
    8880022    1    1    2    0    0  0.77618713637E+00  0.21084733748E+03 -0.10056835474E+03  0.27921828231E+03  0.15294330000E+03 0.  1.
    8880022    1    1    2    0    0 -0.77618713637E+00 -0.21084733748E+03 -0.13234488690E+04  0.13488386724E+04  0.15294330000E+03 0.  0.
<mgrwt>
<rscale>  0 0.26047813E+03</rscale>
<asrwt>0</asrwt>
<pdfrwt beam="1">  1        2 0.23477492E+00 0.26047813E+03</pdfrwt>
<pdfrwt beam="2">  1       -2 0.15695365E-01 0.26047813E+03</pdfrwt>
<totfact> 0.42208749E+02</totfact>
</mgrwt>
</event>
<event>
 4    1  0.5387657E-008  0.4255235E+03  0.7818608E-02  0.1035283E+00
         -2   -1    0    0    0  501 -0.00000000000E+00  0.00000000000E+00  0.15455158269E+03  0.15455158271E+03  0.25500000000E-02 0.  1.
          2   -1    0    0  501    0  0.00000000000E+00 -0.00000000000E+00 -0.23078172113E+04  0.23078172113E+04  0.25500000000E-02 0. -1.
    8880022    1    1    2    0    0  0.28507626570E+03 -0.27642381346E+03 -0.19405179930E+04  0.19866253638E+04  0.15294330000E+03 0.  0.
    8880022    1    1    2    0    0 -0.28507626570E+03  0.27642381346E+03 -0.21274763559E+03  0.47574343020E+03  0.15294330000E+03 0.  0.
<mgrwt>
<rscale>  0 0.42552351E+03</rscale>
<asrwt>0</asrwt>
<pdfrwt beam="1">  1        2 0.35504878E+00 0.42552351E+03</pdfrwt>
<pdfrwt beam="2">  1       -2 0.23777168E-01 0.42552351E+03</pdfrwt>
<totfact> 0.76676049E+01</totfact>
</mgrwt>
</event>
<event>
 4    1  0.5387657E-008  0.4432125E+03  0.7818608E-02  0.1029766E+00
          2   -1    0    0  501    0  0.00000000000E+00  0.00000000000E+00  0.36970782429E+03  0.36970782430E+03  0.25500000000E-02 0. -1.
         -2   -1    0    0    0  501 -0.00000000000E+00 -0.00000000000E+00 -0.89170042119E+03  0.89170042120E+03  0.25500000000E-02 0.  1.
    8880022    1    1    2    0    0 -0.29973246857E+03  0.28845466253E+03  0.13995353359E+03  0.46478413229E+03  0.15294330000E+03 0.  0.
    8880022    1    1    2    0    0  0.29973246857E+03 -0.28845466253E+03 -0.66194613049E+03  0.79662411320E+03  0.15294330000E+03 0.  0.
<mgrwt>
<rscale>  0 0.44321248E+03</rscale>
<asrwt>0</asrwt>
<pdfrwt beam="1">  1        2 0.56878127E-01 0.44321248E+03</pdfrwt>
<pdfrwt beam="2">  1       -2 0.13718468E+00 0.44321248E+03</pdfrwt>
<totfact> 0.34211202E+01</totfact>
</mgrwt>
</event>
<event>
 4    1  0.5387657E-008  0.2545475E+03  0.7818608E-02  0.1110464E+00
          2   -1    0    0  501    0  0.00000000000E+00  0.00000000000E+00  0.15238459989E+04  0.15238459989E+04  0.25500000000E-02 0. -1.
         -2   -1    0    0    0  501 -0.00000000000E+00 -0.00000000000E+00 -0.20083942208E+03  0.20083942210E+03  0.25500000000E-02 0.  1.
    8880022    1    1    2    0    0  0.17918388365E+03 -0.96415378324E+02  0.14271387734E+04  0.14496618644E+04  0.15294330000E+03 0.  0.
    8880022    1    1    2    0    0 -0.17918388365E+03  0.96415378324E+02 -0.10413219659E+03  0.27502355666E+03  0.15294330000E+03 0.  1.
<mgrwt>
<rscale>  0 0.25454752E+03</rscale>
<asrwt>0</asrwt>
<pdfrwt beam="1">  1        2 0.23443785E+00 0.25454752E+03</pdfrwt>
<pdfrwt beam="2">  1       -2 0.30898372E-01 0.25454752E+03</pdfrwt>
<totfact> 0.13027922E+02</totfact>
</mgrwt>
</event>
<event>
 4    1  0.5387657E-008  0.6996576E+03  0.7818608E-02  0.9717818E-01
         -2   -1    0    0    0  501 -0.00000000000E+00  0.00000000000E+00  0.85112493424E+03  0.85112493424E+03  0.25500000000E-02 0.  1.
          2   -1    0    0  501    0  0.00000000000E+00 -0.00000000000E+00 -0.98643109442E+03  0.98643109443E+03  0.25500000000E-02 0. -1.
    8880022    1    1    2    0    0  0.64815915506E+03  0.21451985133E+03  0.52561221749E+03  0.87509365961E+03  0.15294330000E+03 0.  0.
    8880022    1    1    2    0    0 -0.64815915506E+03 -0.21451985133E+03 -0.66091837767E+03  0.96246236906E+03  0.15294330000E+03 0.  0.
<mgrwt>
<rscale>  0 0.69965757E+03</rscale>
<asrwt>0</asrwt>
<pdfrwt beam="1">  1        2 0.15175863E+00 0.69965757E+03</pdfrwt>
<pdfrwt beam="2">  1       -2 0.13094230E+00 0.69965757E+03</pdfrwt>
<totfact> 0.11215950E+01</totfact>
</mgrwt>
</event>
<event>
 4    1  0.5387657E-008  0.4434885E+03  0.7818608E-02  0.1029682E+00
         -2   -1    0    0    0  501 -0.00000000000E+00  0.00000000000E+00  0.28431846156E+03  0.28431846157E+03  0.25500000000E-02 0.  1.
          2   -1    0    0  501    0  0.00000000000E+00 -0.00000000000E+00 -0.16011306540E+04  0.16011306540E+04  0.25500000000E-02 0. -1.
    8880022    1    1    2    0    0 -0.94368745440E+02  0.40544407504E+03 -0.13688672382E+04  0.14389160945E+04  0.15294330000E+03 0.  0.
    8880022    1    1    2    0    0  0.94368745440E+02 -0.40544407504E+03  0.52055045781E+02  0.44653302107E+03  0.15294330000E+03 0.  1.
<mgrwt>
<rscale>  0 0.44348846E+03</rscale>
<asrwt>0</asrwt>
<pdfrwt beam="1">  1        2 0.24632779E+00 0.44348846E+03</pdfrwt>
<pdfrwt beam="2">  1       -2 0.43741303E-01 0.44348846E+03</pdfrwt>
<totfact> 0.58845545E+01</totfact>
</mgrwt>
</event>
<event>
 4    1  0.5387657E-008  0.6319867E+03  0.7818608E-02  0.9841180E-01
         -2   -1    0    0    0  501 -0.00000000000E+00  0.00000000000E+00  0.20181335658E+03  0.20181335660E+03  0.25500000000E-02 0.  1.
          2   -1    0    0  501    0  0.00000000000E+00 -0.00000000000E+00 -0.22159319921E+04  0.22159319921E+04  0.25500000000E-02 0. -1.
    8880022    1    1    2    0    0  0.55953171037E+03 -0.25087803077E+03 -0.14022711885E+04  0.15381065179E+04  0.15294330000E+03 0.  0.
    8880022    1    1    2    0    0 -0.55953171037E+03  0.25087803077E+03 -0.61184744700E+03  0.87963883080E+03  0.15294330000E+03 0.  0.
<mgrwt>
<rscale>  0 0.63198669E+03</rscale>
<asrwt>0</asrwt>
<pdfrwt beam="1">  1        2 0.34091260E+00 0.63198669E+03</pdfrwt>
<pdfrwt beam="2">  1       -2 0.31048210E-01 0.63198669E+03</pdfrwt>
<totfact> 0.51107068E+01</totfact>
</mgrwt>
</event>
<event>
 4    1  0.5387657E-008  0.3028145E+03  0.7818608E-02  0.1083842E+00
          2   -1    0    0  501    0  0.00000000000E+00  0.00000000000E+00  0.41643258459E+04  0.41643258459E+04  0.25500000000E-02 0. -1.
         -2   -1    0    0    0  501 -0.00000000000E+00 -0.00000000000E+00 -0.97821586591E+02  0.97821586625E+02  0.25500000000E-02 0.  1.
    8880022    1    1    2    0    0  0.26134862327E+03 -0.13737898073E+01  0.39092032397E+04  0.39209140022E+04  0.15294330000E+03 0.  0.
    8880022    1    1    2    0    0 -0.26134862327E+03  0.13737898073E+01  0.15730101956E+03  0.34123343030E+03  0.15294330000E+03 0.  0.
<mgrwt>
<rscale>  0 0.30281454E+03</rscale>
<asrwt>0</asrwt>
<pdfrwt beam="1">  1        2 0.64066546E+00 0.30281454E+03</pdfrwt>
<pdfrwt beam="2">  1       -2 0.15049476E-01 0.30281454E+03</pdfrwt>
<totfact> 0.11157567E+01</totfact>
</mgrwt>
</event>
<event>
 4    1  0.5387657E-008  0.5367680E+03  0.7818608E-02  0.1004604E+00
          2   -1    0    0  501    0  0.00000000000E+00  0.00000000000E+00  0.18445625339E+04  0.18445625339E+04  0.25500000000E-02 0. -1.
         -2   -1    0    0    0  501 -0.00000000000E+00 -0.00000000000E+00 -0.22290864240E+03  0.22290864241E+03  0.25500000000E-02 0.  1.
    8880022    1    1    2    0    0 -0.21192957203E+03  0.46884329964E+03  0.24531923196E+03  0.59017062084E+03  0.15294330000E+03 0.  0.
    8880022    1    1    2    0    0  0.21192957203E+03 -0.46884329964E+03  0.13763346595E+04  0.14773005555E+04  0.15294330000E+03 0.  0.
<mgrwt>
<rscale>  0 0.53676795E+03</rscale>
<asrwt>0</asrwt>
<pdfrwt beam="1">  1        2 0.28377884E+00 0.53676795E+03</pdfrwt>
<pdfrwt beam="2">  1       -2 0.34293638E-01 0.53676795E+03</pdfrwt>
<totfact> 0.68438939E+01</totfact>
</mgrwt>
</event>
<event>
 4    1  0.5387657E-008  0.6765917E+03  0.7818608E-02  0.9758123E-01
          2   -1    0    0  501    0  0.00000000000E+00  0.00000000000E+00  0.43838612229E+04  0.43838612229E+04  0.25500000000E-02 0. -1.
         -2   -1    0    0    0  501 -0.00000000000E+00 -0.00000000000E+00 -0.37769211836E+03  0.37769211836E+03  0.25500000000E-02 0.  1.
    8880022    1    1    2    0    0  0.30980016536E+02 -0.65835017105E+03  0.40281772075E+04  0.40846037724E+04  0.15294330000E+03 0.  0.
    8880022    1    1    2    0    0 -0.30980016536E+02  0.65835017105E+03 -0.22008103016E+02  0.67694956885E+03  0.15294330000E+03 0.  1.
<mgrwt>
<rscale>  0 0.67659172E+03</rscale>
<asrwt>0</asrwt>
<pdfrwt beam="1">  1        2 0.67444018E+00 0.67659172E+03</pdfrwt>
<pdfrwt beam="2">  1       -2 0.58106480E-01 0.67659172E+03</pdfrwt>
<totfact> 0.51081231E-01</totfact>
</mgrwt>
</event>
<event>
 4    1  0.5387657E-008  0.5141401E+03  0.7818608E-02  0.1010153E+00
         -2   -1    0    0    0  501 -0.00000000000E+00  0.00000000000E+00  0.41179428742E+03  0.41179428742E+03  0.25500000000E-02 0.  1.
          2   -1    0    0  501    0  0.00000000000E+00 -0.00000000000E+00 -0.19675532828E+04  0.19675532828E+04  0.25500000000E-02 0. -1.
    8880022    1    1    2    0    0  0.47013238312E+03 -0.14115210972E+03 -0.17543877704E+04  0.18281729890E+04  0.15294330000E+03 0.  0.
    8880022    1    1    2    0    0 -0.47013238312E+03  0.14115210972E+03  0.19862877500E+03  0.55117458124E+03  0.15294330000E+03 0.  0.
<mgrwt>
<rscale>  0 0.51414009E+03</rscale>
<asrwt>0</asrwt>
<pdfrwt beam="1">  1        2 0.30270050E+00 0.51414009E+03</pdfrwt>
<pdfrwt beam="2">  1       -2 0.63352968E-01 0.51414009E+03</pdfrwt>
<totfact> 0.17291154E+01</totfact>
</mgrwt>
</event>
<event>
 4    1  0.5387657E-008  0.4583400E+03  0.7818608E-02  0.1025264E+00
         -2   -1    0    0    0  501 -0.00000000000E+00  0.00000000000E+00  0.22109403547E+03  0.22109403548E+03  0.25500000000E-02 0.  1.
          2   -1    0    0  501    0  0.00000000000E+00 -0.00000000000E+00 -0.12793364196E+04  0.12793364196E+04  0.25500000000E-02 0. -1.
    8880022    1    1    2    0    0 -0.70463455560E+02  0.42628491063E+03 -0.90966552816E+03  0.10186103032E+04  0.15294330000E+03 0.  0.
    8880022    1    1    2    0    0  0.70463455560E+02 -0.42628491063E+03 -0.14857685593E+03  0.48182015186E+03  0.15294330000E+03 0.  0.
<mgrwt>
<rscale>  0 0.45834002E+03</rscale>
<asrwt>0</asrwt>
<pdfrwt beam="1">  1        2 0.19682098E+00 0.45834002E+03</pdfrwt>
<pdfrwt beam="2">  1       -2 0.34014468E-01 0.45834002E+03</pdfrwt>
<totfact> 0.14340278E+02</totfact>
</mgrwt>
</event>
<event>
 4    1  0.5387657E-008  0.6236691E+03  0.7818608E-02  0.9857482E-01
         -2   -1    0    0    0  501 -0.00000000000E+00  0.00000000000E+00  0.21874059529E+03  0.21874059530E+03  0.25500000000E-02 0.  1.
          2   -1    0    0  501    0  0.00000000000E+00 -0.00000000000E+00 -0.24732338130E+04  0.24732338130E+04  0.25500000000E-02 0. -1.
    8880022    1    1    2    0    0 -0.58018958506E+03  0.17015139322E+03 -0.41371479479E+03  0.74841367950E+03  0.15294330000E+03 0.  1.
    8880022    1    1    2    0    0  0.58018958506E+03 -0.17015139322E+03 -0.18407784229E+04  0.19435607288E+04  0.15294330000E+03 0. -1.
<mgrwt>
<rscale>  0 0.62366907E+03</rscale>
<asrwt>0</asrwt>
<pdfrwt beam="1">  1        2 0.38049749E+00 0.62366907E+03</pdfrwt>
<pdfrwt beam="2">  1       -2 0.33652401E-01 0.62366907E+03</pdfrwt>
<totfact> 0.31677872E+01</totfact>
</mgrwt>
</event>
<event>
 4    1  0.5387657E-008  0.2382516E+03  0.7818608E-02  0.1120963E+00
          2   -1    0    0  501    0  0.00000000000E+00  0.00000000000E+00  0.53027700209E+03  0.53027700210E+03  0.25500000000E-02 0. -1.
         -2   -1    0    0    0  501 -0.00000000000E+00 -0.00000000000E+00 -0.55982942787E+03  0.55982942787E+03  0.25500000000E-02 0.  1.
    8880022    1    1    2    0    0  0.24522984122E+02  0.18102699692E+03 -0.50495725643E+03  0.55834186140E+03  0.15294330000E+03 0.  1.
    8880022    1    1    2    0    0 -0.24522984122E+02 -0.18102699692E+03  0.47540483065E+03  0.53176456857E+03  0.15294330000E+03 0.  0.
<mgrwt>
<rscale>  0 0.23825155E+03</rscale>
<asrwt>0</asrwt>
<pdfrwt beam="1">  1        2 0.81581077E-01 0.23825155E+03</pdfrwt>
<pdfrwt beam="2">  1       -2 0.86127604E-01 0.23825155E+03</pdfrwt>
<totfact> 0.71567042E+01</totfact>
</mgrwt>
</event>
<event>
 4    1  0.5387657E-008  0.3927075E+03  0.7818608E-02  0.1046334E+00
         -2   -1    0    0    0  501 -0.00000000000E+00  0.00000000000E+00  0.15808218798E+03  0.15808218800E+03  0.25500000000E-02 0.  1.
          2   -1    0    0  501    0  0.00000000000E+00 -0.00000000000E+00 -0.15490313226E+04  0.15490313226E+04  0.25500000000E-02 0. -1.
    8880022    1    1    2    0    0 -0.26344970416E+03  0.24783412974E+03 -0.17612835558E+03  0.43039557751E+03  0.15294330000E+03 0.  0.
    8880022    1    1    2    0    0  0.26344970416E+03 -0.24783412974E+03 -0.12148207791E+04  0.12767179331E+04  0.15294330000E+03 0. -1.
<mgrwt>
<rscale>  0 0.39270747E+03</rscale>
<asrwt>0</asrwt>
<pdfrwt beam="1">  1        2 0.23831250E+00 0.39270747E+03</pdfrwt>
<pdfrwt beam="2">  1       -2 0.24320338E-01 0.39270747E+03</pdfrwt>
<totfact> 0.18935000E+02</totfact>
</mgrwt>
</event>
<event>
 4    1  0.5387657E-008  0.8575974E+03  0.7818608E-02  0.9480196E-01
          2   -1    0    0  501    0  0.00000000000E+00  0.00000000000E+00  0.13150952896E+04  0.13150952896E+04  0.25500000000E-02 0. -1.
         -2   -1    0    0    0  501 -0.00000000000E+00 -0.00000000000E+00 -0.74320656113E+03  0.74320656113E+03  0.25500000000E-02 0.  1.
    8880022    1    1    2    0    0  0.25492351869E+03  0.80442258996E+03  0.79795180601E+03  0.11714095959E+04  0.15294330000E+03 0.  0.
    8880022    1    1    2    0    0 -0.25492351869E+03 -0.80442258996E+03 -0.22606307755E+03  0.88689225483E+03  0.15294330000E+03 0.  0.
<mgrwt>
<rscale>  0 0.85759743E+03</rscale>
<asrwt>0</asrwt>
<pdfrwt beam="1">  1        2 0.20232235E+00 0.85759743E+03</pdfrwt>
<pdfrwt beam="2">  1       -2 0.11433947E+00 0.85759743E+03</pdfrwt>
<totfact> 0.97678250E+00</totfact>
</mgrwt>
</event>
<event>
 4    1  0.5387657E-008  0.3015075E+03  0.7818608E-02  0.1084489E+00
          2   -1    0    0  501    0  0.00000000000E+00  0.00000000000E+00  0.22669724325E+04  0.22669724325E+04  0.25500000000E-02 0. -1.
         -2   -1    0    0    0  501 -0.00000000000E+00 -0.00000000000E+00 -0.15347178589E+03  0.15347178591E+03  0.25500000000E-02 0.  1.
    8880022    1    1    2    0    0 -0.21371854933E+03 -0.14778186813E+03  0.20969155366E+04  0.21184809462E+04  0.15294330000E+03 0.  0.
    8880022    1    1    2    0    0  0.21371854933E+03  0.14778186813E+03  0.16585110034E+02  0.30196327221E+03  0.15294330000E+03 0.  0.
<mgrwt>
<rscale>  0 0.30150747E+03</rscale>
<asrwt>0</asrwt>
<pdfrwt beam="1">  1        2 0.34876498E+00 0.30150747E+03</pdfrwt>
<pdfrwt beam="2">  1       -2 0.23611045E-01 0.30150747E+03</pdfrwt>
<totfact> 0.84275284E+01</totfact>
</mgrwt>
</event>
<event>
 4    1  0.5387657E-008  0.4198106E+03  0.7818608E-02  0.1037128E+00
          2   -1    0    0  501    0  0.00000000000E+00  0.00000000000E+00  0.15177129680E+04  0.15177129680E+04  0.25500000000E-02 0. -1.
         -2   -1    0    0    0  501 -0.00000000000E+00 -0.00000000000E+00 -0.19872005796E+03  0.19872005798E+03  0.25500000000E-02 0.  1.
    8880022    1    1    2    0    0 -0.21848511818E+03  0.32421223519E+03  0.10619856661E+03  0.43303476636E+03  0.15294330000E+03 0.  0.
    8880022    1    1    2    0    0  0.21848511818E+03 -0.32421223519E+03  0.12127943434E+04  0.12833982596E+04  0.15294330000E+03 0.  0.
<mgrwt>
<rscale>  0 0.41981064E+03</rscale>
<asrwt>0</asrwt>
<pdfrwt beam="1">  1        2 0.23349429E+00 0.41981064E+03</pdfrwt>
<pdfrwt beam="2">  1       -2 0.30572318E-01 0.41981064E+03</pdfrwt>
<totfact> 0.12962987E+02</totfact>
</mgrwt>
</event>
<event>
 4    1  0.5387657E-008  0.1058869E+04  0.7818608E-02  0.9246235E-01
          2   -1    0    0  501    0  0.00000000000E+00  0.00000000000E+00  0.21851944040E+04  0.21851944040E+04  0.25500000000E-02 0. -1.
         -2   -1    0    0    0  501 -0.00000000000E+00 -0.00000000000E+00 -0.73172517275E+03  0.73172517276E+03  0.25500000000E-02 0.  1.
    8880022    1    1    2    0    0 -0.52697579844E+03 -0.90559851599E+03  0.15239568020E+04  0.18557069143E+04  0.15294330000E+03 0.  0.
    8880022    1    1    2    0    0  0.52697579844E+03  0.90559851599E+03 -0.70487570790E+02  0.10612126625E+04  0.15294330000E+03 0.  0.
<mgrwt>
<rscale>  0 0.10588691E+04</rscale>
<asrwt>0</asrwt>
<pdfrwt beam="1">  1        2 0.33618376E+00 0.10588691E+04</pdfrwt>
<pdfrwt beam="2">  1       -2 0.11257310E+00 0.10588691E+04</pdfrwt>
<totfact> 0.32520764E+00</totfact>
</mgrwt>
</event>
<event>
 4    1  0.5387657E-008  0.2019093E+03  0.7818608E-02  0.1148138E+00
          2   -1    0    0  501    0  0.00000000000E+00  0.00000000000E+00  0.41376931165E+03  0.41376931166E+03  0.25500000000E-02 0. -1.
         -2   -1    0    0    0  501 -0.00000000000E+00 -0.00000000000E+00 -0.13189337200E+03  0.13189337202E+03  0.25500000000E-02 0.  1.
    8880022    1    1    2    0    0  0.61476908325E+02 -0.11660321349E+03  0.27816462161E+03  0.34371925955E+03  0.15294330000E+03 0. -1.
    8880022    1    1    2    0    0 -0.61476908325E+02  0.11660321349E+03  0.37113180445E+01  0.20194342413E+03  0.15294330000E+03 0.  0.
<mgrwt>
<rscale>  0 0.20190932E+03</rscale>
<asrwt>0</asrwt>
<pdfrwt beam="1">  1        2 0.63656817E-01 0.20190932E+03</pdfrwt>
<pdfrwt beam="2">  1       -2 0.20291288E-01 0.20190932E+03</pdfrwt>
<totfact> 0.15669194E+03</totfact>
</mgrwt>
</event>
<event>
 4    1  0.5387657E-008  0.7347501E+03  0.7818608E-02  0.9659583E-01
         -2   -1    0    0    0  501 -0.00000000000E+00  0.00000000000E+00  0.57061817358E+03  0.57061817358E+03  0.25500000000E-02 0.  1.
          2   -1    0    0  501    0  0.00000000000E+00 -0.00000000000E+00 -0.15969372432E+04  0.15969372432E+04  0.25500000000E-02 0. -1.
    8880022    1    1    2    0    0  0.45223673376E+03 -0.55852310190E+03  0.17872699360E+03  0.75617531695E+03  0.15294330000E+03 0.  0.
    8880022    1    1    2    0    0 -0.45223673376E+03  0.55852310190E+03 -0.12050460633E+04  0.14113800999E+04  0.15294330000E+03 0.  0.
<mgrwt>
<rscale>  0 0.73475014E+03</rscale>
<asrwt>0</asrwt>
<pdfrwt beam="1">  1        2 0.24568265E+00 0.73475014E+03</pdfrwt>
<pdfrwt beam="2">  1       -2 0.87787412E-01 0.73475014E+03</pdfrwt>
<totfact> 0.12885913E+01</totfact>
</mgrwt>
</event>
<event>
 4    1  0.5387657E-008  0.2211180E+03  0.7818608E-02  0.1133052E+00
          2   -1    0    0  501    0  0.00000000000E+00  0.00000000000E+00  0.58387572355E+03  0.58387572356E+03  0.25500000000E-02 0. -1.
         -2   -1    0    0    0  501 -0.00000000000E+00 -0.00000000000E+00 -0.22232320875E+03  0.22232320876E+03  0.25500000000E-02 0.  1.
    8880022    1    1    2    0    0 -0.22778100030E+02 -0.15805908656E+03  0.49903232628E+03  0.54582637566E+03  0.15294330000E+03 0.  0.
    8880022    1    1    2    0    0  0.22778100030E+02  0.15805908656E+03 -0.13747981147E+03  0.26037255666E+03  0.15294330000E+03 0.  0.
<mgrwt>
<rscale>  0 0.22111800E+03</rscale>
<asrwt>0</asrwt>
<pdfrwt beam="1">  1        2 0.89827032E-01 0.22111800E+03</pdfrwt>
<pdfrwt beam="2">  1       -2 0.34203571E-01 0.22111800E+03</pdfrwt>
<totfact> 0.42166581E+02</totfact>
</mgrwt>
</event>
<event>
 4    1  0.5387657E-008  0.7998191E+03  0.7818608E-02  0.9560279E-01
          2   -1    0    0  501    0  0.00000000000E+00  0.00000000000E+00  0.31632127723E+04  0.31632127723E+04  0.25500000000E-02 0. -1.
         -2   -1    0    0    0  501 -0.00000000000E+00 -0.00000000000E+00 -0.63131723401E+03  0.63131723401E+03  0.25500000000E-02 0.  1.
    8880022    1    1    2    0    0 -0.31579632326E+03 -0.71874312931E+03 -0.29818893862E+03  0.85359668453E+03  0.15294330000E+03 0.  0.
    8880022    1    1    2    0    0  0.31579632326E+03  0.71874312931E+03  0.28300844769E+04  0.29409333218E+04  0.15294330000E+03 0.  0.
<mgrwt>
<rscale>  0 0.79981914E+03</rscale>
<asrwt>0</asrwt>
<pdfrwt beam="1">  1        2 0.48664812E+00 0.79981914E+03</pdfrwt>
<pdfrwt beam="2">  1       -2 0.97125728E-01 0.79981914E+03</pdfrwt>
<totfact> 0.12884799E+00</totfact>
</mgrwt>
</event>
<event>
 4    1  0.5387657E-008  0.3339649E+03  0.7818608E-02  0.1069396E+00
          2   -1    0    0  501    0  0.00000000000E+00  0.00000000000E+00  0.57722768582E+03  0.57722768582E+03  0.25500000000E-02 0. -1.
         -2   -1    0    0    0  501 -0.00000000000E+00 -0.00000000000E+00 -0.68457003295E+03  0.68457003296E+03  0.25500000000E-02 0.  1.
    8880022    1    1    2    0    0  0.92572137799E+02 -0.28208388827E+03 -0.58816882934E+03  0.67636908972E+03  0.15294330000E+03 0.  1.
    8880022    1    1    2    0    0 -0.92572137799E+02  0.28208388827E+03  0.48082648220E+03  0.58542862905E+03  0.15294330000E+03 0.  0.
<mgrwt>
<rscale>  0 0.33396493E+03</rscale>
<asrwt>0</asrwt>
<pdfrwt beam="1">  1        2 0.88804259E-01 0.33396493E+03</pdfrwt>
<pdfrwt beam="2">  1       -2 0.10531847E+00 0.33396493E+03</pdfrwt>
<totfact> 0.40165698E+01</totfact>
</mgrwt>
</event>
<event>
 4    1  0.5387657E-008  0.3892738E+03  0.7818608E-02  0.1047558E+00
          2   -1    0    0  501    0  0.00000000000E+00  0.00000000000E+00  0.20867055093E+04  0.20867055093E+04  0.25500000000E-02 0. -1.
         -2   -1    0    0    0  501 -0.00000000000E+00 -0.00000000000E+00 -0.13423471843E+03  0.13423471846E+03  0.25500000000E-02 0.  1.
    8880022    1    1    2    0    0 -0.57805017754E+02  0.35327187049E+03  0.22388379945E+03  0.44906351803E+03  0.15294330000E+03 0.  0.
    8880022    1    1    2    0    0  0.57805017754E+02 -0.35327187049E+03  0.17285869914E+04  0.17718767097E+04  0.15294330000E+03 0.  0.
<mgrwt>
<rscale>  0 0.38927380E+03</rscale>
<asrwt>0</asrwt>
<pdfrwt beam="1">  1        2 0.32103158E+00 0.38927380E+03</pdfrwt>
<pdfrwt beam="2">  1       -2 0.20651498E-01 0.38927380E+03</pdfrwt>
<totfact> 0.13025227E+02</totfact>
</mgrwt>
</event>
<event>
 4    1  0.5387657E-008  0.5391475E+03  0.7818608E-02  0.1004038E+00
         -2   -1    0    0    0  501 -0.00000000000E+00  0.00000000000E+00  0.76615107972E+03  0.76615107972E+03  0.25500000000E-02 0.  1.
          2   -1    0    0  501    0  0.00000000000E+00 -0.00000000000E+00 -0.90224220799E+03  0.90224220800E+03  0.25500000000E-02 0. -1.
    8880022    1    1    2    0    0 -0.28096907493E+03  0.43398710342E+03 -0.70307068924E+03  0.88599575285E+03  0.15294330000E+03 0.  0.
    8880022    1    1    2    0    0  0.28096907493E+03 -0.43398710342E+03  0.56697956096E+03  0.78239753486E+03  0.15294330000E+03 0.  0.
<mgrwt>
<rscale>  0 0.53914755E+03</rscale>
<asrwt>0</asrwt>
<pdfrwt beam="1">  1        2 0.13880649E+00 0.53914755E+03</pdfrwt>
<pdfrwt beam="2">  1       -2 0.11786940E+00 0.53914755E+03</pdfrwt>
<totfact> 0.16909592E+01</totfact>
</mgrwt>
</event>
<event>
 4    1  0.5387657E-008  0.2441398E+03  0.7818608E-02  0.1117065E+00
         -2   -1    0    0    0  501 -0.00000000000E+00  0.00000000000E+00  0.47158175011E+03  0.47158175012E+03  0.25500000000E-02 0.  1.
          2   -1    0    0  501    0  0.00000000000E+00 -0.00000000000E+00 -0.36987407529E+03  0.36987407530E+03  0.25500000000E-02 0. -1.
    8880022    1    1    2    0    0 -0.89859862588E+02  0.16774317950E+03  0.39221000997E+03  0.46198800213E+03  0.15294330000E+03 0.  0.
    8880022    1    1    2    0    0  0.89859862588E+02 -0.16774317950E+03 -0.29050233515E+03  0.37946782330E+03  0.15294330000E+03 0.  0.
<mgrwt>
<rscale>  0 0.24413976E+03</rscale>
<asrwt>0</asrwt>
<pdfrwt beam="1">  1        2 0.56903704E-01 0.24413976E+03</pdfrwt>
<pdfrwt beam="2">  1       -2 0.72551038E-01 0.24413976E+03</pdfrwt>
<totfact> 0.15531162E+02</totfact>
</mgrwt>
</event>
<event>
 4    1  0.5387657E-008  0.1010071E+04  0.7818608E-02  0.9297567E-01
          2   -1    0    0  501    0  0.00000000000E+00  0.00000000000E+00  0.36253773637E+04  0.36253773637E+04  0.25500000000E-02 0. -1.
         -2   -1    0    0    0  501 -0.00000000000E+00 -0.00000000000E+00 -0.67230270136E+03  0.67230270136E+03  0.25500000000E-02 0.  1.
    8880022    1    1    2    0    0 -0.61940275067E+03 -0.78306602953E+03  0.31150371440E+04  0.32747061296E+04  0.15294330000E+03 0. -1.
    8880022    1    1    2    0    0  0.61940275067E+03  0.78306602953E+03 -0.16196248161E+03  0.10229739354E+04  0.15294330000E+03 0.  0.
<mgrwt>
<rscale>  0 0.10100712E+04</rscale>
<asrwt>0</asrwt>
<pdfrwt beam="1">  1        2 0.55775036E+00 0.10100712E+04</pdfrwt>
<pdfrwt beam="2">  1       -2 0.10343119E+00 0.10100712E+04</pdfrwt>
<totfact> 0.52225906E-01</totfact>
</mgrwt>
</event>
<event>
 4    1  0.5387657E-008  0.4225920E+03  0.7818608E-02  0.1036226E+00
          2   -1    0    0  501    0  0.00000000000E+00  0.00000000000E+00  0.41966388265E+04  0.41966388265E+04  0.25500000000E-02 0. -1.
         -2   -1    0    0    0  501 -0.00000000000E+00 -0.00000000000E+00 -0.15303625547E+03  0.15303625549E+03  0.25500000000E-02 0.  1.
    8880022    1    1    2    0    0  0.17877270828E+03 -0.35104507144E+03  0.17391252415E+03  0.45697871118E+03  0.15294330000E+03 0.  0.
    8880022    1    1    2    0    0 -0.17877270828E+03  0.35104507144E+03  0.38696900469E+04  0.38926963708E+04  0.15294330000E+03 0.  0.
<mgrwt>
<rscale>  0 0.42259197E+03</rscale>
<asrwt>0</asrwt>
<pdfrwt beam="1">  1        2 0.64563677E+00 0.42259197E+03</pdfrwt>
<pdfrwt beam="2">  1       -2 0.23544038E-01 0.42259197E+03</pdfrwt>
<totfact> 0.46031729E+00</totfact>
</mgrwt>
</event>
<event>
 4    1  0.5387657E-008  0.4178127E+03  0.7818608E-02  0.1037781E+00
         -2   -1    0    0    0  501 -0.00000000000E+00  0.00000000000E+00  0.28911706315E+03  0.28911706316E+03  0.25500000000E-02 0.  1.
          2   -1    0    0  501    0  0.00000000000E+00 -0.00000000000E+00 -0.22939060785E+04  0.22939060785E+04  0.25500000000E-02 0. -1.
    8880022    1    1    2    0    0 -0.28704570828E+03 -0.26226043396E+03 -0.21109772517E+04  0.21519275973E+04  0.15294330000E+03 0.  0.
    8880022    1    1    2    0    0  0.28704570828E+03  0.26226043396E+03  0.10618823629E+03  0.43109554441E+03  0.15294330000E+03 0.  0.
<mgrwt>
<rscale>  0 0.41781267E+03</rscale>
<asrwt>0</asrwt>
<pdfrwt beam="1">  1        2 0.35290861E+00 0.41781267E+03</pdfrwt>
<pdfrwt beam="2">  1       -2 0.44479550E-01 0.41781267E+03</pdfrwt>
<totfact> 0.24293546E+01</totfact>
</mgrwt>
</event>
<event>
 4    1  0.5387657E-008  0.3763187E+03  0.7818608E-02  0.1052303E+00
          2   -1    0    0  501    0  0.00000000000E+00  0.00000000000E+00  0.38271413799E+04  0.38271413799E+04  0.25500000000E-02 0. -1.
         -2   -1    0    0    0  501 -0.00000000000E+00 -0.00000000000E+00 -0.39767613079E+02  0.39767613161E+02  0.25500000000E-02 0.  1.
    8880022    1    1    2    0    0 -0.34050499999E+03  0.47754431812E+02  0.24034691297E+04  0.24327514569E+04  0.15294330000E+03 0. -1.
    8880022    1    1    2    0    0  0.34050499999E+03 -0.47754431812E+02  0.13839046371E+04  0.14341575361E+04  0.15294330000E+03 0.  1.
<mgrwt>
<rscale>  0 0.37631874E+03</rscale>
<asrwt>0</asrwt>
<pdfrwt beam="1">  1        2 0.58879099E+00 0.37631874E+03</pdfrwt>
<pdfrwt beam="2">  1       -2 0.61180942E-02 0.37631874E+03</pdfrwt>
<totfact> 0.83305827E+01</totfact>
</mgrwt>
</event>
<event>
 4    1  0.5387657E-008  0.7544022E+03  0.7818608E-02  0.9628469E-01
          2   -1    0    0  501    0  0.00000000000E+00  0.00000000000E+00  0.25422321671E+04  0.25422321671E+04  0.25500000000E-02 0. -1.
         -2   -1    0    0    0  501 -0.00000000000E+00 -0.00000000000E+00 -0.42381462451E+03  0.42381462451E+03  0.25500000000E-02 0.  1.
    8880022    1    1    2    0    0 -0.63809696573E+03  0.37224086602E+03  0.40575561998E+02  0.75549257393E+03  0.15294330000E+03 0.  0.
    8880022    1    1    2    0    0  0.63809696573E+03 -0.37224086602E+03  0.20778419806E+04  0.22105542177E+04  0.15294330000E+03 0.  0.
<mgrwt>
<rscale>  0 0.75440218E+03</rscale>
<asrwt>0</asrwt>
<pdfrwt beam="1">  1        2 0.39111265E+00 0.75440218E+03</pdfrwt>
<pdfrwt beam="2">  1       -2 0.65202249E-01 0.75440218E+03</pdfrwt>
<totfact> 0.74883762E+00</totfact>
</mgrwt>
</event>
<event>
 4    1  0.5387657E-008  0.2226864E+03  0.7818608E-02  0.1131896E+00
          2   -1    0    0  501    0  0.00000000000E+00  0.00000000000E+00  0.32485284229E+03  0.32485284230E+03  0.25500000000E-02 0. -1.
         -2   -1    0    0    0  501 -0.00000000000E+00 -0.00000000000E+00 -0.35374920782E+03  0.35374920783E+03  0.25500000000E-02 0.  1.
    8880022    1    1    2    0    0 -0.15106792588E+03 -0.58103977944E+02 -0.27027207024E+03  0.35019456799E+03  0.15294330000E+03 0.  1.
    8880022    1    1    2    0    0  0.15106792588E+03  0.58103977944E+02  0.24137570471E+03  0.32840748213E+03  0.15294330000E+03 0.  0.
<mgrwt>
<rscale>  0 0.22268642E+03</rscale>
<asrwt>0</asrwt>
<pdfrwt beam="1">  1        2 0.49977360E-01 0.22268642E+03</pdfrwt>
<pdfrwt beam="2">  1       -2 0.54422955E-01 0.22268642E+03</pdfrwt>
<totfact> 0.32684640E+02</totfact>
</mgrwt>
</event>
<event>
 4    1  0.5387657E-008  0.1334920E+04  0.7818608E-02  0.9002323E-01
         -2   -1    0    0    0  501 -0.00000000000E+00  0.00000000000E+00  0.10362863556E+04  0.10362863556E+04  0.25500000000E-02 0.  1.
          2   -1    0    0  501    0  0.00000000000E+00 -0.00000000000E+00 -0.27154966943E+04  0.27154966943E+04  0.25500000000E-02 0. -1.
    8880022    1    1    2    0    0 -0.10181923731E+04  0.84964913785E+03 -0.19756291307E+04  0.23843492783E+04  0.15294330000E+03 0.  0.
    8880022    1    1    2    0    0  0.10181923731E+04 -0.84964913785E+03  0.29641879197E+03  0.13674337715E+04  0.15294330000E+03 0.  0.
<mgrwt>
<rscale>  0 0.13349199E+04</rscale>
<asrwt>0</asrwt>
<pdfrwt beam="1">  1        2 0.41776872E+00 0.13349199E+04</pdfrwt>
<pdfrwt beam="2">  1       -2 0.15942867E+00 0.13349199E+04</pdfrwt>
<totfact> 0.63661945E-01</totfact>
</mgrwt>
</event>
<event>
 4    1  0.5387657E-008  0.1730039E+03  0.7818608E-02  0.1174751E+00
         -2   -1    0    0    0  501 -0.00000000000E+00  0.00000000000E+00  0.17842628060E+02  0.17842628242E+02  0.25500000000E-02 0.  1.
          2   -1    0    0  501    0  0.00000000000E+00 -0.00000000000E+00 -0.19849011576E+04  0.19849011576E+04  0.25500000000E-02 0. -1.
    8880022    1    1    2    0    0  0.43236232780E+02 -0.68332514284E+02 -0.58943102893E+03  0.61429577177E+03  0.15294330000E+03 0.  0.
    8880022    1    1    2    0    0 -0.43236232780E+02  0.68332514284E+02 -0.13776275006E+04  0.13884480140E+04  0.15294330000E+03 0.  0.
<mgrwt>
<rscale>  0 0.17300392E+03</rscale>
<asrwt>0</asrwt>
<pdfrwt beam="1">  1        2 0.30536923E+00 0.17300392E+03</pdfrwt>
<pdfrwt beam="2">  1       -2 0.27450213E-02 0.17300392E+03</pdfrwt>
<totfact> 0.36570641E+03</totfact>
</mgrwt>
</event>
<event>
 4    1  0.5387657E-008  0.3525496E+03  0.7818608E-02  0.1061573E+00
          2   -1    0    0  501    0  0.00000000000E+00  0.00000000000E+00  0.22113820317E+04  0.22113820317E+04  0.25500000000E-02 0. -1.
         -2   -1    0    0    0  501 -0.00000000000E+00 -0.00000000000E+00 -0.27965042986E+03  0.27965042987E+03  0.25500000000E-02 0.  1.
    8880022    1    1    2    0    0  0.18899034083E+03 -0.25530812668E+03  0.20792041224E+04  0.21088814628E+04  0.15294330000E+03 0.  0.
    8880022    1    1    2    0    0 -0.18899034083E+03  0.25530812668E+03 -0.14747252062E+03  0.38215099873E+03  0.15294330000E+03 0.  0.
<mgrwt>
<rscale>  0 0.35254963E+03</rscale>
<asrwt>0</asrwt>
<pdfrwt beam="1">  1        2 0.34021262E+00 0.35254963E+03</pdfrwt>
<pdfrwt beam="2">  1       -2 0.43023143E-01 0.35254963E+03</pdfrwt>
<totfact> 0.29279813E+01</totfact>
</mgrwt>
</event>
<event>
 4    1  0.5387657E-008  0.3440313E+03  0.7818608E-02  0.1065092E+00
         -2   -1    0    0    0  501 -0.00000000000E+00  0.00000000000E+00  0.10635991441E+04  0.10635991441E+04  0.25500000000E-02 0.  1.
          2   -1    0    0  501    0  0.00000000000E+00 -0.00000000000E+00 -0.31110248251E+03  0.31110248252E+03  0.25500000000E-02 0. -1.
    8880022    1    1    2    0    0  0.27742535611E+03 -0.13416798543E+03 -0.17462109143E+03  0.38581090590E+03  0.15294330000E+03 0.  0.
    8880022    1    1    2    0    0 -0.27742535611E+03  0.13416798543E+03  0.92711775299E+03  0.98889072068E+03  0.15294330000E+03 0.  0.
<mgrwt>
<rscale>  0 0.34403129E+03</rscale>
<asrwt>0</asrwt>
<pdfrwt beam="1">  1        2 0.47861920E-01 0.34403129E+03</pdfrwt>
<pdfrwt beam="2">  1       -2 0.16363064E+00 0.34403129E+03</pdfrwt>
<totfact> 0.26422174E+01</totfact>
</mgrwt>
</event>
<event>
 4    1  0.5387657E-008  0.1707748E+04  0.7818608E-02  0.8756958E-01
          2   -1    0    0  501    0  0.00000000000E+00  0.00000000000E+00  0.38151764653E+04  0.38151764653E+04  0.25500000000E-02 0. -1.
         -2   -1    0    0    0  501 -0.00000000000E+00 -0.00000000000E+00 -0.13957207376E+04  0.13957207376E+04  0.25500000000E-02 0.  1.
    8880022    1    1    2    0    0  0.15644441759E+04  0.66747666528E+03 -0.54254174898E+03  0.17918576619E+04  0.15294330000E+03 0.  0.
    8880022    1    1    2    0    0 -0.15644441759E+04 -0.66747666528E+03  0.29619974767E+04  0.34190395410E+04  0.15294330000E+03 0.  0.
<mgrwt>
<rscale>  0 0.17077477E+04</rscale>
<asrwt>0</asrwt>
<pdfrwt beam="1">  1        2 0.58695023E+00 0.17077477E+04</pdfrwt>
<pdfrwt beam="2">  1       -2 0.21472627E+00 0.17077477E+04</pdfrwt>
<totfact> 0.47222456E-02</totfact>
</mgrwt>
</event>
<event>
 4    1  0.5387657E-008  0.4363259E+03  0.7818608E-02  0.1031880E+00
         -2   -1    0    0    0  501 -0.00000000000E+00  0.00000000000E+00  0.28980547619E+03  0.28980547620E+03  0.25500000000E-02 0.  1.
          2   -1    0    0  501    0  0.00000000000E+00 -0.00000000000E+00 -0.10454547919E+04  0.10454547919E+04  0.25500000000E-02 0. -1.
    8880022    1    1    2    0    0 -0.25904892595E+02 -0.40782051853E+03  0.29176639655E+02  0.43730031798E+03  0.15294330000E+03 0.  0.
    8880022    1    1    2    0    0  0.25904892595E+02  0.40782051853E+03 -0.78482595537E+03  0.89795995012E+03  0.15294330000E+03 0.  0.
<mgrwt>
<rscale>  0 0.43632590E+03</rscale>
<asrwt>0</asrwt>
<pdfrwt beam="1">  1        2 0.16083920E+00 0.43632590E+03</pdfrwt>
<pdfrwt beam="2">  1       -2 0.44585458E-01 0.43632590E+03</pdfrwt>
<totfact> 0.11728066E+02</totfact>
</mgrwt>
</event>
<event>
 4    1  0.5387657E-008  0.1108745E+04  0.7818608E-02  0.9196710E-01
         -2   -1    0    0    0  501 -0.00000000000E+00  0.00000000000E+00  0.69567255294E+03  0.69567255294E+03  0.25500000000E-02 0.  1.
          2   -1    0    0  501    0  0.00000000000E+00 -0.00000000000E+00 -0.27006163042E+04  0.27006163042E+04  0.25500000000E-02 0. -1.
    8880022    1    1    2    0    0 -0.44156606185E+03 -0.10054572642E+04 -0.20008758053E+04  0.22875359097E+04  0.15294330000E+03 0.  0.
    8880022    1    1    2    0    0  0.44156606185E+03  0.10054572642E+04 -0.40679459319E+01  0.11087529474E+04  0.15294330000E+03 0.  0.
<mgrwt>
<rscale>  0 0.11087455E+04</rscale>
<asrwt>0</asrwt>
<pdfrwt beam="1">  1        2 0.41547943E+00 0.11087455E+04</pdfrwt>
<pdfrwt beam="2">  1       -2 0.10702655E+00 0.11087455E+04</pdfrwt>
<totfact> 0.18563831E+00</totfact>
</mgrwt>
</event>
<event>
 4    1  0.5387657E-008  0.5687879E+03  0.7818608E-02  0.9972364E-01
         -2   -1    0    0    0  501 -0.00000000000E+00  0.00000000000E+00  0.13107857022E+03  0.13107857025E+03  0.25500000000E-02 0.  1.
          2   -1    0    0  501    0  0.00000000000E+00 -0.00000000000E+00 -0.25353076406E+04  0.25353076406E+04  0.25500000000E-02 0. -1.
    8880022    1    1    2    0    0 -0.15740053921E+03  0.52474096821E+03 -0.14191208984E+04  0.15288635619E+04  0.15294330000E+03 0.  0.
    8880022    1    1    2    0    0  0.15740053921E+03 -0.52474096821E+03 -0.98510817192E+03  0.11375226489E+04  0.15294330000E+03 0.  0.
<mgrwt>
<rscale>  0 0.56878789E+03</rscale>
<asrwt>0</asrwt>
<pdfrwt beam="1">  1        2 0.39004729E+00 0.56878789E+03</pdfrwt>
<pdfrwt beam="2">  1       -2 0.20165936E-01 0.56878789E+03</pdfrwt>
<totfact> 0.74567118E+01</totfact>
</mgrwt>
</event>
<event>
 4    1  0.5387657E-008  0.5864797E+03  0.7818608E-02  0.9933860E-01
          2   -1    0    0  501    0  0.00000000000E+00  0.00000000000E+00  0.16827832138E+03  0.16827832140E+03  0.25500000000E-02 0. -1.
         -2   -1    0    0    0  501 -0.00000000000E+00 -0.00000000000E+00 -0.36115458348E+04  0.36115458348E+04  0.25500000000E-02 0.  1.
    8880022    1    1    2    0    0  0.11815075700E+03 -0.55372116377E+03 -0.29667423294E+04  0.30241558211E+04  0.15294330000E+03 0.  0.
    8880022    1    1    2    0    0 -0.11815075700E+03  0.55372116377E+03 -0.47652518405E+03  0.75566833508E+03  0.15294330000E+03 0.  0.
<mgrwt>
<rscale>  0 0.58647965E+03</rscale>
<asrwt>0</asrwt>
<pdfrwt beam="1">  1        2 0.25888975E-01 0.58647965E+03</pdfrwt>
<pdfrwt beam="2">  1       -2 0.55562238E+00 0.58647965E+03</pdfrwt>
<totfact> 0.17876053E-01</totfact>
</mgrwt>
</event>
<event>
 4    1  0.5387657E-008  0.3109224E+03  0.7818608E-02  0.1079905E+00
         -2   -1    0    0    0  501 -0.00000000000E+00  0.00000000000E+00  0.42912742945E+03  0.42912742946E+03  0.25500000000E-02 0.  1.
          2   -1    0    0  501    0  0.00000000000E+00 -0.00000000000E+00 -0.19608445665E+04  0.19608445665E+04  0.25500000000E-02 0. -1.
    8880022    1    1    2    0    0 -0.26743242134E+03 -0.41964461318E+02  0.35838892509E+03  0.47446326585E+03  0.15294330000E+03 0.  0.
    8880022    1    1    2    0    0  0.26743242134E+03  0.41964461318E+02 -0.18901060621E+04  0.19155087301E+04  0.15294330000E+03 0. -1.
<mgrwt>
<rscale>  0 0.31092245E+03</rscale>
<asrwt>0</asrwt>
<pdfrwt beam="1">  1        2 0.30166839E+00 0.31092245E+03</pdfrwt>
<pdfrwt beam="2">  1       -2 0.66019606E-01 0.31092245E+03</pdfrwt>
<totfact> 0.16872409E+01</totfact>
</mgrwt>
</event>
<event>
 4    1  0.5387657E-008  0.4946829E+03  0.7818608E-02  0.1015176E+00
          2   -1    0    0  501    0  0.00000000000E+00  0.00000000000E+00  0.28325458490E+04  0.28325458490E+04  0.25500000000E-02 0. -1.
         -2   -1    0    0    0  501 -0.00000000000E+00 -0.00000000000E+00 -0.12160755442E+03  0.12160755445E+03  0.25500000000E-02 0.  1.
    8880022    1    1    2    0    0 -0.45044894792E+03  0.13570275805E+03  0.56061760963E+03  0.74766519945E+03  0.15294330000E+03 0.  1.
    8880022    1    1    2    0    0  0.45044894792E+03 -0.13570275805E+03  0.21503206849E+04  0.22064882040E+04  0.15294330000E+03 0.  0.
<mgrwt>
<rscale>  0 0.49468287E+03</rscale>
<asrwt>0</asrwt>
<pdfrwt beam="1">  1        2 0.43577626E+00 0.49468287E+03</pdfrwt>
<pdfrwt beam="2">  1       -2 0.18708855E-01 0.49468287E+03</pdfrwt>
<totfact> 0.58095362E+01</totfact>
</mgrwt>
</event>
<event>
 4    1  0.5387657E-008  0.3132383E+03  0.7818608E-02  0.1078804E+00
          2   -1    0    0  501    0  0.00000000000E+00  0.00000000000E+00  0.13555885614E+04  0.13555885614E+04  0.25500000000E-02 0. -1.
         -2   -1    0    0    0  501 -0.00000000000E+00 -0.00000000000E+00 -0.21804064889E+03  0.21804064891E+03  0.25500000000E-02 0.  1.
    8880022    1    1    2    0    0  0.13153697052E+02 -0.27304493235E+03  0.12118673107E+04  0.12516950854E+04  0.15294330000E+03 0. -1.
    8880022    1    1    2    0    0 -0.13153697052E+02  0.27304493235E+03 -0.74319398254E+02  0.32193412494E+03  0.15294330000E+03 0.  0.
<mgrwt>
<rscale>  0 0.31323826E+03</rscale>
<asrwt>0</asrwt>
<pdfrwt beam="1">  1        2 0.20855209E+00 0.31323826E+03</pdfrwt>
<pdfrwt beam="2">  1       -2 0.33544715E-01 0.31323826E+03</pdfrwt>
<totfact> 0.13634890E+02</totfact>
</mgrwt>
</event>
<event>
 4    1  0.5387657E-008  0.8485027E+03  0.7818608E-02  0.9492349E-01
          2   -1    0    0  501    0  0.00000000000E+00  0.00000000000E+00  0.16656862006E+04  0.16656862006E+04  0.25500000000E-02 0. -1.
         -2   -1    0    0    0  501 -0.00000000000E+00 -0.00000000000E+00 -0.11580773950E+04  0.11580773950E+04  0.25500000000E-02 0.  1.
    8880022    1    1    2    0    0 -0.82314013060E+03  0.13786045360E+03 -0.86396623146E+03  0.12109477616E+04  0.15294330000E+03 0.  0.
    8880022    1    1    2    0    0  0.82314013060E+03 -0.13786045360E+03  0.13715750370E+04  0.16128158340E+04  0.15294330000E+03 0.  0.
<mgrwt>
<rscale>  0 0.84850270E+03</rscale>
<asrwt>0</asrwt>
<pdfrwt beam="1">  1        2 0.25625941E+00 0.84850270E+03</pdfrwt>
<pdfrwt beam="2">  1       -2 0.17816575E+00 0.84850270E+03</pdfrwt>
<totfact> 0.19438979E+00</totfact>
</mgrwt>
</event>
<event>
 4    1  0.6602737E-008  0.7596948E+03  0.7818608E-02  0.9620262E-01
         -2   -1    0    0    0  501 -0.00000000000E+00  0.00000000000E+00  0.11462865016E+04  0.11462865016E+04  0.25500000000E-02 0.  1.
          2   -1    0    0  501    0  0.00000000000E+00 -0.00000000000E+00 -0.20760365641E+04  0.20760365641E+04  0.25500000000E-02 0. -1.
    8880022    1    1    2    0    0 -0.64371696282E+03  0.37332688398E+03 -0.18671212045E+04  0.20157573603E+04  0.15294330000E+03 0.  0.
    8880022    1    1    2    0    0  0.64371696282E+03 -0.37332688398E+03  0.93737114198E+03  0.12065657054E+04  0.15294330000E+03 0.  1.
<mgrwt>
<rscale>  0 0.75969477E+03</rscale>
<asrwt>0</asrwt>
<pdfrwt beam="1">  1        2 0.31939024E+00 0.75969477E+03</pdfrwt>
<pdfrwt beam="2">  1       -2 0.17635177E+00 0.75969477E+03</pdfrwt>
<totfact> 0.12121321E+00</totfact>
</mgrwt>
</event>
<event>
 4    1  0.5387657E-008  0.2069966E+03  0.7818608E-02  0.1143967E+00
         -2   -1    0    0    0  501 -0.00000000000E+00  0.00000000000E+00  0.22539778435E+03  0.22539778437E+03  0.25500000000E-02 0.  1.
          2   -1    0    0  501    0  0.00000000000E+00 -0.00000000000E+00 -0.10902036420E+04  0.10902036420E+04  0.25500000000E-02 0. -1.
    8880022    1    1    2    0    0  0.70901241986E+01 -0.13930429657E+03 -0.10301085358E+04  0.10507003405E+04  0.15294330000E+03 0. -1.
    8880022    1    1    2    0    0 -0.70901241986E+01  0.13930429657E+03  0.16530267814E+03  0.26490108592E+03  0.15294330000E+03 0.  0.
<mgrwt>
<rscale>  0 0.20699664E+03</rscale>
<asrwt>0</asrwt>
<pdfrwt beam="1">  1        2 0.16772363E+00 0.20699664E+03</pdfrwt>
<pdfrwt beam="2">  1       -2 0.34676583E-01 0.20699664E+03</pdfrwt>
<totfact> 0.18509817E+02</totfact>
</mgrwt>
</event>
<event>
 4    1  0.5387657E-008  0.5167282E+03  0.7818608E-02  0.1009503E+00
         -2   -1    0    0    0  501 -0.00000000000E+00  0.00000000000E+00  0.10808306702E+03  0.10808306705E+03  0.25500000000E-02 0.  1.
          2   -1    0    0  501    0  0.00000000000E+00 -0.00000000000E+00 -0.25543286894E+04  0.25543286894E+04  0.25500000000E-02 0. -1.
    8880022    1    1    2    0    0  0.46493034097E+03  0.16569885653E+03 -0.14644310650E+04  0.15529218687E+04  0.15294330000E+03 0.  0.
    8880022    1    1    2    0    0 -0.46493034097E+03 -0.16569885653E+03 -0.98181455731E+03  0.11094898877E+04  0.15294330000E+03 0.  0.
<mgrwt>
<rscale>  0 0.51672815E+03</rscale>
<asrwt>0</asrwt>
<pdfrwt beam="1">  1        2 0.39297360E+00 0.51672815E+03</pdfrwt>
<pdfrwt beam="2">  1       -2 0.16628166E-01 0.51672815E+03</pdfrwt>
<totfact> 0.10229140E+02</totfact>
</mgrwt>
</event>
<event>
 4    1  0.5387657E-008  0.8263186E+03  0.7818608E-02  0.9522684E-01
         -2   -1    0    0    0  501 -0.00000000000E+00  0.00000000000E+00  0.93253968562E+03  0.93253968562E+03  0.25500000000E-02 0.  1.
          2   -1    0    0  501    0  0.00000000000E+00 -0.00000000000E+00 -0.97110789150E+03  0.97110789150E+03  0.25500000000E-02 0. -1.
    8880022    1    1    2    0    0 -0.41580950545E+03  0.69750496826E+03 -0.49139188522E+03  0.96138876811E+03  0.15294330000E+03 0.  0.
    8880022    1    1    2    0    0  0.41580950545E+03 -0.69750496826E+03  0.45282367934E+03  0.94225880901E+03  0.15294330000E+03 0.  0.
<mgrwt>
<rscale>  0 0.82631857E+03</rscale>
<asrwt>0</asrwt>
<pdfrwt beam="1">  1        2 0.14940121E+00 0.82631857E+03</pdfrwt>
<pdfrwt beam="2">  1       -2 0.14346764E+00 0.82631857E+03</pdfrwt>
<totfact> 0.89383681E+00</totfact>
</mgrwt>
</event>
<event>
 4    1  0.5387657E-008  0.4833837E+03  0.7818608E-02  0.1018209E+00
          2   -1    0    0  501    0  0.00000000000E+00  0.00000000000E+00  0.21446068443E+03  0.21446068445E+03  0.25500000000E-02 0. -1.
         -2   -1    0    0    0  501 -0.00000000000E+00 -0.00000000000E+00 -0.11327087852E+04  0.11327087852E+04  0.25500000000E-02 0.  1.
    8880022    1    1    2    0    0  0.30981504496E+03 -0.33805730046E+03 -0.59064827033E+03  0.76323334095E+03  0.15294330000E+03 0.  1.
    8880022    1    1    2    0    0 -0.30981504496E+03  0.33805730046E+03 -0.32759983042E+03  0.58393612869E+03  0.15294330000E+03 0.  0.
<mgrwt>
<rscale>  0 0.48338365E+03</rscale>
<asrwt>0</asrwt>
<pdfrwt beam="1">  1        2 0.32993952E-01 0.48338365E+03</pdfrwt>
<pdfrwt beam="2">  1       -2 0.17426289E+00 0.48338365E+03</pdfrwt>
<totfact> 0.32908197E+01</totfact>
</mgrwt>
</event>
<event>
 4    1  0.5387657E-008  0.6585450E+03  0.7818608E-02  0.9790876E-01
         -2   -1    0    0    0  501 -0.00000000000E+00  0.00000000000E+00  0.18245344762E+03  0.18245344764E+03  0.25500000000E-02 0.  1.
          2   -1    0    0  501    0  0.00000000000E+00 -0.00000000000E+00 -0.28825831771E+04  0.28825831771E+04  0.25500000000E-02 0. -1.
    8880022    1    1    2    0    0  0.15130588149E+03 -0.62241170387E+03 -0.19919177833E+04  0.20979556496E+04  0.15294330000E+03 0.  0.
    8880022    1    1    2    0    0 -0.15130588149E+03  0.62241170387E+03 -0.70821194613E+03  0.96708097518E+03  0.15294330000E+03 0.  0.
<mgrwt>
<rscale>  0 0.65854495E+03</rscale>
<asrwt>0</asrwt>
<pdfrwt beam="1">  1        2 0.44347430E+00 0.65854495E+03</pdfrwt>
<pdfrwt beam="2">  1       -2 0.28069763E-01 0.65854495E+03</pdfrwt>
<totfact> 0.25578114E+01</totfact>
</mgrwt>
</event>
<event>
 4    1  0.5387657E-008  0.9621917E+03  0.7818608E-02  0.9351013E-01
          2   -1    0    0  501    0  0.00000000000E+00  0.00000000000E+00  0.53009268553E+03  0.53009268554E+03  0.25500000000E-02 0. -1.
         -2   -1    0    0    0  501 -0.00000000000E+00 -0.00000000000E+00 -0.23924825844E+04  0.23924825844E+04  0.25500000000E-02 0.  1.
    8880022    1    1    2    0    0  0.32149413254E+03  0.89390306723E+03 -0.17188699513E+03  0.97742414691E+03  0.15294330000E+03 0.  0.
    8880022    1    1    2    0    0 -0.32149413254E+03 -0.89390306723E+03 -0.16905029037E+04  0.19451511230E+04  0.15294330000E+03 0.  0.
<mgrwt>
<rscale>  0 0.96219168E+03</rscale>
<asrwt>0</asrwt>
<pdfrwt beam="1">  1        2 0.81552723E-01 0.96219168E+03</pdfrwt>
<pdfrwt beam="2">  1       -2 0.36807424E+00 0.96219168E+03</pdfrwt>
<totfact> 0.70205948E-01</totfact>
</mgrwt>
</event>
<event>
 4    1  0.5387657E-008  0.4363101E+03  0.7818608E-02  0.1031885E+00
         -2   -1    0    0    0  501 -0.00000000000E+00  0.00000000000E+00  0.12287844020E+03  0.12287844023E+03  0.25500000000E-02 0.  1.
          2   -1    0    0  501    0  0.00000000000E+00 -0.00000000000E+00 -0.18049676874E+04  0.18049676874E+04  0.25500000000E-02 0. -1.
    8880022    1    1    2    0    0  0.40790011497E+03  0.24338840474E+02 -0.47821060918E+03  0.64734219907E+03  0.15294330000E+03 0.  0.
    8880022    1    1    2    0    0 -0.40790011497E+03 -0.24338840474E+02 -0.12038786380E+04  0.12805039285E+04  0.15294330000E+03 0.  1.
<mgrwt>
<rscale>  0 0.43631014E+03</rscale>
<asrwt>0</asrwt>
<pdfrwt beam="1">  1        2 0.27768732E+00 0.43631014E+03</pdfrwt>
<pdfrwt beam="2">  1       -2 0.18904377E-01 0.43631014E+03</pdfrwt>
<totfact> 0.21296520E+02</totfact>
</mgrwt>
</event>
<event>
 4    1  0.5387657E-008  0.2398659E+03  0.7818608E-02  0.1119882E+00
         -2   -1    0    0    0  501 -0.00000000000E+00  0.00000000000E+00  0.51390952714E+03  0.51390952715E+03  0.25500000000E-02 0.  1.
          2   -1    0    0  501    0  0.00000000000E+00 -0.00000000000E+00 -0.35684023385E+03  0.35684023386E+03  0.25500000000E-02 0. -1.
    8880022    1    1    2    0    0  0.17545338328E+03 -0.57966496874E+02  0.43920145679E+03  0.50043338930E+03  0.15294330000E+03 0.  1.
    8880022    1    1    2    0    0 -0.17545338328E+03  0.57966496874E+02 -0.28213216349E+03  0.37031637171E+03  0.15294330000E+03 0.  0.
<mgrwt>
<rscale>  0 0.23986592E+03</rscale>
<asrwt>0</asrwt>
<pdfrwt beam="1">  1        2 0.54898498E-01 0.23986592E+03</pdfrwt>
<pdfrwt beam="2">  1       -2 0.79063004E-01 0.23986592E+03</pdfrwt>
<totfact> 0.13390438E+02</totfact>
</mgrwt>
</event>
<event>
 4    1  0.5387657E-008  0.7715443E+03  0.7818608E-02  0.9602144E-01
          2   -1    0    0  501    0  0.00000000000E+00  0.00000000000E+00  0.62155137479E+03  0.62155137479E+03  0.25500000000E-02 0. -1.
         -2   -1    0    0    0  501 -0.00000000000E+00 -0.00000000000E+00 -0.15828558526E+04  0.15828558526E+04  0.25500000000E-02 0.  1.
    8880022    1    1    2    0    0  0.39795770023E+03  0.64305416123E+03 -0.11733178478E+04  0.14042632981E+04  0.15294330000E+03 0.  0.
    8880022    1    1    2    0    0 -0.39795770023E+03 -0.64305416123E+03  0.21201337002E+03  0.80014392926E+03  0.15294330000E+03 0.  0.
<mgrwt>
<rscale>  0 0.77154432E+03</rscale>
<asrwt>0</asrwt>
<pdfrwt beam="1">  1        2 0.95623289E-01 0.77154432E+03</pdfrwt>
<pdfrwt beam="2">  1       -2 0.24351628E+00 0.77154432E+03</pdfrwt>
<totfact> 0.34331170E+00</totfact>
</mgrwt>
</event>
<event>
 4    1  0.5387657E-008  0.4203395E+03  0.7818608E-02  0.1036956E+00
          2   -1    0    0  501    0  0.00000000000E+00  0.00000000000E+00  0.96970611849E+03  0.96970611849E+03  0.25500000000E-02 0. -1.
         -2   -1    0    0    0  501 -0.00000000000E+00 -0.00000000000E+00 -0.25067337671E+03  0.25067337672E+03  0.25500000000E-02 0.  1.
    8880022    1    1    2    0    0 -0.14838928760E+02  0.39124607169E+03  0.67841724633E+03  0.79808226114E+03  0.15294330000E+03 0.  0.
    8880022    1    1    2    0    0  0.14838928760E+02 -0.39124607169E+03  0.40615495453E+02  0.42229723407E+03  0.15294330000E+03 0.  0.
<mgrwt>
<rscale>  0 0.42033955E+03</rscale>
<asrwt>0</asrwt>
<pdfrwt beam="1">  1        2 0.14918555E+00 0.42033955E+03</pdfrwt>
<pdfrwt beam="2">  1       -2 0.38565136E-01 0.42033955E+03</pdfrwt>
<totfact> 0.17372296E+02</totfact>
</mgrwt>
</event>
<event>
 4    1  0.5387657E-008  0.5722543E+03  0.7818608E-02  0.9964702E-01
         -2   -1    0    0    0  501 -0.00000000000E+00  0.00000000000E+00  0.19529098976E+03  0.19529098978E+03  0.25500000000E-02 0.  1.
          2   -1    0    0  501    0  0.00000000000E+00 -0.00000000000E+00 -0.17790445709E+04  0.17790445709E+04  0.25500000000E-02 0. -1.
    8880022    1    1    2    0    0  0.53939600294E+03  0.11460949873E+03 -0.10284670541E+04  0.11769534909E+04  0.15294330000E+03 0.  0.
    8880022    1    1    2    0    0 -0.53939600294E+03 -0.11460949873E+03 -0.55528652698E+03  0.79738206981E+03  0.15294330000E+03 0.  0.
<mgrwt>
<rscale>  0 0.57225435E+03</rscale>
<asrwt>0</asrwt>
<pdfrwt beam="1">  1        2 0.27369915E+00 0.57225435E+03</pdfrwt>
<pdfrwt beam="2">  1       -2 0.30044769E-01 0.57225435E+03</pdfrwt>
<totfact> 0.94568780E+01</totfact>
</mgrwt>
</event>
<event>
 4    1  0.5387657E-008  0.4906512E+03  0.7818608E-02  0.1016248E+00
          2   -1    0    0  501    0  0.00000000000E+00  0.00000000000E+00  0.17135770984E+04  0.17135770984E+04  0.25500000000E-02 0. -1.
         -2   -1    0    0    0  501 -0.00000000000E+00 -0.00000000000E+00 -0.20350420943E+03  0.20350420945E+03  0.25500000000E-02 0.  1.
    8880022    1    1    2    0    0 -0.22718219600E+03  0.40710592553E+03  0.12884287200E+04  0.13786903947E+04  0.15294330000E+03 0.  0.
    8880022    1    1    2    0    0  0.22718219600E+03 -0.40710592553E+03  0.22164416899E+03  0.53839091323E+03  0.15294330000E+03 0.  0.
<mgrwt>
<rscale>  0 0.49065124E+03</rscale>
<asrwt>0</asrwt>
<pdfrwt beam="1">  1        2 0.26362724E+00 0.49065124E+03</pdfrwt>
<pdfrwt beam="2">  1       -2 0.31308341E-01 0.49065124E+03</pdfrwt>
<totfact> 0.96146173E+01</totfact>
</mgrwt>
</event>
<event>
 4    1  0.5387657E-008  0.5784008E+03  0.7818608E-02  0.9951259E-01
         -2   -1    0    0    0  501 -0.00000000000E+00  0.00000000000E+00  0.79956110246E+03  0.79956110247E+03  0.25500000000E-02 0.  1.
          2   -1    0    0  501    0  0.00000000000E+00 -0.00000000000E+00 -0.59854712508E+03  0.59854712508E+03  0.25500000000E-02 0. -1.
    8880022    1    1    2    0    0  0.34932634989E+03 -0.43488725389E+03  0.48400095846E+03  0.75419122451E+03  0.15294330000E+03 0.  0.
    8880022    1    1    2    0    0 -0.34932634989E+03  0.43488725389E+03 -0.28298698108E+03  0.64391700304E+03  0.15294330000E+03 0.  0.
<mgrwt>
<rscale>  0 0.57840079E+03</rscale>
<asrwt>0</asrwt>
<pdfrwt beam="1">  1        2 0.92084174E-01 0.57840079E+03</pdfrwt>
<pdfrwt beam="2">  1       -2 0.12300940E+00 0.57840079E+03</pdfrwt>
<totfact> 0.25572876E+01</totfact>
</mgrwt>
</event>
<event>
 4    1  0.5387657E-008  0.2131474E+03  0.7818608E-02  0.1139098E+00
         -2   -1    0    0    0  501 -0.00000000000E+00  0.00000000000E+00  0.22194537778E+03  0.22194537780E+03  0.25500000000E-02 0.  1.
          2   -1    0    0  501    0  0.00000000000E+00 -0.00000000000E+00 -0.44869181085E+03  0.44869181086E+03  0.25500000000E-02 0. -1.
    8880022    1    1    2    0    0 -0.14652611145E+03 -0.23880456162E+02 -0.36064396730E+03  0.41892230985E+03  0.15294330000E+03 0. -1.
    8880022    1    1    2    0    0  0.14652611145E+03  0.23880456162E+02  0.13389753423E+03  0.25171487880E+03  0.15294330000E+03 0.  0.
<mgrwt>
<rscale>  0 0.21314744E+03</rscale>
<asrwt>0</asrwt>
<pdfrwt beam="1">  1        2 0.69029510E-01 0.21314744E+03</pdfrwt>
<pdfrwt beam="2">  1       -2 0.34145443E-01 0.21314744E+03</pdfrwt>
<totfact> 0.56865807E+02</totfact>
</mgrwt>
</event>
<event>
 4    1  0.5387657E-008  0.5095131E+03  0.7818608E-02  0.1011325E+00
         -2   -1    0    0    0  501 -0.00000000000E+00  0.00000000000E+00  0.39211831488E+03  0.39211831489E+03  0.25500000000E-02 0.  1.
          2   -1    0    0  501    0  0.00000000000E+00 -0.00000000000E+00 -0.20721741797E+04  0.20721741797E+04  0.25500000000E-02 0. -1.
    8880022    1    1    2    0    0  0.37417838114E+03  0.31016524449E+03  0.17640132298E+03  0.53918551498E+03  0.15294330000E+03 0.  0.
    8880022    1    1    2    0    0 -0.37417838114E+03 -0.31016524449E+03 -0.18564571878E+04  0.19251069796E+04  0.15294330000E+03 0.  0.
<mgrwt>
<rscale>  0 0.50951309E+03</rscale>
<asrwt>0</asrwt>
<pdfrwt beam="1">  1        2 0.31879602E+00 0.50951309E+03</pdfrwt>
<pdfrwt beam="2">  1       -2 0.60325896E-01 0.50951309E+03</pdfrwt>
<totfact> 0.16856353E+01</totfact>
</mgrwt>
</event>
<event>
 4    1  0.5387657E-008  0.1431271E+04  0.7818608E-02  0.8931489E-01
          2   -1    0    0  501    0  0.00000000000E+00  0.00000000000E+00  0.17620714422E+04  0.17620714422E+04  0.25500000000E-02 0. -1.
         -2   -1    0    0    0  501 -0.00000000000E+00 -0.00000000000E+00 -0.20945481557E+04  0.20945481557E+04  0.25500000000E-02 0.  1.
    8880022    1    1    2    0    0 -0.14103220922E+04 -0.19009952496E+03  0.11200360895E+04  0.18174209000E+04  0.15294330000E+03 0.  0.
    8880022    1    1    2    0    0  0.14103220922E+04  0.19009952496E+03 -0.14525128030E+04  0.20391986978E+04  0.15294330000E+03 0.  0.
<mgrwt>
<rscale>  0 0.14312714E+04</rscale>
<asrwt>0</asrwt>
<pdfrwt beam="1">  1        2 0.27108791E+00 0.14312714E+04</pdfrwt>
<pdfrwt beam="2">  1       -2 0.32223818E+00 0.14312714E+04</pdfrwt>
<totfact> 0.19903599E-01</totfact>
</mgrwt>
</event>
<event>
 4    1  0.5387657E-008  0.7689375E+03  0.7818608E-02  0.9606100E-01
          2   -1    0    0  501    0  0.00000000000E+00  0.00000000000E+00  0.21858670274E+04  0.21858670274E+04  0.25500000000E-02 0. -1.
         -2   -1    0    0    0  501 -0.00000000000E+00 -0.00000000000E+00 -0.31747884755E+03  0.31747884756E+03  0.25500000000E-02 0.  1.
    8880022    1    1    2    0    0 -0.64262706757E+03 -0.39357795858E+03  0.45267835438E+03  0.89229059336E+03  0.15294330000E+03 0.  0.
    8880022    1    1    2    0    0  0.64262706757E+03  0.39357795858E+03  0.14157098255E+04  0.16110552817E+04  0.15294330000E+03 0.  0.
<mgrwt>
<rscale>  0 0.76893746E+03</rscale>
<asrwt>0</asrwt>
<pdfrwt beam="1">  1        2 0.33628724E+00 0.76893746E+03</pdfrwt>
<pdfrwt beam="2">  1       -2 0.48842900E-01 0.76893746E+03</pdfrwt>
<totfact> 0.21609148E+01</totfact>
</mgrwt>
</event>
<event>
 4    1  0.5387657E-008  0.1574115E+03  0.7818608E-02  0.1191651E+00
          2   -1    0    0  501    0  0.00000000000E+00  0.00000000000E+00  0.27139390125E+04  0.27139390125E+04  0.25500000000E-02 0. -1.
         -2   -1    0    0    0  501 -0.00000000000E+00 -0.00000000000E+00 -0.50805936983E+03  0.50805936984E+03  0.25500000000E-02 0.  1.
    8880022    1    1    2    0    0 -0.31853208294E+02 -0.19290028372E+02  0.26993982168E+04  0.27039839345E+04  0.15294330000E+03 0.  0.
    8880022    1    1    2    0    0  0.31853208294E+02  0.19290028372E+02 -0.49351857418E+03  0.51801444781E+03  0.15294330000E+03 0.  1.
<mgrwt>
<rscale>  0 0.15741152E+03</rscale>
<asrwt>0</asrwt>
<pdfrwt beam="1">  1        2 0.41752908E+00 0.15741152E+03</pdfrwt>
<pdfrwt beam="2">  1       -2 0.78162979E-01 0.15741152E+03</pdfrwt>
<totfact> 0.50635503E+00</totfact>
</mgrwt>
</event>
<event>
 4    1  0.5387657E-008  0.5842999E+03  0.7818608E-02  0.9938525E-01
         -2   -1    0    0    0  501 -0.00000000000E+00  0.00000000000E+00  0.21839632518E+03  0.21839632520E+03  0.25500000000E-02 0.  1.
          2   -1    0    0  501    0  0.00000000000E+00 -0.00000000000E+00 -0.25308729474E+04  0.25308729474E+04  0.25500000000E-02 0. -1.
    8880022    1    1    2    0    0 -0.47422323739E+03 -0.30516732439E+03 -0.20062147017E+04  0.20895702566E+04  0.15294330000E+03 0.  0.
    8880022    1    1    2    0    0  0.47422323739E+03  0.30516732439E+03 -0.30626192047E+03  0.65969901600E+03  0.15294330000E+03 0.  0.
<mgrwt>
<rscale>  0 0.58429995E+03</rscale>
<asrwt>0</asrwt>
<pdfrwt beam="1">  1        2 0.38936505E+00 0.58429995E+03</pdfrwt>
<pdfrwt beam="2">  1       -2 0.33599437E-01 0.58429995E+03</pdfrwt>
<totfact> 0.29693219E+01</totfact>
</mgrwt>
</event>
<event>
 4    1  0.5387657E-008  0.2472956E+03  0.7818608E-02  0.1115026E+00
          2   -1    0    0  501    0  0.00000000000E+00  0.00000000000E+00  0.14577334842E+04  0.14577334842E+04  0.25500000000E-02 0. -1.
         -2   -1    0    0    0  501 -0.00000000000E+00 -0.00000000000E+00 -0.14042245614E+03  0.14042245617E+03  0.25500000000E-02 0.  1.
    8880022    1    1    2    0    0 -0.94125545432E+02 -0.17001130033E+03 -0.10494403669E+02  0.24751817321E+03  0.15294330000E+03 0.  1.
    8880022    1    1    2    0    0  0.94125545432E+02  0.17001130033E+03  0.13278054317E+04  0.13506377672E+04  0.15294330000E+03 0.  0.
<mgrwt>
<rscale>  0 0.24729560E+03</rscale>
<asrwt>0</asrwt>
<pdfrwt beam="1">  1        2 0.22426672E+00 0.24729560E+03</pdfrwt>
<pdfrwt beam="2">  1       -2 0.21603452E-01 0.24729560E+03</pdfrwt>
<totfact> 0.26756828E+02</totfact>
</mgrwt>
</event>
<event>
 4    1  0.5387657E-008  0.7521263E+03  0.7818608E-02  0.9632020E-01
          2   -1    0    0  501    0  0.00000000000E+00  0.00000000000E+00  0.31564792072E+04  0.31564792072E+04  0.25500000000E-02 0. -1.
         -2   -1    0    0    0  501 -0.00000000000E+00 -0.00000000000E+00 -0.46936940249E+03  0.46936940249E+03  0.25500000000E-02 0.  1.
    8880022    1    1    2    0    0 -0.73045282473E+03  0.93493572134E+02 -0.81841098895E+02  0.75656592289E+03  0.15294330000E+03 0.  0.
    8880022    1    1    2    0    0  0.73045282473E+03 -0.93493572134E+02  0.27689509036E+04  0.28692826868E+04  0.15294330000E+03 0.  0.
<mgrwt>
<rscale>  0 0.75212634E+03</rscale>
<asrwt>0</asrwt>
<pdfrwt beam="1">  1        2 0.48561219E+00 0.75212634E+03</pdfrwt>
<pdfrwt beam="2">  1       -2 0.72210676E-01 0.75212634E+03</pdfrwt>
<totfact> 0.25777382E+00</totfact>
</mgrwt>
</event>
<event>
 4    1  0.5387657E-008  0.4187915E+03  0.7818608E-02  0.1037460E+00
         -2   -1    0    0    0  501 -0.00000000000E+00  0.00000000000E+00  0.23289852208E+03  0.23289852209E+03  0.25500000000E-02 0.  1.
          2   -1    0    0  501    0  0.00000000000E+00 -0.00000000000E+00 -0.85211362669E+03  0.85211362670E+03  0.25500000000E-02 0. -1.
    8880022    1    1    2    0    0 -0.38320321422E+03 -0.71763447347E+02 -0.49457403524E+03  0.64806621970E+03  0.15294330000E+03 0. -1.
    8880022    1    1    2    0    0  0.38320321422E+03  0.71763447347E+02 -0.12464106937E+03  0.43694592909E+03  0.15294330000E+03 0.  1.
<mgrwt>
<rscale>  0 0.41879153E+03</rscale>
<asrwt>0</asrwt>
<pdfrwt beam="1">  1        2 0.13109440E+00 0.41879153E+03</pdfrwt>
<pdfrwt beam="2">  1       -2 0.35830542E-01 0.41879153E+03</pdfrwt>
<totfact> 0.23875039E+02</totfact>
</mgrwt>
</event>
<event>
 4    1  0.5387657E-008  0.4390948E+03  0.7818608E-02  0.1031025E+00
          2   -1    0    0  501    0  0.00000000000E+00  0.00000000000E+00  0.22248480035E+04  0.22248480035E+04  0.25500000000E-02 0. -1.
         -2   -1    0    0    0  501 -0.00000000000E+00 -0.00000000000E+00 -0.21079543969E+03  0.21079543970E+03  0.25500000000E-02 0.  1.
    8880022    1    1    2    0    0 -0.15041334895E+03 -0.38312977200E+03  0.72477768792E+02  0.44503626563E+03  0.15294330000E+03 0.  0.
    8880022    1    1    2    0    0  0.15041334895E+03  0.38312977200E+03  0.19415747950E+04  0.19906071776E+04  0.15294330000E+03 0.  0.
<mgrwt>
<rscale>  0 0.43909481E+03</rscale>
<asrwt>0</asrwt>
<pdfrwt beam="1">  1        2 0.34228432E+00 0.43909481E+03</pdfrwt>
<pdfrwt beam="2">  1       -2 0.32430067E-01 0.43909481E+03</pdfrwt>
<totfact> 0.48262192E+01</totfact>
</mgrwt>
</event>
<event>
 4    1  0.5387657E-008  0.1195140E+04  0.7818608E-02  0.9117121E-01
         -2   -1    0    0    0  501 -0.00000000000E+00  0.00000000000E+00  0.95316828694E+03  0.95316828695E+03  0.25500000000E-02 0.  1.
          2   -1    0    0  501    0  0.00000000000E+00 -0.00000000000E+00 -0.17696709882E+04  0.17696709883E+04  0.25500000000E-02 0. -1.
    8880022    1    1    2    0    0 -0.68544416284E+03 -0.96702324568E+03  0.12463743235E+03  0.12016213216E+04  0.15294330000E+03 0.  0.
    8880022    1    1    2    0    0  0.68544416284E+03  0.96702324568E+03 -0.94114013365E+03  0.15212179536E+04  0.15294330000E+03 0.  0.
<mgrwt>
<rscale>  0 0.11951399E+04</rscale>
<asrwt>0</asrwt>
<pdfrwt beam="1">  1        2 0.27225707E+00 0.11951399E+04</pdfrwt>
<pdfrwt beam="2">  1       -2 0.14664128E+00 0.11951399E+04</pdfrwt>
<totfact> 0.27766986E+00</totfact>
</mgrwt>
</event>
<event>
 4    1  0.5387657E-008  0.9742988E+03  0.7818608E-02  0.9337191E-01
         -2   -1    0    0    0  501 -0.00000000000E+00  0.00000000000E+00  0.47530716433E+03  0.47530716434E+03  0.25500000000E-02 0.  1.
          2   -1    0    0  501    0  0.00000000000E+00 -0.00000000000E+00 -0.21241804918E+04  0.21241804918E+04  0.25500000000E-02 0. -1.
    8880022    1    1    2    0    0 -0.82966440995E+03  0.48736378270E+03 -0.50658707239E+03  0.10981295938E+04  0.15294330000E+03 0.  0.
    8880022    1    1    2    0    0  0.82966440995E+03 -0.48736378270E+03 -0.11422862551E+04  0.15013580624E+04  0.15294330000E+03 0.  0.
<mgrwt>
<rscale>  0 0.97429880E+03</rscale>
<asrwt>0</asrwt>
<pdfrwt beam="1">  1        2 0.32679699E+00 0.97429880E+03</pdfrwt>
<pdfrwt beam="2">  1       -2 0.73124180E-01 0.97429880E+03</pdfrwt>
<totfact> 0.96912157E+00</totfact>
</mgrwt>
</event>
<event>
 4    1  0.1050793E-007  0.1091497E+04  0.7818608E-02  0.9213519E-01
         -2   -1    0    0    0  501 -0.00000000000E+00  0.00000000000E+00  0.22775818003E+04  0.22775818003E+04  0.25500000000E-02 0.  1.
          2   -1    0    0  501    0  0.00000000000E+00 -0.00000000000E+00 -0.15311007240E+04  0.15311007240E+04  0.25500000000E-02 0. -1.
    8880022    1    1    2    0    0  0.10708584926E+04 -0.14572587423E+03  0.19184126471E+04  0.22071865982E+04  0.15294330000E+03 0.  0.
    8880022    1    1    2    0    0 -0.10708584926E+04  0.14572587423E+03 -0.11719315708E+04  0.16014959261E+04  0.15294330000E+03 0.  0.
<mgrwt>
<rscale>  0 0.10914970E+04</rscale>
<asrwt>0</asrwt>
<pdfrwt beam="1">  1        2 0.23555396E+00 0.10914970E+04</pdfrwt>
<pdfrwt beam="2">  1       -2 0.35039720E+00 0.10914970E+04</pdfrwt>
<totfact> 0.18803392E-01</totfact>
</mgrwt>
</event>
<event>
 4    1  0.5387657E-008  0.1051054E+04  0.7818608E-02  0.9254257E-01
          2   -1    0    0  501    0  0.00000000000E+00  0.00000000000E+00  0.25034894888E+04  0.25034894888E+04  0.25500000000E-02 0. -1.
         -2   -1    0    0    0  501 -0.00000000000E+00 -0.00000000000E+00 -0.48150816839E+03  0.48150816840E+03  0.25500000000E-02 0.  1.
    8880022    1    1    2    0    0  0.10340911291E+04  0.10944188259E+03  0.14424439473E+04  0.17847571776E+04  0.15294330000E+03 0.  0.
    8880022    1    1    2    0    0 -0.10340911291E+04 -0.10944188259E+03  0.57953737304E+03  0.12002404795E+04  0.15294330000E+03 0.  0.
<mgrwt>
<rscale>  0 0.10510536E+04</rscale>
<asrwt>0</asrwt>
<pdfrwt beam="1">  1        2 0.38515223E+00 0.10510536E+04</pdfrwt>
<pdfrwt beam="2">  1       -2 0.74078180E-01 0.10510536E+04</pdfrwt>
<totfact> 0.57107457E+00</totfact>
</mgrwt>
</event>
<event>
 4    1  0.5387657E-008  0.6434243E+03  0.7818608E-02  0.9819197E-01
         -2   -1    0    0    0  501 -0.00000000000E+00  0.00000000000E+00  0.51518525616E+03  0.51518525617E+03  0.25500000000E-02 0.  1.
          2   -1    0    0  501    0  0.00000000000E+00 -0.00000000000E+00 -0.15876746031E+04  0.15876746031E+04  0.25500000000E-02 0. -1.
    8880022    1    1    2    0    0 -0.45435381016E+03 -0.42914543938E+03  0.20265009952E+03  0.67458276646E+03  0.15294330000E+03 0.  0.
    8880022    1    1    2    0    0  0.45435381016E+03  0.42914543938E+03 -0.12751394465E+04  0.14282770928E+04  0.15294330000E+03 0.  0.
<mgrwt>
<rscale>  0 0.64342431E+03</rscale>
<asrwt>0</asrwt>
<pdfrwt beam="1">  1        2 0.24425763E+00 0.64342431E+03</pdfrwt>
<pdfrwt beam="2">  1       -2 0.79259271E-01 0.64342431E+03</pdfrwt>
<totfact> 0.16652699E+01</totfact>
</mgrwt>
</event>
<event>
 4    1  0.5387657E-008  0.4770579E+03  0.7818608E-02  0.1019947E+00
          2   -1    0    0  501    0  0.00000000000E+00  0.00000000000E+00  0.49586761708E+03  0.49586761709E+03  0.25500000000E-02 0. -1.
         -2   -1    0    0    0  501 -0.00000000000E+00 -0.00000000000E+00 -0.55363359136E+03  0.55363359136E+03  0.25500000000E-02 0.  1.
    8880022    1    1    2    0    0  0.92139210677E+02 -0.44238325601E+03 -0.24587927973E+03  0.53669437538E+03  0.15294330000E+03 0.  0.
    8880022    1    1    2    0    0 -0.92139210677E+02  0.44238325601E+03  0.18811330546E+03  0.51280683308E+03  0.15294330000E+03 0.  0.
<mgrwt>
<rscale>  0 0.47705789E+03</rscale>
<asrwt>0</asrwt>
<pdfrwt beam="1">  1        2 0.76287326E-01 0.47705789E+03</pdfrwt>
<pdfrwt beam="2">  1       -2 0.85174398E-01 0.47705789E+03</pdfrwt>
<totfact> 0.76903162E+01</totfact>
</mgrwt>
</event>
<event>
 4    1  0.5387657E-008  0.2265987E+03  0.7818608E-02  0.1129057E+00
         -2   -1    0    0    0  501 -0.00000000000E+00  0.00000000000E+00  0.33785084475E+03  0.33785084476E+03  0.25500000000E-02 0.  1.
          2   -1    0    0  501    0  0.00000000000E+00 -0.00000000000E+00 -0.13906464631E+04  0.13906464631E+04  0.25500000000E-02 0. -1.
    8880022    1    1    2    0    0  0.64465468185E+01 -0.16707411407E+03 -0.13420543562E+04  0.13610499130E+04  0.15294330000E+03 0.  0.
    8880022    1    1    2    0    0 -0.64465468185E+01  0.16707411407E+03  0.28925873787E+03  0.36744739489E+03  0.15294330000E+03 0.  0.
<mgrwt>
<rscale>  0 0.22659870E+03</rscale>
<asrwt>0</asrwt>
<pdfrwt beam="1">  1        2 0.21394561E+00 0.22659870E+03</pdfrwt>
<pdfrwt beam="2">  1       -2 0.51977054E-01 0.22659870E+03</pdfrwt>
<totfact> 0.57157349E+01</totfact>
</mgrwt>
</event>
<event>
 4    1  0.5387657E-008  0.2642155E+03  0.7818608E-02  0.1104637E+00
          2   -1    0    0  501    0  0.00000000000E+00  0.00000000000E+00  0.32202380300E+04  0.32202380300E+04  0.25500000000E-02 0. -1.
         -2   -1    0    0    0  501 -0.00000000000E+00 -0.00000000000E+00 -0.17535641868E+03  0.17535641870E+03  0.25500000000E-02 0.  1.
    8880022    1    1    2    0    0 -0.12701476504E+03 -0.17402708106E+03  0.31118318634E+04  0.31230285581E+04  0.15294330000E+03 0. -1.
    8880022    1    1    2    0    0  0.12701476504E+03  0.17402708106E+03 -0.66950252054E+02  0.27256589065E+03  0.15294330000E+03 0.  0.
<mgrwt>
<rscale>  0 0.26421550E+03</rscale>
<asrwt>0</asrwt>
<pdfrwt beam="1">  1        2 0.49542120E+00 0.26421550E+03</pdfrwt>
<pdfrwt beam="2">  1       -2 0.26977913E-01 0.26421550E+03</pdfrwt>
<totfact> 0.19267051E+01</totfact>
</mgrwt>
</event>
<event>
 4    1  0.5387657E-008  0.3591894E+03  0.7818608E-02  0.1058905E+00
         -2   -1    0    0    0  501 -0.00000000000E+00  0.00000000000E+00  0.20795515062E+03  0.20795515063E+03  0.25500000000E-02 0.  1.
          2   -1    0    0  501    0  0.00000000000E+00 -0.00000000000E+00 -0.75113419162E+03  0.75113419163E+03  0.25500000000E-02 0. -1.
    8880022    1    1    2    0    0 -0.27266558910E+03  0.17685830433E+03 -0.71533497760E+02  0.36624319462E+03  0.15294330000E+03 0.  0.
    8880022    1    1    2    0    0  0.27266558910E+03 -0.17685830433E+03 -0.47164554325E+03  0.59284614764E+03  0.15294330000E+03 0.  0.
<mgrwt>
<rscale>  0 0.35918942E+03</rscale>
<asrwt>0</asrwt>
<pdfrwt beam="1">  1        2 0.11555911E+00 0.35918942E+03</pdfrwt>
<pdfrwt beam="2">  1       -2 0.31993100E-01 0.35918942E+03</pdfrwt>
<totfact> 0.34925656E+02</totfact>
</mgrwt>
</event>
<event>
 4    1  0.5387657E-008  0.1715602E+03  0.7818608E-02  0.1176231E+00
          2   -1    0    0  501    0  0.00000000000E+00  0.00000000000E+00  0.16988943500E+04  0.16988943500E+04  0.25500000000E-02 0. -1.
         -2   -1    0    0    0  501 -0.00000000000E+00 -0.00000000000E+00 -0.31971738589E+02  0.31971738690E+02  0.25500000000E-02 0.  1.
    8880022    1    1    2    0    0  0.40449469806E+02  0.66370813609E+02  0.14192280530E+04  0.14295597798E+04  0.15294330000E+03 0.  0.
    8880022    1    1    2    0    0 -0.40449469806E+02 -0.66370813609E+02  0.24769455835E+03  0.30130630886E+03  0.15294330000E+03 0.  1.
<mgrwt>
<rscale>  0 0.17156019E+03</rscale>
<asrwt>0</asrwt>
<pdfrwt beam="1">  1        2 0.26136833E+00 0.17156019E+03</pdfrwt>
<pdfrwt beam="2">  1       -2 0.49187297E-02 0.17156019E+03</pdfrwt>
<totfact> 0.21542348E+03</totfact>
</mgrwt>
</event>
<event>
 4    1  0.5387657E-008  0.4897737E+03  0.7818608E-02  0.1016483E+00
         -2   -1    0    0    0  501 -0.00000000000E+00  0.00000000000E+00  0.14698272642E+03  0.14698272644E+03  0.25500000000E-02 0.  1.
          2   -1    0    0  501    0  0.00000000000E+00 -0.00000000000E+00 -0.29780251165E+04  0.29780251165E+04  0.25500000000E-02 0. -1.
    8880022    1    1    2    0    0 -0.13741807684E+02 -0.46507825148E+03 -0.36505805277E+03  0.61085649066E+03  0.15294330000E+03 0.  0.
    8880022    1    1    2    0    0  0.13741807684E+02  0.46507825148E+03 -0.24659843373E+04  0.25141513523E+04  0.15294330000E+03 0.  0.
<mgrwt>
<rscale>  0 0.48977369E+03</rscale>
<asrwt>0</asrwt>
<pdfrwt beam="1">  1        2 0.45815767E+00 0.48977369E+03</pdfrwt>
<pdfrwt beam="2">  1       -2 0.22612729E-01 0.48977369E+03</pdfrwt>
<totfact> 0.34250997E+01</totfact>
</mgrwt>
</event>
<event>
 4    1  0.5387657E-008  0.8381293E+03  0.7818608E-02  0.9506409E-01
          2   -1    0    0  501    0  0.00000000000E+00  0.00000000000E+00  0.19959063893E+04  0.19959063893E+04  0.25500000000E-02 0. -1.
         -2   -1    0    0    0  501 -0.00000000000E+00 -0.00000000000E+00 -0.96172898790E+03  0.96172898791E+03  0.25500000000E-02 0.  1.
    8880022    1    1    2    0    0 -0.74309925467E+03  0.35619165519E+03 -0.66044748467E+03  0.10670761597E+04  0.15294330000E+03 0.  0.
    8880022    1    1    2    0    0  0.74309925467E+03 -0.35619165519E+03  0.16946248861E+04  0.18905592175E+04  0.15294330000E+03 0.  0.
<mgrwt>
<rscale>  0 0.83812926E+03</rscale>
<asrwt>0</asrwt>
<pdfrwt beam="1">  1        2 0.30706252E+00 0.83812926E+03</pdfrwt>
<pdfrwt beam="2">  1       -2 0.14795831E+00 0.83812926E+03</pdfrwt>
<totfact> 0.21326579E+00</totfact>
</mgrwt>
</event>
<event>
 4    1  0.5387657E-008  0.3251489E+03  0.7818608E-02  0.1073304E+00
          2   -1    0    0  501    0  0.00000000000E+00  0.00000000000E+00  0.13351824762E+04  0.13351824762E+04  0.25500000000E-02 0. -1.
         -2   -1    0    0    0  501 -0.00000000000E+00 -0.00000000000E+00 -0.95379107887E+02  0.95379107921E+02  0.25500000000E-02 0.  1.
    8880022    1    1    2    0    0  0.12186263797E+03 -0.25976841707E+03  0.32513728728E+03  0.45982174985E+03  0.15294330000E+03 0.  0.
    8880022    1    1    2    0    0 -0.12186263797E+03  0.25976841707E+03  0.91466608099E+03  0.97073983423E+03  0.15294330000E+03 0.  0.
<mgrwt>
<rscale>  0 0.32514887E+03</rscale>
<asrwt>0</asrwt>
<pdfrwt beam="1">  1        2 0.20541269E+00 0.32514887E+03</pdfrwt>
<pdfrwt beam="2">  1       -2 0.14673709E-01 0.32514887E+03</pdfrwt>
<totfact> 0.59481223E+02</totfact>
</mgrwt>
</event>
<event>
 4    1  0.5387657E-008  0.4203390E+03  0.7818608E-02  0.1036956E+00
         -2   -1    0    0    0  501 -0.00000000000E+00  0.00000000000E+00  0.24872398452E+03  0.24872398453E+03  0.25500000000E-02 0.  1.
          2   -1    0    0  501    0  0.00000000000E+00 -0.00000000000E+00 -0.16536233973E+04  0.16536233973E+04  0.25500000000E-02 0. -1.
    8880022    1    1    2    0    0 -0.37893694692E+03  0.98488466880E+02 -0.14208340183E+04  0.14817064988E+04  0.15294330000E+03 0.  0.
    8880022    1    1    2    0    0  0.37893694692E+03 -0.98488466880E+02  0.15934605530E+02  0.42064088308E+03  0.15294330000E+03 0.  1.
<mgrwt>
<rscale>  0 0.42033896E+03</rscale>
<asrwt>0</asrwt>
<pdfrwt beam="1">  1        2 0.25440359E+00 0.42033896E+03</pdfrwt>
<pdfrwt beam="2">  1       -2 0.38265229E-01 0.42033896E+03</pdfrwt>
<totfact> 0.71778899E+01</totfact>
</mgrwt>
</event>
<event>
 4    1  0.5387657E-008  0.8911571E+03  0.7818608E-02  0.9436704E-01
          2   -1    0    0  501    0  0.00000000000E+00  0.00000000000E+00  0.32206729771E+04  0.32206729771E+04  0.25500000000E-02 0. -1.
         -2   -1    0    0    0  501 -0.00000000000E+00 -0.00000000000E+00 -0.78423992255E+03  0.78423992255E+03  0.25500000000E-02 0.  1.
    8880022    1    1    2    0    0  0.68832965404E+03  0.54495095513E+03 -0.43981015432E+03  0.99377758125E+03  0.15294330000E+03 0.  0.
    8880022    1    1    2    0    0 -0.68832965404E+03 -0.54495095513E+03  0.28762432089E+04  0.30111353184E+04  0.15294330000E+03 0.  0.
<mgrwt>
<rscale>  0 0.89115706E+03</rscale>
<asrwt>0</asrwt>
<pdfrwt beam="1">  1        2 0.49548814E+00 0.89115706E+03</pdfrwt>
<pdfrwt beam="2">  1       -2 0.12065230E+00 0.89115706E+03</pdfrwt>
<totfact> 0.68790853E-01</totfact>
</mgrwt>
</event>
<event>
 4    1  0.5387657E-008  0.3026978E+03  0.7818608E-02  0.1083900E+00
          2   -1    0    0  501    0  0.00000000000E+00  0.00000000000E+00  0.94094165150E+03  0.94094165151E+03  0.25500000000E-02 0. -1.
         -2   -1    0    0    0  501 -0.00000000000E+00 -0.00000000000E+00 -0.17567135435E+03  0.17567135437E+03  0.25500000000E-02 0.  1.
    8880022    1    1    2    0    0 -0.15087736923E+03  0.21323770764E+03  0.75535952241E+03  0.81375301021E+03  0.15294330000E+03 0.  0.
    8880022    1    1    2    0    0  0.15087736923E+03 -0.21323770764E+03  0.99107747358E+01  0.30285999567E+03  0.15294330000E+03 0.  1.
<mgrwt>
<rscale>  0 0.30269779E+03</rscale>
<asrwt>0</asrwt>
<pdfrwt beam="1">  1        2 0.14476026E+00 0.30269779E+03</pdfrwt>
<pdfrwt beam="2">  1       -2 0.27026362E-01 0.30269779E+03</pdfrwt>
<totfact> 0.35483576E+02</totfact>
</mgrwt>
</event>
<event>
 4    1  0.5387657E-008  0.4425509E+03  0.7818608E-02  0.1029967E+00
          2   -1    0    0  501    0  0.00000000000E+00  0.00000000000E+00  0.38557443126E+04  0.38557443126E+04  0.25500000000E-02 0. -1.
         -2   -1    0    0    0  501 -0.00000000000E+00 -0.00000000000E+00 -0.23577668641E+03  0.23577668642E+03  0.25500000000E-02 0.  1.
    8880022    1    1    2    0    0  0.30374172634E+03 -0.28319719196E+03 -0.20616491065E+01  0.44255574707E+03  0.15294330000E+03 0.  1.
    8880022    1    1    2    0    0 -0.30374172634E+03  0.28319719196E+03  0.36220292753E+04  0.36489652519E+04  0.15294330000E+03 0.  0.
<mgrwt>
<rscale>  0 0.44255094E+03</rscale>
<asrwt>0</asrwt>
<pdfrwt beam="1">  1        2 0.59319144E+00 0.44255094E+03</pdfrwt>
<pdfrwt beam="2">  1       -2 0.36273336E-01 0.44255094E+03</pdfrwt>
<totfact> 0.38296645E+00</totfact>
</mgrwt>
</event>
<event>
 4    1  0.5387657E-008  0.4904869E+03  0.7818608E-02  0.1016292E+00
          2   -1    0    0  501    0  0.00000000000E+00  0.00000000000E+00  0.70110670780E+03  0.70110670781E+03  0.25500000000E-02 0. -1.
         -2   -1    0    0    0  501 -0.00000000000E+00 -0.00000000000E+00 -0.54289927460E+03  0.54289927460E+03  0.25500000000E-02 0.  1.
    8880022    1    1    2    0    0 -0.42563023036E+03  0.18980165322E+03 -0.29819632157E+03  0.57401956393E+03  0.15294330000E+03 0.  0.
    8880022    1    1    2    0    0  0.42563023036E+03 -0.18980165322E+03  0.45640375478E+03  0.66998641848E+03  0.15294330000E+03 0.  0.
<mgrwt>
<rscale>  0 0.49048691E+03</rscale>
<asrwt>0</asrwt>
<pdfrwt beam="1">  1        2 0.10786257E+00 0.49048691E+03</pdfrwt>
<pdfrwt beam="2">  1       -2 0.83522966E-01 0.49048691E+03</pdfrwt>
<totfact> 0.53174147E+01</totfact>
</mgrwt>
</event>
<event>
 4    1  0.5387657E-008  0.4186626E+03  0.7818608E-02  0.1037502E+00
         -2   -1    0    0    0  501 -0.00000000000E+00  0.00000000000E+00  0.87991852170E+02  0.87991852207E+02  0.25500000000E-02 0.  1.
          2   -1    0    0  501    0  0.00000000000E+00 -0.00000000000E+00 -0.29040435158E+04  0.29040435158E+04  0.25500000000E-02 0. -1.
    8880022    1    1    2    0    0 -0.28934058717E+02 -0.38865094307E+03 -0.56963468290E+03  0.70693851237E+03  0.15294330000E+03 0.  0.
    8880022    1    1    2    0    0  0.28934058717E+02  0.38865094307E+03 -0.22464169808E+04  0.22850968557E+04  0.15294330000E+03 0.  0.
<mgrwt>
<rscale>  0 0.41866262E+03</rscale>
<asrwt>0</asrwt>
<pdfrwt beam="1">  1        2 0.44677585E+00 0.41866262E+03</pdfrwt>
<pdfrwt beam="2">  1       -2 0.13537210E-01 0.41866262E+03</pdfrwt>
<totfact> 0.92601429E+01</totfact>
</mgrwt>
</event>
<event>
 4    1  0.5387657E-008  0.2583954E+03  0.7818608E-02  0.1108111E+00
          2   -1    0    0  501    0  0.00000000000E+00  0.00000000000E+00  0.43201182143E+04  0.43201182143E+04  0.25500000000E-02 0. -1.
         -2   -1    0    0    0  501 -0.00000000000E+00 -0.00000000000E+00 -0.34461155723E+02  0.34461155818E+02  0.25500000000E-02 0.  1.
    8880022    1    1    2    0    0 -0.94598311744E+01  0.20805540803E+03  0.52587920651E+03  0.58593270438E+03  0.15294330000E+03 0.  1.
    8880022    1    1    2    0    0  0.94598311744E+01 -0.20805540803E+03  0.37597778521E+04  0.37686466657E+04  0.15294330000E+03 0.  0.
<mgrwt>
<rscale>  0 0.25839542E+03</rscale>
<asrwt>0</asrwt>
<pdfrwt beam="1">  1        2 0.66463343E+00 0.25839542E+03</pdfrwt>
<pdfrwt beam="2">  1       -2 0.53017174E-02 0.25839542E+03</pdfrwt>
<totfact> 0.44359024E+01</totfact>
</mgrwt>
</event>
<event>
 4    1  0.5387657E-008  0.4274628E+03  0.7818608E-02  0.1034664E+00
          2   -1    0    0  501    0  0.00000000000E+00  0.00000000000E+00  0.14753964713E+04  0.14753964713E+04  0.25500000000E-02 0. -1.
         -2   -1    0    0    0  501 -0.00000000000E+00 -0.00000000000E+00 -0.58333115080E+03  0.58333115080E+03  0.25500000000E-02 0.  1.
    8880022    1    1    2    0    0  0.27986526451E+03  0.28461942840E+03  0.13596119696E+04  0.14252259982E+04  0.15294330000E+03 0.  0.
    8880022    1    1    2    0    0 -0.27986526451E+03 -0.28461942840E+03 -0.46754664909E+03  0.63350162383E+03  0.15294330000E+03 0.  0.
<mgrwt>
<rscale>  0 0.42746279E+03</rscale>
<asrwt>0</asrwt>
<pdfrwt beam="1">  1        2 0.22698407E+00 0.42746279E+03</pdfrwt>
<pdfrwt beam="2">  1       -2 0.89743254E-01 0.42746279E+03</pdfrwt>
<totfact> 0.15076201E+01</totfact>
</mgrwt>
</event>
<event>
 4    1  0.5387657E-008  0.3306884E+03  0.7818608E-02  0.1070833E+00
          2   -1    0    0  501    0  0.00000000000E+00  0.00000000000E+00  0.75349739779E+03  0.75349739779E+03  0.25500000000E-02 0. -1.
         -2   -1    0    0    0  501 -0.00000000000E+00 -0.00000000000E+00 -0.13421921505E+04  0.13421921505E+04  0.25500000000E-02 0.  1.
    8880022    1    1    2    0    0  0.15490954227E+02  0.29278519611E+03 -0.12839207982E+04  0.13258232950E+04  0.15294330000E+03 0.  0.
    8880022    1    1    2    0    0 -0.15490954227E+02 -0.29278519611E+03  0.69522604541E+03  0.76986625329E+03  0.15294330000E+03 0. -1.
<mgrwt>
<rscale>  0 0.33068836E+03</rscale>
<asrwt>0</asrwt>
<pdfrwt beam="1">  1        2 0.11592268E+00 0.33068836E+03</pdfrwt>
<pdfrwt beam="2">  1       -2 0.20649110E+00 0.33068836E+03</pdfrwt>
<totfact> 0.49970318E+00</totfact>
</mgrwt>
</event>
<event>
 4    1  0.5387657E-008  0.9883677E+03  0.7818608E-02  0.9321396E-01
          2   -1    0    0  501    0  0.00000000000E+00  0.00000000000E+00  0.67050392693E+03  0.67050392693E+03  0.25500000000E-02 0. -1.
         -2   -1    0    0    0  501 -0.00000000000E+00 -0.00000000000E+00 -0.17034118246E+04  0.17034118246E+04  0.25500000000E-02 0.  1.
    8880022    1    1    2    0    0 -0.40435618104E+02 -0.97562491363E+03 -0.64934327083E+02  0.99049842562E+03  0.15294330000E+03 0.  0.
    8880022    1    1    2    0    0  0.40435618104E+02  0.97562491363E+03 -0.96797357061E+03  0.13834173259E+04  0.15294330000E+03 0.  0.
<mgrwt>
<rscale>  0 0.98836768E+03</rscale>
<asrwt>0</asrwt>
<pdfrwt beam="1">  1        2 0.10315445E+00 0.98836768E+03</pdfrwt>
<pdfrwt beam="2">  1       -2 0.26206336E+00 0.98836768E+03</pdfrwt>
<totfact> 0.23472470E+00</totfact>
</mgrwt>
</event>
<event>
 4    1  0.5387657E-008  0.1192685E+04  0.7818608E-02  0.9119284E-01
          2   -1    0    0  501    0  0.00000000000E+00  0.00000000000E+00  0.36594006246E+04  0.36594006246E+04  0.25500000000E-02 0. -1.
         -2   -1    0    0    0  501 -0.00000000000E+00 -0.00000000000E+00 -0.47601133080E+03  0.47601133080E+03  0.25500000000E-02 0.  1.
    8880022    1    1    2    0    0 -0.76203710386E+03  0.90465706536E+03  0.24771280647E+04  0.27493017396E+04  0.15294330000E+03 0.  0.
    8880022    1    1    2    0    0  0.76203710386E+03 -0.90465706536E+03  0.70626122913E+03  0.13861102158E+04  0.15294330000E+03 0.  0.
<mgrwt>
<rscale>  0 0.11926846E+04</rscale>
<asrwt>0</asrwt>
<pdfrwt beam="1">  1        2 0.56298468E+00 0.11926846E+04</pdfrwt>
<pdfrwt beam="2">  1       -2 0.73232517E-01 0.11926846E+04</pdfrwt>
<totfact> 0.10623996E+00</totfact>
</mgrwt>
</event>
<event>
 4    1  0.5387657E-008  0.3174998E+03  0.7818608E-02  0.1076806E+00
         -2   -1    0    0    0  501 -0.00000000000E+00  0.00000000000E+00  0.26417370271E+03  0.26417370272E+03  0.25500000000E-02 0.  1.
          2   -1    0    0  501    0  0.00000000000E+00 -0.00000000000E+00 -0.18333174259E+04  0.18333174259E+04  0.25500000000E-02 0. -1.
    8880022    1    1    2    0    0 -0.17573583927E+03 -0.21571128793E+03  0.14866914521E+03  0.35058324646E+03  0.15294330000E+03 0.  0.
    8880022    1    1    2    0    0  0.17573583927E+03  0.21571128793E+03 -0.17178128684E+04  0.17469078821E+04  0.15294330000E+03 0.  0.
<mgrwt>
<rscale>  0 0.31749976E+03</rscale>
<asrwt>0</asrwt>
<pdfrwt beam="1">  1        2 0.28204883E+00 0.31749976E+03</pdfrwt>
<pdfrwt beam="2">  1       -2 0.40642109E-01 0.31749976E+03</pdfrwt>
<totfact> 0.52489334E+01</totfact>
</mgrwt>
</event>
<event>
 4    1  0.5387657E-008  0.2766533E+03  0.7818608E-02  0.1097531E+00
          2   -1    0    0  501    0  0.00000000000E+00  0.00000000000E+00  0.23939734311E+04  0.23939734311E+04  0.25500000000E-02 0. -1.
         -2   -1    0    0    0  501 -0.00000000000E+00 -0.00000000000E+00 -0.76603728825E+02  0.76603728867E+02  0.25500000000E-02 0.  1.
    8880022    1    1    2    0    0  0.14290795732E+02 -0.23008942882E+03  0.21577187378E+03  0.35084829574E+03  0.15294330000E+03 0.  1.
    8880022    1    1    2    0    0 -0.14290795732E+02  0.23008942882E+03  0.21015978285E+04  0.21197288642E+04  0.15294330000E+03 0.  0.
<mgrwt>
<rscale>  0 0.27665326E+03</rscale>
<asrwt>0</asrwt>
<pdfrwt beam="1">  1        2 0.36830353E+00 0.27665326E+03</pdfrwt>
<pdfrwt beam="2">  1       -2 0.11785192E-01 0.27665326E+03</pdfrwt>
<totfact> 0.23360548E+02</totfact>
</mgrwt>
</event>
<event>
 4    1  0.5387657E-008  0.5183218E+03  0.7818608E-02  0.1009104E+00
          2   -1    0    0  501    0  0.00000000000E+00  0.00000000000E+00  0.34770924842E+03  0.34770924843E+03  0.25500000000E-02 0. -1.
         -2   -1    0    0    0  501 -0.00000000000E+00 -0.00000000000E+00 -0.12689680937E+04  0.12689680937E+04  0.25500000000E-02 0.  1.
    8880022    1    1    2    0    0 -0.26115071668E+02  0.49455418573E+03 -0.96616081793E+03  0.10964142551E+04  0.15294330000E+03 0. -1.
    8880022    1    1    2    0    0  0.26115071668E+02 -0.49455418573E+03  0.44901972669E+02  0.52026308706E+03  0.15294330000E+03 0.  0.
<mgrwt>
<rscale>  0 0.51832180E+03</rscale>
<asrwt>0</asrwt>
<pdfrwt beam="1">  1        2 0.53493731E-01 0.51832180E+03</pdfrwt>
<pdfrwt beam="2">  1       -2 0.19522586E+00 0.51832180E+03</pdfrwt>
<totfact> 0.13900611E+01</totfact>
</mgrwt>
</event>
<event>
 4    1  0.5387657E-008  0.9111549E+03  0.7818608E-02  0.9411744E-01
          2   -1    0    0  501    0  0.00000000000E+00  0.00000000000E+00  0.99189599569E+03  0.99189599570E+03  0.25500000000E-02 0. -1.
         -2   -1    0    0    0  501 -0.00000000000E+00 -0.00000000000E+00 -0.90635996659E+03  0.90635996659E+03  0.25500000000E-02 0.  1.
    8880022    1    1    2    0    0  0.87182580328E+03  0.21617426893E+03  0.30535442764E+03  0.96096021005E+03  0.15294330000E+03 0.  0.
    8880022    1    1    2    0    0 -0.87182580328E+03 -0.21617426893E+03 -0.21981839853E+03  0.93729575223E+03  0.15294330000E+03 0.  0.
<mgrwt>
<rscale>  0 0.91115487E+03</rscale>
<asrwt>0</asrwt>
<pdfrwt beam="1">  1        2 0.15259938E+00 0.91115487E+03</pdfrwt>
<pdfrwt beam="2">  1       -2 0.13943999E+00 0.91115487E+03</pdfrwt>
<totfact> 0.92516195E+00</totfact>
</mgrwt>
</event>
<event>
 4    1  0.5387657E-008  0.2545500E+03  0.7818608E-02  0.1110463E+00
          2   -1    0    0  501    0  0.00000000000E+00  0.00000000000E+00  0.96362054039E+03  0.96362054040E+03  0.25500000000E-02 0. -1.
         -2   -1    0    0    0  501 -0.00000000000E+00 -0.00000000000E+00 -0.45419394438E+03  0.45419394438E+03  0.25500000000E-02 0.  1.
    8880022    1    1    2    0    0 -0.17631258413E+03  0.10157708101E+03  0.90904402004E+03  0.94401097138E+03  0.15294330000E+03 0.  0.
    8880022    1    1    2    0    0  0.17631258413E+03 -0.10157708101E+03 -0.39961742402E+03  0.47380351340E+03  0.15294330000E+03 0.  0.
<mgrwt>
<rscale>  0 0.25454996E+03</rscale>
<asrwt>0</asrwt>
<pdfrwt beam="1">  1        2 0.14824931E+00 0.25454996E+03</pdfrwt>
<pdfrwt beam="2">  1       -2 0.69875993E-01 0.25454996E+03</pdfrwt>
<totfact> 0.53967039E+01</totfact>
</mgrwt>
</event>
<event>
 4    1  0.5387657E-008  0.3967597E+03  0.7818608E-02  0.1044907E+00
          2   -1    0    0  501    0  0.00000000000E+00  0.00000000000E+00  0.25172326198E+04  0.25172326198E+04  0.25500000000E-02 0. -1.
         -2   -1    0    0    0  501 -0.00000000000E+00 -0.00000000000E+00 -0.19057572510E+03  0.19057572512E+03  0.25500000000E-02 0.  1.
    8880022    1    1    2    0    0  0.36479464479E+03  0.30846182429E+02  0.53576056711E+02  0.40036067078E+03  0.15294330000E+03 0.  0.
    8880022    1    1    2    0    0 -0.36479464479E+03 -0.30846182429E+02  0.22730808380E+04  0.23074476742E+04  0.15294330000E+03 0.  0.
<mgrwt>
<rscale>  0 0.39675972E+03</rscale>
<asrwt>0</asrwt>
<pdfrwt beam="1">  1        2 0.38726655E+00 0.39675972E+03</pdfrwt>
<pdfrwt beam="2">  1       -2 0.29319343E-01 0.39675972E+03</pdfrwt>
<totfact> 0.40594644E+01</totfact>
</mgrwt>
</event>
<event>
 4    1  0.5387657E-008  0.2069131E+03  0.7818608E-02  0.1144034E+00
         -2   -1    0    0    0  501 -0.00000000000E+00  0.00000000000E+00  0.41300364955E+03  0.41300364956E+03  0.25500000000E-02 0.  1.
          2   -1    0    0  501    0  0.00000000000E+00 -0.00000000000E+00 -0.14072537676E+04  0.14072537676E+04  0.25500000000E-02 0. -1.
    8880022    1    1    2    0    0  0.39067130354E+02 -0.13377273357E+03  0.37884105457E+03  0.43166373783E+03  0.15294330000E+03 0.  0.
    8880022    1    1    2    0    0 -0.39067130354E+02  0.13377273357E+03 -0.13730911726E+04  0.13885936793E+04  0.15294330000E+03 0. -1.
<mgrwt>
<rscale>  0 0.20691312E+03</rscale>
<asrwt>0</asrwt>
<pdfrwt beam="1">  1        2 0.21650058E+00 0.20691312E+03</pdfrwt>
<pdfrwt beam="2">  1       -2 0.63539024E-01 0.20691312E+03</pdfrwt>
<totfact> 0.37340906E+01</totfact>
</mgrwt>
</event>
<event>
 4    1  0.5387657E-008  0.3769292E+03  0.7818608E-02  0.1052075E+00
          2   -1    0    0  501    0  0.00000000000E+00  0.00000000000E+00  0.13292574819E+04  0.13292574819E+04  0.25500000000E-02 0. -1.
         -2   -1    0    0    0  501 -0.00000000000E+00 -0.00000000000E+00 -0.58010657344E+03  0.58010657344E+03  0.25500000000E-02 0.  1.
    8880022    1    1    2    0    0 -0.29690606443E+03  0.17473055181E+03 -0.48768373400E+03  0.61636925155E+03  0.15294330000E+03 0.  0.
    8880022    1    1    2    0    0  0.29690606443E+03 -0.17473055181E+03  0.12368346425E+04  0.12929948038E+04  0.15294330000E+03 0. -1.
<mgrwt>
<rscale>  0 0.37692921E+03</rscale>
<asrwt>0</asrwt>
<pdfrwt beam="1">  1        2 0.20450115E+00 0.37692921E+03</pdfrwt>
<pdfrwt beam="2">  1       -2 0.89247166E-01 0.37692921E+03</pdfrwt>
<totfact> 0.18609287E+01</totfact>
</mgrwt>
</event>
<event>
 4    1  0.5387657E-008  0.8344348E+03  0.7818608E-02  0.9511469E-01
          2   -1    0    0  501    0  0.00000000000E+00  0.00000000000E+00  0.11752743893E+04  0.11752743893E+04  0.25500000000E-02 0. -1.
         -2   -1    0    0    0  501 -0.00000000000E+00 -0.00000000000E+00 -0.12196129414E+04  0.12196129414E+04  0.25500000000E-02 0.  1.
    8880022    1    1    2    0    0  0.44568202918E+03 -0.68866344522E+03 -0.88086079576E+03  0.12133413396E+04  0.15294330000E+03 0.  0.
    8880022    1    1    2    0    0 -0.44568202918E+03  0.68866344522E+03  0.83652224371E+03  0.11815459911E+04  0.15294330000E+03 0.  0.
<mgrwt>
<rscale>  0 0.83443482E+03</rscale>
<asrwt>0</asrwt>
<pdfrwt beam="1">  1        2 0.18081144E+00 0.83443482E+03</pdfrwt>
<pdfrwt beam="2">  1       -2 0.18763276E+00 0.83443482E+03</pdfrwt>
<totfact> 0.31905642E+00</totfact>
</mgrwt>
</event>
<event>
 4    1  0.5387657E-008  0.8881888E+03  0.7818608E-02  0.9440468E-01
          2   -1    0    0  501    0  0.00000000000E+00  0.00000000000E+00  0.21280538254E+04  0.21280538254E+04  0.25500000000E-02 0. -1.
         -2   -1    0    0    0  501 -0.00000000000E+00 -0.00000000000E+00 -0.83539291623E+03  0.83539291623E+03  0.25500000000E-02 0.  1.
    8880022    1    1    2    0    0 -0.28479107595E+03 -0.82727369702E+03  0.17514330657E+04  0.19637711586E+04  0.15294330000E+03 0.  0.
    8880022    1    1    2    0    0  0.28479107595E+03  0.82727369702E+03 -0.45877215652E+03  0.99967558304E+03  0.15294330000E+03 0.  0.
<mgrwt>
<rscale>  0 0.88818882E+03</rscale>
<asrwt>0</asrwt>
<pdfrwt beam="1">  1        2 0.32739289E+00 0.88818882E+03</pdfrwt>
<pdfrwt beam="2">  1       -2 0.12852199E+00 0.88818882E+03</pdfrwt>
<totfact> 0.25752719E+00</totfact>
</mgrwt>
</event>
<event>
 4    1  0.5387657E-008  0.2979908E+03  0.7818608E-02  0.1086249E+00
         -2   -1    0    0    0  501 -0.00000000000E+00  0.00000000000E+00  0.56317690221E+03  0.56317690222E+03  0.25500000000E-02 0.  1.
          2   -1    0    0  501    0  0.00000000000E+00 -0.00000000000E+00 -0.10011767840E+04  0.10011767840E+04  0.25500000000E-02 0. -1.
    8880022    1    1    2    0    0 -0.14951006191E+03 -0.20749361544E+03 -0.93694755628E+03  0.98319338652E+03  0.15294330000E+03 0.  0.
    8880022    1    1    2    0    0  0.14951006191E+03  0.20749361544E+03  0.49894767449E+03  0.58116029971E+03  0.15294330000E+03 0.  1.
<mgrwt>
<rscale>  0 0.29799079E+03</rscale>
<asrwt>0</asrwt>
<pdfrwt beam="1">  1        2 0.15402720E+00 0.29799079E+03</pdfrwt>
<pdfrwt beam="2">  1       -2 0.86642600E-01 0.29799079E+03</pdfrwt>
<totfact> 0.31522680E+01</totfact>
</mgrwt>
</event>
<event>
 4    1  0.5387657E-008  0.5564962E+03  0.7818608E-02  0.1000001E+00
          2   -1    0    0  501    0  0.00000000000E+00  0.00000000000E+00  0.35076333799E+04  0.35076333799E+04  0.25500000000E-02 0. -1.
         -2   -1    0    0    0  501 -0.00000000000E+00 -0.00000000000E+00 -0.15849754989E+03  0.15849754991E+03  0.25500000000E-02 0.  1.
    8880022    1    1    2    0    0 -0.33555040693E+03 -0.41677604845E+03  0.45456900323E+03  0.71855478696E+03  0.15294330000E+03 0.  0.
    8880022    1    1    2    0    0  0.33555040693E+03  0.41677604845E+03  0.28945668268E+04  0.29475761429E+04  0.15294330000E+03 0.  0.
<mgrwt>
<rscale>  0 0.55649618E+03</rscale>
<asrwt>0</asrwt>
<pdfrwt beam="1">  1        2 0.53963590E+00 0.55649618E+03</pdfrwt>
<pdfrwt beam="2">  1       -2 0.24384238E-01 0.55649618E+03</pdfrwt>
<totfact> 0.13548107E+01</totfact>
</mgrwt>
</event>
<event>
 4    1  0.5387657E-008  0.7514282E+03  0.7818608E-02  0.9633112E-01
         -2   -1    0    0    0  501 -0.00000000000E+00  0.00000000000E+00  0.24641579224E+04  0.24641579225E+04  0.25500000000E-02 0.  1.
          2   -1    0    0  501    0  0.00000000000E+00 -0.00000000000E+00 -0.54505600107E+03  0.54505600108E+03  0.25500000000E-02 0. -1.
    8880022    1    1    2    0    0  0.11674874106E+03 -0.72637619075E+03  0.21050278266E+04  0.22351255989E+04  0.15294330000E+03 0.  0.
    8880022    1    1    2    0    0 -0.11674874106E+03  0.72637619075E+03 -0.18592590526E+03  0.77408832461E+03  0.15294330000E+03 0.  0.
<mgrwt>
<rscale>  0 0.75142817E+03</rscale>
<asrwt>0</asrwt>
<pdfrwt beam="1">  1        2 0.83854769E-01 0.75142817E+03</pdfrwt>
<pdfrwt beam="2">  1       -2 0.37910122E+00 0.75142817E+03</pdfrwt>
<totfact> 0.59868983E-01</totfact>
</mgrwt>
</event>
<event>
 4    1  0.5387657E-008  0.4317971E+03  0.7818608E-02  0.1033294E+00
          2   -1    0    0  501    0  0.00000000000E+00  0.00000000000E+00  0.27998205058E+04  0.27998205058E+04  0.25500000000E-02 0. -1.
         -2   -1    0    0    0  501 -0.00000000000E+00 -0.00000000000E+00 -0.14716382217E+03  0.14716382219E+03  0.25500000000E-02 0.  1.
    8880022    1    1    2    0    0  0.37231678677E+03 -0.15632429666E+03  0.23605365799E+03  0.49210777061E+03  0.15294330000E+03 0.  0.
    8880022    1    1    2    0    0 -0.37231678677E+03  0.15632429666E+03  0.24166030256E+04  0.24548765574E+04  0.15294330000E+03 0.  0.
<mgrwt>
<rscale>  0 0.43179709E+03</rscale>
<asrwt>0</asrwt>
<pdfrwt beam="1">  1        2 0.43074157E+00 0.43179709E+03</pdfrwt>
<pdfrwt beam="2">  1       -2 0.22640591E-01 0.43179709E+03</pdfrwt>
<totfact> 0.44192075E+01</totfact>
</mgrwt>
</event>
<event>
 4    1  0.5387657E-008  0.3962298E+03  0.7818608E-02  0.1045093E+00
         -2   -1    0    0    0  501 -0.00000000000E+00  0.00000000000E+00  0.38163570584E+03  0.38163570584E+03  0.25500000000E-02 0.  1.
          2   -1    0    0  501    0  0.00000000000E+00 -0.00000000000E+00 -0.86783702573E+03  0.86783702573E+03  0.25500000000E-02 0. -1.
    8880022    1    1    2    0    0  0.36545817281E+03 -0.68357705397E+01  0.20998122620E+03  0.44843078865E+03  0.15294330000E+03 0.  0.
    8880022    1    1    2    0    0 -0.36545817281E+03  0.68357705397E+01 -0.69618254609E+03  0.80104194293E+03  0.15294330000E+03 0.  0.
<mgrwt>
<rscale>  0 0.39622980E+03</rscale>
<asrwt>0</asrwt>
<pdfrwt beam="1">  1        2 0.13351339E+00 0.39622980E+03</pdfrwt>
<pdfrwt beam="2">  1       -2 0.58713186E-01 0.39622980E+03</pdfrwt>
<totfact> 0.87661285E+01</totfact>
</mgrwt>
</event>
<event>
 4    1  0.5387657E-008  0.8539148E+03  0.7818608E-02  0.9485098E-01
          2   -1    0    0  501    0  0.00000000000E+00  0.00000000000E+00  0.90265406355E+03  0.90265406355E+03  0.25500000000E-02 0. -1.
         -2   -1    0    0    0  501 -0.00000000000E+00 -0.00000000000E+00 -0.89593759854E+03  0.89593759855E+03  0.25500000000E-02 0.  1.
    8880022    1    1    2    0    0 -0.62960781862E+03 -0.55621298420E+03  0.28540837218E+03  0.90034908840E+03  0.15294330000E+03 0.  0.
    8880022    1    1    2    0    0  0.62960781862E+03  0.55621298420E+03 -0.27869190718E+03  0.89824257370E+03  0.15294330000E+03 0.  0.
<mgrwt>
<rscale>  0 0.85391483E+03</rscale>
<asrwt>0</asrwt>
<pdfrwt beam="1">  1        2 0.13886985E+00 0.85391483E+03</pdfrwt>
<pdfrwt beam="2">  1       -2 0.13783655E+00 0.85391483E+03</pdfrwt>
<totfact> 0.10978042E+01</totfact>
</mgrwt>
</event>
<event>
 4    1  0.5387657E-008  0.3636151E+03  0.7818608E-02  0.1057162E+00
         -2   -1    0    0    0  501 -0.00000000000E+00  0.00000000000E+00  0.12609256758E+03  0.12609256761E+03  0.25500000000E-02 0.  1.
          2   -1    0    0  501    0  0.00000000000E+00 -0.00000000000E+00 -0.13026062483E+04  0.13026062483E+04  0.25500000000E-02 0. -1.
    8880022    1    1    2    0    0  0.24287639847E+03  0.22323828407E+03 -0.90372710058E+03  0.97413479650E+03  0.15294330000E+03 0. -1.
    8880022    1    1    2    0    0 -0.24287639847E+03 -0.22323828407E+03 -0.27278658012E+03  0.45456401938E+03  0.15294330000E+03 0.  1.
<mgrwt>
<rscale>  0 0.36361508E+03</rscale>
<asrwt>0</asrwt>
<pdfrwt beam="1">  1        2 0.20040095E+00 0.36361508E+03</pdfrwt>
<pdfrwt beam="2">  1       -2 0.19398857E-01 0.36361508E+03</pdfrwt>
<totfact> 0.38550828E+02</totfact>
</mgrwt>
</event>
<event>
 4    1  0.5387657E-008  0.5709803E+03  0.7818608E-02  0.9967512E-01
         -2   -1    0    0    0  501 -0.00000000000E+00  0.00000000000E+00  0.32827132210E+03  0.32827132211E+03  0.25500000000E-02 0.  1.
          2   -1    0    0  501    0  0.00000000000E+00 -0.00000000000E+00 -0.27422725493E+04  0.27422725493E+04  0.25500000000E-02 0. -1.
    8880022    1    1    2    0    0  0.33418514278E+03 -0.43697495118E+03 -0.24331452651E+04  0.24992427557E+04  0.15294330000E+03 0.  0.
    8880022    1    1    2    0    0 -0.33418514278E+03  0.43697495118E+03  0.19144037948E+02  0.57130111571E+03  0.15294330000E+03 0.  0.
<mgrwt>
<rscale>  0 0.57098027E+03</rscale>
<asrwt>0</asrwt>
<pdfrwt beam="1">  1        2 0.42188807E+00 0.57098027E+03</pdfrwt>
<pdfrwt beam="2">  1       -2 0.50503282E-01 0.57098027E+03</pdfrwt>
<totfact> 0.10161587E+01</totfact>
</mgrwt>
</event>
<event>
 4    1  0.5387657E-008  0.4740070E+03  0.7818608E-02  0.1020795E+00
         -2   -1    0    0    0  501 -0.00000000000E+00  0.00000000000E+00  0.16912456377E+03  0.16912456379E+03  0.25500000000E-02 0.  1.
          2   -1    0    0  501    0  0.00000000000E+00 -0.00000000000E+00 -0.23034551649E+04  0.23034551649E+04  0.25500000000E-02 0. -1.
    8880022    1    1    2    0    0 -0.75056750792E+02  0.44233183220E+03 -0.18714724184E+04  0.19305676967E+04  0.15294330000E+03 0.  0.
    8880022    1    1    2    0    0  0.75056750792E+02 -0.44233183220E+03 -0.26285818273E+03  0.54201203202E+03  0.15294330000E+03 0.  0.
<mgrwt>
<rscale>  0 0.47400698E+03</rscale>
<asrwt>0</asrwt>
<pdfrwt beam="1">  1        2 0.35437769E+00 0.47400698E+03</pdfrwt>
<pdfrwt beam="2">  1       -2 0.26019165E-01 0.47400698E+03</pdfrwt>
<totfact> 0.64979921E+01</totfact>
</mgrwt>
</event>
<event>
 4    1  0.5387657E-008  0.4331976E+03  0.7818608E-02  0.1032855E+00
          2   -1    0    0  501    0  0.00000000000E+00  0.00000000000E+00  0.61298322769E+03  0.61298322770E+03  0.25500000000E-02 0. -1.
         -2   -1    0    0    0  501 -0.00000000000E+00 -0.00000000000E+00 -0.59099110631E+03  0.59099110632E+03  0.25500000000E-02 0.  1.
    8880022    1    1    2    0    0 -0.92360219309E+02 -0.39463663862E+03  0.42892640731E+03  0.60962119595E+03  0.15294330000E+03 0.  0.
    8880022    1    1    2    0    0  0.92360219309E+02  0.39463663862E+03 -0.40693428593E+03  0.59435313807E+03  0.15294330000E+03 0.  0.
<mgrwt>
<rscale>  0 0.43319758E+03</rscale>
<asrwt>0</asrwt>
<pdfrwt beam="1">  1        2 0.94305112E-01 0.43319758E+03</pdfrwt>
<pdfrwt beam="2">  1       -2 0.90921709E-01 0.43319758E+03</pdfrwt>
<totfact> 0.51985150E+01</totfact>
</mgrwt>
</event>
<event>
 4    1  0.5387657E-008  0.5664332E+03  0.7818608E-02  0.9977603E-01
          2   -1    0    0  501    0  0.00000000000E+00  0.00000000000E+00  0.14747156612E+03  0.14747156614E+03  0.25500000000E-02 0. -1.
         -2   -1    0    0    0  501 -0.00000000000E+00 -0.00000000000E+00 -0.21982488103E+04  0.21982488103E+04  0.25500000000E-02 0.  1.
    8880022    1    1    2    0    0 -0.11851029295E+03  0.53236285930E+03 -0.11443066682E+04  0.12768258720E+04  0.15294330000E+03 0.  0.
    8880022    1    1    2    0    0  0.11851029295E+03 -0.53236285930E+03 -0.90647057595E+03  0.10688945044E+04  0.15294330000E+03 0.  0.
<mgrwt>
<rscale>  0 0.56643319E+03</rscale>
<asrwt>0</asrwt>
<pdfrwt beam="1">  1        2 0.22687935E-01 0.56643319E+03</pdfrwt>
<pdfrwt beam="2">  1       -2 0.33819210E+00 0.56643319E+03</pdfrwt>
<totfact> 0.48746522E+00</totfact>
</mgrwt>
</event>
<event>
 4    1  0.5387657E-008  0.1369523E+04  0.7818608E-02  0.8976180E-01
         -2   -1    0    0    0  501 -0.00000000000E+00  0.00000000000E+00  0.20943653846E+04  0.20943653846E+04  0.25500000000E-02 0.  1.
          2   -1    0    0  501    0  0.00000000000E+00 -0.00000000000E+00 -0.30924123318E+04  0.30924123318E+04  0.25500000000E-02 0. -1.
    8880022    1    1    2    0    0  0.10925769048E+04 -0.81146540367E+03 -0.26848775201E+04  0.30139939192E+04  0.15294330000E+03 0.  0.
    8880022    1    1    2    0    0 -0.10925769048E+04  0.81146540367E+03  0.16868305729E+04  0.21727837971E+04  0.15294330000E+03 0.  0.
<mgrwt>
<rscale>  0 0.13695226E+04</rscale>
<asrwt>0</asrwt>
<pdfrwt beam="1">  1        2 0.47575574E+00 0.13695226E+04</pdfrwt>
<pdfrwt beam="2">  1       -2 0.32221006E+00 0.13695226E+04</pdfrwt>
<totfact> 0.33982363E-02</totfact>
</mgrwt>
</event>
<event>
 4    1  0.5387657E-008  0.6174278E+03  0.7818608E-02  0.9869894E-01
         -2   -1    0    0    0  501 -0.00000000000E+00  0.00000000000E+00  0.37451334964E+03  0.37451334965E+03  0.25500000000E-02 0.  1.
          2   -1    0    0  501    0  0.00000000000E+00 -0.00000000000E+00 -0.49167095607E+04  0.49167095607E+04  0.25500000000E-02 0. -1.
    8880022    1    1    2    0    0  0.54349973211E+03  0.24986697088E+03  0.84790761240E+02  0.62322274361E+03  0.15294330000E+03 0.  0.
    8880022    1    1    2    0    0 -0.54349973211E+03 -0.24986697088E+03 -0.46269869723E+04  0.46680001667E+04  0.15294330000E+03 0.  0.
<mgrwt>
<rscale>  0 0.61742782E+03</rscale>
<asrwt>0</asrwt>
<pdfrwt beam="1">  1        2 0.75641681E+00 0.61742782E+03</pdfrwt>
<pdfrwt beam="2">  1       -2 0.57617442E-01 0.61742782E+03</pdfrwt>
<totfact> 0.15114225E-01</totfact>
</mgrwt>
</event>
<event>
 4    1  0.5387657E-008  0.2322993E+03  0.7818608E-02  0.1125032E+00
         -2   -1    0    0    0  501 -0.00000000000E+00  0.00000000000E+00  0.51615456773E+03  0.51615456773E+03  0.25500000000E-02 0.  1.
          2   -1    0    0  501    0  0.00000000000E+00 -0.00000000000E+00 -0.89673747178E+03  0.89673747179E+03  0.25500000000E-02 0. -1.
    8880022    1    1    2    0    0 -0.12498893793E+03  0.12226644142E+03 -0.85428037483E+03  0.88530103871E+03  0.15294330000E+03 0. -1.
    8880022    1    1    2    0    0  0.12498893793E+03 -0.12226644142E+03  0.47369747078E+03  0.52759100081E+03  0.15294330000E+03 0.  0.
<mgrwt>
<rscale>  0 0.23229931E+03</rscale>
<asrwt>0</asrwt>
<pdfrwt beam="1">  1        2 0.13795961E+00 0.23229931E+03</pdfrwt>
<pdfrwt beam="2">  1       -2 0.79408396E-01 0.23229931E+03</pdfrwt>
<totfact> 0.45320307E+01</totfact>
</mgrwt>
</event>
<event>
 4    1  0.5387657E-008  0.7207515E+03  0.7818608E-02  0.9682388E-01
         -2   -1    0    0    0  501 -0.00000000000E+00  0.00000000000E+00  0.12958816541E+04  0.12958816541E+04  0.25500000000E-02 0.  1.
          2   -1    0    0  501    0  0.00000000000E+00 -0.00000000000E+00 -0.43145634465E+03  0.43145634465E+03  0.25500000000E-02 0. -1.
    8880022    1    1    2    0    0  0.70351802431E+03  0.33961648734E+02  0.20226522270E+03  0.74859460153E+03  0.15294330000E+03 0.  0.
    8880022    1    1    2    0    0 -0.70351802431E+03 -0.33961648734E+02  0.66216008675E+03  0.97874339723E+03  0.15294330000E+03 0.  0.
<mgrwt>
<rscale>  0 0.72075145E+03</rscale>
<asrwt>0</asrwt>
<pdfrwt beam="1">  1        2 0.66377900E-01 0.72075145E+03</pdfrwt>
<pdfrwt beam="2">  1       -2 0.19936640E+00 0.72075145E+03</pdfrwt>
<totfact> 0.10013674E+01</totfact>
</mgrwt>
</event>
<event>
 4    1  0.5387657E-008  0.4570581E+03  0.7818608E-02  0.1025638E+00
         -2   -1    0    0    0  501 -0.00000000000E+00  0.00000000000E+00  0.94727494875E+03  0.94727494876E+03  0.25500000000E-02 0.  1.
          2   -1    0    0  501    0  0.00000000000E+00 -0.00000000000E+00 -0.56034841044E+03  0.56034841045E+03  0.25500000000E-02 0. -1.
    8880022    1    1    2    0    0  0.23948768697E+03  0.35798898932E+03  0.78048952622E+03  0.90447002285E+03  0.15294330000E+03 0.  0.
    8880022    1    1    2    0    0 -0.23948768697E+03 -0.35798898932E+03 -0.39356298791E+03  0.60315333635E+03  0.15294330000E+03 0.  0.
<mgrwt>
<rscale>  0 0.45705812E+03</rscale>
<asrwt>0</asrwt>
<pdfrwt beam="1">  1        2 0.86207449E-01 0.45705812E+03</pdfrwt>
<pdfrwt beam="2">  1       -2 0.14573461E+00 0.45705812E+03</pdfrwt>
<totfact> 0.18262822E+01</totfact>
</mgrwt>
</event>
<event>
 4    1  0.5387657E-008  0.2223839E+03  0.7818608E-02  0.1132118E+00
         -2   -1    0    0    0  501 -0.00000000000E+00  0.00000000000E+00  0.95324528313E+02  0.95324528347E+02  0.25500000000E-02 0.  1.
          2   -1    0    0  501    0  0.00000000000E+00 -0.00000000000E+00 -0.14071998596E+04  0.14071998596E+04  0.25500000000E-02 0. -1.
    8880022    1    1    2    0    0 -0.15922728466E+03  0.26638316343E+02 -0.59016016757E+02  0.23008144499E+03  0.15294330000E+03 0.  0.
    8880022    1    1    2    0    0  0.15922728466E+03 -0.26638316343E+02 -0.12528593145E+04  0.12724429429E+04  0.15294330000E+03 0. -1.
<mgrwt>
<rscale>  0 0.22238386E+03</rscale>
<asrwt>0</asrwt>
<pdfrwt beam="1">  1        2 0.21649227E+00 0.22238386E+03</pdfrwt>
<pdfrwt beam="2">  1       -2 0.14665313E-01 0.22238386E+03</pdfrwt>
<totfact> 0.55011370E+02</totfact>
</mgrwt>
</event>
<event>
 4    1  0.5387657E-008  0.4083095E+03  0.7818608E-02  0.1040940E+00
         -2   -1    0    0    0  501 -0.00000000000E+00  0.00000000000E+00  0.91383623889E+03  0.91383623890E+03  0.25500000000E-02 0.  1.
          2   -1    0    0  501    0  0.00000000000E+00 -0.00000000000E+00 -0.19218342689E+04  0.19218342689E+04  0.25500000000E-02 0. -1.
    8880022    1    1    2    0    0 -0.17115988440E+03 -0.33768220555E+03 -0.18528603955E+04  0.18973160718E+04  0.15294330000E+03 0. -1.
    8880022    1    1    2    0    0  0.17115988440E+03  0.33768220555E+03  0.84486236549E+03  0.93835443603E+03  0.15294330000E+03 0.  0.
<mgrwt>
<rscale>  0 0.40830948E+03</rscale>
<asrwt>0</asrwt>
<pdfrwt beam="1">  1        2 0.29566681E+00 0.40830948E+03</pdfrwt>
<pdfrwt beam="2">  1       -2 0.14059019E+00 0.40830948E+03</pdfrwt>
<totfact> 0.29474080E+00</totfact>
</mgrwt>
</event>
<event>
 4    1  0.5387657E-008  0.1008281E+04  0.7818608E-02  0.9299508E-01
          2   -1    0    0  501    0  0.00000000000E+00  0.00000000000E+00  0.62945053083E+03  0.62945053084E+03  0.25500000000E-02 0. -1.
         -2   -1    0    0    0  501 -0.00000000000E+00 -0.00000000000E+00 -0.18892319432E+04  0.18892319432E+04  0.25500000000E-02 0.  1.
    8880022    1    1    2    0    0  0.60340829847E+03  0.79318228253E+03 -0.11095946587E+04  0.14992770483E+04  0.15294330000E+03 0.  0.
    8880022    1    1    2    0    0 -0.60340829847E+03 -0.79318228253E+03 -0.15018675367E+03  0.10194054257E+04  0.15294330000E+03 0.  0.
<mgrwt>
<rscale>  0 0.10082814E+04</rscale>
<asrwt>0</asrwt>
<pdfrwt beam="1">  1        2 0.96838544E-01 0.10082814E+04</pdfrwt>
<pdfrwt beam="2">  1       -2 0.29065107E+00 0.10082814E+04</pdfrwt>
<totfact> 0.17017770E+00</totfact>
</mgrwt>
</event>
<event>
 4    1  0.5387657E-008  0.7001220E+03  0.7818608E-02  0.9717024E-01
          2   -1    0    0  501    0  0.00000000000E+00  0.00000000000E+00  0.24594156462E+04  0.24594156462E+04  0.25500000000E-02 0. -1.
         -2   -1    0    0    0  501 -0.00000000000E+00 -0.00000000000E+00 -0.20583715015E+03  0.20583715017E+03  0.25500000000E-02 0.  1.
    8880022    1    1    2    0    0 -0.53518391829E+03 -0.42468493824E+03  0.13642085139E+04  0.15333739418E+04  0.15294330000E+03 0.  0.
    8880022    1    1    2    0    0  0.53518391829E+03  0.42468493824E+03  0.88936998222E+03  0.11318788546E+04  0.15294330000E+03 0.  0.
<mgrwt>
<rscale>  0 0.70012197E+03</rscale>
<asrwt>0</asrwt>
<pdfrwt beam="1">  1        2 0.37837165E+00 0.70012197E+03</pdfrwt>
<pdfrwt beam="2">  1       -2 0.31667253E-01 0.70012197E+03</pdfrwt>
<totfact> 0.35708875E+01</totfact>
</mgrwt>
</event>
<event>
 4    1  0.5387657E-008  0.4014706E+03  0.7818608E-02  0.1043272E+00
         -2   -1    0    0    0  501 -0.00000000000E+00  0.00000000000E+00  0.12748079218E+03  0.12748079221E+03  0.25500000000E-02 0.  1.
          2   -1    0    0  501    0  0.00000000000E+00 -0.00000000000E+00 -0.23205123461E+04  0.23205123461E+04  0.25500000000E-02 0. -1.
    8880022    1    1    2    0    0  0.16716858939E+03  0.33142366390E+03 -0.19222805416E+04  0.19637568882E+04  0.15294330000E+03 0.  0.
    8880022    1    1    2    0    0 -0.16716858939E+03 -0.33142366390E+03 -0.27075101238E+03  0.48423625019E+03  0.15294330000E+03 0.  0.
<mgrwt>
<rscale>  0 0.40147059E+03</rscale>
<asrwt>0</asrwt>
<pdfrwt beam="1">  1        2 0.35700187E+00 0.40147059E+03</pdfrwt>
<pdfrwt beam="2">  1       -2 0.19612431E-01 0.40147059E+03</pdfrwt>
<totfact> 0.10623791E+02</totfact>
</mgrwt>
</event>
<event>
 4    1  0.5387657E-008  0.3688686E+03  0.7818608E-02  0.1055126E+00
          2   -1    0    0  501    0  0.00000000000E+00  0.00000000000E+00  0.85072529734E+03  0.85072529734E+03  0.25500000000E-02 0. -1.
         -2   -1    0    0    0  501 -0.00000000000E+00 -0.00000000000E+00 -0.66812985917E+03  0.66812985918E+03  0.25500000000E-02 0.  1.
    8880022    1    1    2    0    0  0.23255284618E+03  0.24205687041E+03 -0.57102464753E+03  0.67980376277E+03  0.15294330000E+03 0.  0.
    8880022    1    1    2    0    0 -0.23255284618E+03 -0.24205687041E+03  0.75362008569E+03  0.83905139375E+03  0.15294330000E+03 0.  0.
<mgrwt>
<rscale>  0 0.36886855E+03</rscale>
<asrwt>0</asrwt>
<pdfrwt beam="1">  1        2 0.13088081E+00 0.36886855E+03</pdfrwt>
<pdfrwt beam="2">  1       -2 0.10278921E+00 0.36886855E+03</pdfrwt>
<totfact> 0.26173865E+01</totfact>
</mgrwt>
</event>
<event>
 4    1  0.5387657E-008  0.3902943E+03  0.7818608E-02  0.1047193E+00
         -2   -1    0    0    0  501 -0.00000000000E+00  0.00000000000E+00  0.27171779270E+03  0.27171779272E+03  0.25500000000E-02 0.  1.
          2   -1    0    0  501    0  0.00000000000E+00 -0.00000000000E+00 -0.10055096074E+04  0.10055096074E+04  0.25500000000E-02 0. -1.
    8880022    1    1    2    0    0 -0.16862367381E+03  0.31702370495E+03 -0.79168434955E+03  0.88266286611E+03  0.15294330000E+03 0. -1.
    8880022    1    1    2    0    0  0.16862367381E+03 -0.31702370495E+03  0.57892534875E+02  0.39456453399E+03  0.15294330000E+03 0.  1.
<mgrwt>
<rscale>  0 0.39029428E+03</rscale>
<asrwt>0</asrwt>
<pdfrwt beam="1">  1        2 0.15469378E+00 0.39029428E+03</pdfrwt>
<pdfrwt beam="2">  1       -2 0.41802738E-01 0.39029428E+03</pdfrwt>
<totfact> 0.14164993E+02</totfact>
</mgrwt>
</event>
<event>
 4    1  0.5387657E-008  0.3380418E+03  0.7818608E-02  0.1067633E+00
          2   -1    0    0  501    0  0.00000000000E+00  0.00000000000E+00  0.32448031742E+04  0.32448031742E+04  0.25500000000E-02 0. -1.
         -2   -1    0    0    0  501 -0.00000000000E+00 -0.00000000000E+00 -0.15427251967E+03  0.15427251969E+03  0.25500000000E-02 0.  1.
    8880022    1    1    2    0    0  0.28505101595E+03 -0.98114694141E+02  0.30382705417E+04  0.30570181734E+04  0.15294330000E+03 0.  0.
    8880022    1    1    2    0    0 -0.28505101595E+03  0.98114694141E+02  0.52260112800E+02  0.34205752046E+03  0.15294330000E+03 0.  0.
<mgrwt>
<rscale>  0 0.33804175E+03</rscale>
<asrwt>0</asrwt>
<pdfrwt beam="1">  1        2 0.49920044E+00 0.33804175E+03</pdfrwt>
<pdfrwt beam="2">  1       -2 0.23734236E-01 0.33804175E+03</pdfrwt>
<totfact> 0.22587467E+01</totfact>
</mgrwt>
</event>
<event>
 4    1  0.5387657E-008  0.8112419E+03  0.7818608E-02  0.9543886E-01
         -2   -1    0    0    0  501 -0.00000000000E+00  0.00000000000E+00  0.59062802569E+03  0.59062802570E+03  0.25500000000E-02 0.  1.
          2   -1    0    0  501    0  0.00000000000E+00 -0.00000000000E+00 -0.16238392007E+04  0.16238392007E+04  0.25500000000E-02 0. -1.
    8880022    1    1    2    0    0  0.25093646554E+02  0.79629899997E+03  0.10365389385E+03  0.81783712998E+03  0.15294330000E+03 0.  1.
    8880022    1    1    2    0    0 -0.25093646554E+02 -0.79629899997E+03 -0.11368650689E+04  0.13966300964E+04  0.15294330000E+03 0.  0.
<mgrwt>
<rscale>  0 0.81124191E+03</rscale>
<asrwt>0</asrwt>
<pdfrwt beam="1">  1        2 0.24982141E+00 0.81124191E+03</pdfrwt>
<pdfrwt beam="2">  1       -2 0.90865851E-01 0.81124191E+03</pdfrwt>
<totfact> 0.11387717E+01</totfact>
</mgrwt>
</event>
<event>
 4    1  0.5387657E-008  0.2484459E+03  0.7818608E-02  0.1114291E+00
          2   -1    0    0  501    0  0.00000000000E+00  0.00000000000E+00  0.23351516299E+04  0.23351516299E+04  0.25500000000E-02 0. -1.
         -2   -1    0    0    0  501 -0.00000000000E+00 -0.00000000000E+00 -0.48335545624E+02  0.48335545691E+02  0.25500000000E-02 0.  1.
    8880022    1    1    2    0    0  0.17998911465E+03 -0.77056127749E+02  0.19456316850E+04  0.19614300994E+04  0.15294330000E+03 0.  0.
    8880022    1    1    2    0    0 -0.17998911465E+03  0.77056127749E+02  0.34118439923E+03  0.42205707612E+03  0.15294330000E+03 0.  1.
<mgrwt>
<rscale>  0 0.24844593E+03</rscale>
<asrwt>0</asrwt>
<pdfrwt beam="1">  1        2 0.35925410E+00 0.24844593E+03</pdfrwt>
<pdfrwt beam="2">  1       -2 0.74362377E-02 0.24844593E+03</pdfrwt>
<totfact> 0.52553675E+02</totfact>
</mgrwt>
</event>
<event>
 4    1  0.5387657E-008  0.2104161E+03  0.7818608E-02  0.1141237E+00
         -2   -1    0    0    0  501 -0.00000000000E+00  0.00000000000E+00  0.50504266275E+02  0.50504266340E+02  0.25500000000E-02 0.  1.
          2   -1    0    0  501    0  0.00000000000E+00 -0.00000000000E+00 -0.97978024709E+03  0.97978024710E+03  0.25500000000E-02 0. -1.
    8880022    1    1    2    0    0  0.14391701013E+03  0.13084105976E+02 -0.63176233078E+03  0.66588181778E+03  0.15294330000E+03 0.  0.
    8880022    1    1    2    0    0 -0.14391701013E+03 -0.13084105976E+02 -0.29751365004E+03  0.36440269566E+03  0.15294330000E+03 0.  0.
<mgrwt>
<rscale>  0 0.21041614E+03</rscale>
<asrwt>0</asrwt>
<pdfrwt beam="1">  1        2 0.15073541E+00 0.21041614E+03</pdfrwt>
<pdfrwt beam="2">  1       -2 0.77698878E-02 0.21041614E+03</pdfrwt>
<totfact> 0.26619686E+03</totfact>
</mgrwt>
</event>
<event>
 4    1  0.5387657E-008  0.1403165E+04  0.7818608E-02  0.8951531E-01
         -2   -1    0    0    0  501 -0.00000000000E+00  0.00000000000E+00  0.12835129515E+04  0.12835129515E+04  0.25500000000E-02 0.  1.
          2   -1    0    0  501    0  0.00000000000E+00 -0.00000000000E+00 -0.28782435270E+04  0.28782435270E+04  0.25500000000E-02 0. -1.
    8880022    1    1    2    0    0  0.27044453780E+03 -0.13683346269E+04 -0.22194536212E+04  0.26258038634E+04  0.15294330000E+03 0.  0.
    8880022    1    1    2    0    0 -0.27044453780E+03  0.13683346269E+04  0.62472304573E+03  0.15359526152E+04  0.15294330000E+03 0.  0.
<mgrwt>
<rscale>  0 0.14031648E+04</rscale>
<asrwt>0</asrwt>
<pdfrwt beam="1">  1        2 0.44280670E+00 0.14031648E+04</pdfrwt>
<pdfrwt beam="2">  1       -2 0.19746353E+00 0.14031648E+04</pdfrwt>
<totfact> 0.27301785E-01</totfact>
</mgrwt>
</event>
<event>
 4    1  0.5387657E-008  0.3627396E+03  0.7818608E-02  0.1057504E+00
          2   -1    0    0  501    0  0.00000000000E+00  0.00000000000E+00  0.80714016238E+03  0.80714016238E+03  0.25500000000E-02 0. -1.
         -2   -1    0    0    0  501 -0.00000000000E+00 -0.00000000000E+00 -0.20109301569E+03  0.20109301571E+03  0.25500000000E-02 0.  1.
    8880022    1    1    2    0    0 -0.26629070486E+03 -0.19307413677E+03  0.52237524784E+03  0.63596848535E+03  0.15294330000E+03 0. -1.
    8880022    1    1    2    0    0  0.26629070486E+03  0.19307413677E+03  0.83671898846E+02  0.37226469274E+03  0.15294330000E+03 0.  1.
<mgrwt>
<rscale>  0 0.36273960E+03</rscale>
<asrwt>0</asrwt>
<pdfrwt beam="1">  1        2 0.12417541E+00 0.36273960E+03</pdfrwt>
<pdfrwt beam="2">  1       -2 0.30937387E-01 0.36273960E+03</pdfrwt>
<totfact> 0.33884455E+02</totfact>
</mgrwt>
</event>
<event>
 4    1  0.5387657E-008  0.3311947E+03  0.7818608E-02  0.1070609E+00
         -2   -1    0    0    0  501 -0.00000000000E+00  0.00000000000E+00  0.29342857037E+03  0.29342857038E+03  0.25500000000E-02 0.  1.
          2   -1    0    0  501    0  0.00000000000E+00 -0.00000000000E+00 -0.37929423544E+04  0.37929423544E+04  0.25500000000E-02 0. -1.
    8880022    1    1    2    0    0  0.14058349557E+03  0.25794297587E+03  0.19013213033E+03  0.38189026962E+03  0.15294330000E+03 0.  1.
    8880022    1    1    2    0    0 -0.14058349557E+03 -0.25794297587E+03 -0.36896459144E+04  0.37044806552E+04  0.15294330000E+03 0.  0.
<mgrwt>
<rscale>  0 0.33119473E+03</rscale>
<asrwt>0</asrwt>
<pdfrwt beam="1">  1        2 0.58352956E+00 0.33119473E+03</pdfrwt>
<pdfrwt beam="2">  1       -2 0.45142860E-01 0.33119473E+03</pdfrwt>
<totfact> 0.29352932E+00</totfact>
</mgrwt>
</event>
<event>
 4    1  0.5387657E-008  0.2597893E+03  0.7818608E-02  0.1107270E+00
          2   -1    0    0  501    0  0.00000000000E+00  0.00000000000E+00  0.11738277880E+04  0.11738277880E+04  0.25500000000E-02 0. -1.
         -2   -1    0    0    0  501 -0.00000000000E+00 -0.00000000000E+00 -0.24548711271E+03  0.24548711272E+03  0.25500000000E-02 0.  1.
    8880022    1    1    2    0    0 -0.20996346960E+03 -0.37650618450E+01 -0.15684595380E+03  0.30346522123E+03  0.15294330000E+03 0.  0.
    8880022    1    1    2    0    0  0.20996346960E+03  0.37650618450E+01  0.10851866291E+04  0.11158496795E+04  0.15294330000E+03 0.  0.
<mgrwt>
<rscale>  0 0.25978931E+03</rscale>
<asrwt>0</asrwt>
<pdfrwt beam="1">  1        2 0.18058889E+00 0.25978931E+03</pdfrwt>
<pdfrwt beam="2">  1       -2 0.37767249E-01 0.25978931E+03</pdfrwt>
<totfact> 0.13949298E+02</totfact>
</mgrwt>
</event>
<event>
 4    1  0.5387657E-008  0.6805810E+03  0.7818608E-02  0.9751030E-01
          2   -1    0    0  501    0  0.00000000000E+00  0.00000000000E+00  0.21378699191E+04  0.21378699191E+04  0.25500000000E-02 0. -1.
         -2   -1    0    0    0  501 -0.00000000000E+00 -0.00000000000E+00 -0.51219549706E+03  0.51219549706E+03  0.25500000000E-02 0.  1.
    8880022    1    1    2    0    0 -0.39332474258E+03  0.53394245725E+03 -0.19366252333E+03  0.70759856327E+03  0.15294330000E+03 0.  0.
    8880022    1    1    2    0    0  0.39332474258E+03 -0.53394245725E+03  0.18193369454E+04  0.19424668529E+04  0.15294330000E+03 0.  0.
<mgrwt>
<rscale>  0 0.68058104E+03</rscale>
<asrwt>0</asrwt>
<pdfrwt beam="1">  1        2 0.32890306E+00 0.68058104E+03</pdfrwt>
<pdfrwt beam="2">  1       -2 0.78799307E-01 0.68058104E+03</pdfrwt>
<totfact> 0.84127189E+00</totfact>
</mgrwt>
</event>
<event>
 4    1  0.5387657E-008  0.6059733E+03  0.7818608E-02  0.9893090E-01
         -2   -1    0    0    0  501 -0.00000000000E+00  0.00000000000E+00  0.78338277889E+03  0.78338277890E+03  0.25500000000E-02 0.  1.
          2   -1    0    0  501    0  0.00000000000E+00 -0.00000000000E+00 -0.10654327253E+04  0.10654327253E+04  0.25500000000E-02 0. -1.
    8880022    1    1    2    0    0 -0.60499212773E+02  0.58322537678E+03  0.55076706703E+03  0.81886995915E+03  0.15294330000E+03 0.  0.
    8880022    1    1    2    0    0  0.60499212773E+02 -0.58322537678E+03 -0.83281701339E+03  0.10299455450E+04  0.15294330000E+03 0.  0.
<mgrwt>
<rscale>  0 0.60597331E+03</rscale>
<asrwt>0</asrwt>
<pdfrwt beam="1">  1        2 0.16391273E+00 0.60597331E+03</pdfrwt>
<pdfrwt beam="2">  1       -2 0.12052043E+00 0.60597331E+03</pdfrwt>
<totfact> 0.12471699E+01</totfact>
</mgrwt>
</event>
<event>
 4    1  0.5387657E-008  0.4151822E+03  0.7818608E-02  0.1038646E+00
         -2   -1    0    0    0  501 -0.00000000000E+00  0.00000000000E+00  0.56267303538E+03  0.56267303539E+03  0.25500000000E-02 0.  1.
          2   -1    0    0  501    0  0.00000000000E+00 -0.00000000000E+00 -0.13231022304E+04  0.13231022304E+04  0.25500000000E-02 0. -1.
    8880022    1    1    2    0    0 -0.63892089405E+02  0.38066045339E+03  0.44633761694E+03  0.60958469565E+03  0.15294330000E+03 0.  0.
    8880022    1    1    2    0    0  0.63892089405E+02 -0.38066045339E+03 -0.12067668119E+04  0.12761905701E+04  0.15294330000E+03 0.  0.
<mgrwt>
<rscale>  0 0.41518217E+03</rscale>
<asrwt>0</asrwt>
<pdfrwt beam="1">  1        2 0.20355419E+00 0.41518217E+03</pdfrwt>
<pdfrwt beam="2">  1       -2 0.86565083E-01 0.41518217E+03</pdfrwt>
<totfact> 0.19929933E+01</totfact>
</mgrwt>
</event>
<event>
 4    1  0.5387657E-008  0.3915257E+03  0.7818608E-02  0.1046754E+00
          2   -1    0    0  501    0  0.00000000000E+00  0.00000000000E+00  0.13555893223E+04  0.13555893223E+04  0.25500000000E-02 0. -1.
         -2   -1    0    0    0  501 -0.00000000000E+00 -0.00000000000E+00 -0.31334743898E+03  0.31334743899E+03  0.25500000000E-02 0.  1.
    8880022    1    1    2    0    0 -0.14715991468E+03  0.32900564882E+03  0.11882349909E+04  0.12510774573E+04  0.15294330000E+03 0.  0.
    8880022    1    1    2    0    0  0.14715991468E+03 -0.32900564882E+03 -0.14599310764E+03  0.41785930399E+03  0.15294330000E+03 0.  0.
<mgrwt>
<rscale>  0 0.39152575E+03</rscale>
<asrwt>0</asrwt>
<pdfrwt beam="1">  1        2 0.20855220E+00 0.39152575E+03</pdfrwt>
<pdfrwt beam="2">  1       -2 0.48207299E-01 0.39152575E+03</pdfrwt>
<totfact> 0.66758875E+01</totfact>
</mgrwt>
</event>
<event>
 4    1  0.5387657E-008  0.3765940E+03  0.7818608E-02  0.1052200E+00
         -2   -1    0    0    0  501 -0.00000000000E+00  0.00000000000E+00  0.53914541663E+03  0.53914541664E+03  0.25500000000E-02 0.  1.
          2   -1    0    0  501    0  0.00000000000E+00 -0.00000000000E+00 -0.93132695632E+03  0.93132695632E+03  0.25500000000E-02 0. -1.
    8880022    1    1    2    0    0  0.30494753108E+03  0.15949421499E+03 -0.81889781450E+03  0.90134160280E+03  0.15294330000E+03 0.  0.
    8880022    1    1    2    0    0 -0.30494753108E+03 -0.15949421499E+03  0.42671627481E+03  0.56913077015E+03  0.15294330000E+03 0.  1.
<mgrwt>
<rscale>  0 0.37659402E+03</rscale>
<asrwt>0</asrwt>
<pdfrwt beam="1">  1        2 0.14328107E+00 0.37659402E+03</pdfrwt>
<pdfrwt beam="2">  1       -2 0.82945449E-01 0.37659402E+03</pdfrwt>
<totfact> 0.37853102E+01</totfact>
</mgrwt>
</event>
<event>
 4    1  0.5387657E-008  0.4390413E+03  0.7818608E-02  0.1031041E+00
         -2   -1    0    0    0  501 -0.00000000000E+00  0.00000000000E+00  0.17674903751E+04  0.17674903751E+04  0.25500000000E-02 0.  1.
          2   -1    0    0  501    0  0.00000000000E+00 -0.00000000000E+00 -0.30641151405E+03  0.30641151406E+03  0.25500000000E-02 0. -1.
    8880022    1    1    2    0    0  0.40315134326E+03  0.82671653024E+02  0.15627422142E+04  0.16232438169E+04  0.15294330000E+03 0.  1.
    8880022    1    1    2    0    0 -0.40315134326E+03 -0.82671653024E+02 -0.10166335315E+03  0.45065807235E+03  0.15294330000E+03 0.  0.
<mgrwt>
<rscale>  0 0.43904130E+03</rscale>
<asrwt>0</asrwt>
<pdfrwt beam="1">  1        2 0.47140233E-01 0.43904130E+03</pdfrwt>
<pdfrwt beam="2">  1       -2 0.27192160E+00 0.43904130E+03</pdfrwt>
<totfact> 0.54926513E+00</totfact>
</mgrwt>
</event>
<event>
 4    1  0.5387657E-008  0.2851602E+03  0.7818608E-02  0.1092903E+00
          2   -1    0    0  501    0  0.00000000000E+00  0.00000000000E+00  0.13146110386E+04  0.13146110386E+04  0.25500000000E-02 0. -1.
         -2   -1    0    0    0  501 -0.00000000000E+00 -0.00000000000E+00 -0.30665342748E+03  0.30665342749E+03  0.25500000000E-02 0.  1.
    8880022    1    1    2    0    0  0.15818748497E+03 -0.18138745605E+03  0.12282538846E+04  0.12609218642E+04  0.15294330000E+03 0.  0.
    8880022    1    1    2    0    0 -0.15818748497E+03  0.18138745605E+03 -0.22029627347E+03  0.36034260189E+03  0.15294330000E+03 0.  0.
<mgrwt>
<rscale>  0 0.28516021E+03</rscale>
<asrwt>0</asrwt>
<pdfrwt beam="1">  1        2 0.20224785E+00 0.28516021E+03</pdfrwt>
<pdfrwt beam="2">  1       -2 0.47177450E-01 0.28516021E+03</pdfrwt>
<totfact> 0.75086546E+01</totfact>
</mgrwt>
</event>
<event>
 4    1  0.5387657E-008  0.2399190E+03  0.7818608E-02  0.1119847E+00
          2   -1    0    0  501    0  0.00000000000E+00  0.00000000000E+00  0.22398361152E+04  0.22398361152E+04  0.25500000000E-02 0. -1.
         -2   -1    0    0    0  501 -0.00000000000E+00 -0.00000000000E+00 -0.78433018191E+02  0.78433018232E+02  0.25500000000E-02 0.  1.
    8880022    1    1    2    0    0  0.45557709365E+02 -0.17914787411E+03  0.13024861454E+03  0.27299417628E+03  0.15294330000E+03 0.  0.
    8880022    1    1    2    0    0 -0.45557709365E+02  0.17914787411E+03  0.20311544825E+04  0.20452749572E+04  0.15294330000E+03 0.  0.
<mgrwt>
<rscale>  0 0.23991898E+03</rscale>
<asrwt>0</asrwt>
<pdfrwt beam="1">  1        2 0.34459017E+00 0.23991898E+03</pdfrwt>
<pdfrwt beam="2">  1       -2 0.12066618E-01 0.23991898E+03</pdfrwt>
<totfact> 0.27467611E+02</totfact>
</mgrwt>
</event>
<event>
 4    1  0.5387657E-008  0.7074213E+03  0.7818608E-02  0.9704624E-01
          2   -1    0    0  501    0  0.00000000000E+00  0.00000000000E+00  0.28231865967E+04  0.28231865967E+04  0.25500000000E-02 0. -1.
         -2   -1    0    0    0  501 -0.00000000000E+00 -0.00000000000E+00 -0.36663504546E+03  0.36663504547E+03  0.25500000000E-02 0.  1.
    8880022    1    1    2    0    0  0.18362369888E+03 -0.66583452973E+03  0.23745222090E+04  0.24776603193E+04  0.15294330000E+03 0.  0.
    8880022    1    1    2    0    0 -0.18362369888E+03  0.66583452973E+03  0.82029342215E+02  0.71216132285E+03  0.15294330000E+03 0.  1.
<mgrwt>
<rscale>  0 0.70742133E+03</rscale>
<asrwt>0</asrwt>
<pdfrwt beam="1">  1        2 0.43433640E+00 0.70742133E+03</pdfrwt>
<pdfrwt beam="2">  1       -2 0.56405392E-01 0.70742133E+03</pdfrwt>
<totfact> 0.70500236E+00</totfact>
</mgrwt>
</event>
<event>
 4    1  0.5387657E-008  0.8059587E+03  0.7818608E-02  0.9551432E-01
         -2   -1    0    0    0  501 -0.00000000000E+00  0.00000000000E+00  0.14327975180E+04  0.14327975180E+04  0.25500000000E-02 0.  1.
          2   -1    0    0  501    0  0.00000000000E+00 -0.00000000000E+00 -0.58503785097E+03  0.58503785097E+03  0.25500000000E-02 0. -1.
    8880022    1    1    2    0    0  0.79088807730E+03 -0.25957636050E+02  0.90253676512E+03  0.12100173615E+04  0.15294330000E+03 0.  0.
    8880022    1    1    2    0    0 -0.79088807730E+03  0.25957636050E+02 -0.54777098113E+02  0.80781800746E+03  0.15294330000E+03 0.  0.
<mgrwt>
<rscale>  0 0.80595869E+03</rscale>
<asrwt>0</asrwt>
<pdfrwt beam="1">  1        2 0.90005824E-01 0.80595869E+03</pdfrwt>
<pdfrwt beam="2">  1       -2 0.22043039E+00 0.80595869E+03</pdfrwt>
<totfact> 0.51055141E+00</totfact>
</mgrwt>
</event>
<event>
 4    1  0.5387657E-008  0.6763374E+03  0.7818608E-02  0.9758577E-01
         -2   -1    0    0    0  501 -0.00000000000E+00  0.00000000000E+00  0.75550438422E+03  0.75550438422E+03  0.25500000000E-02 0.  1.
          2   -1    0    0  501    0  0.00000000000E+00 -0.00000000000E+00 -0.81757507357E+03  0.81757507357E+03  0.25500000000E-02 0. -1.
    8880022    1    1    2    0    0 -0.37273687534E+03  0.54323824759E+03 -0.43165887773E+03  0.80234756285E+03  0.15294330000E+03 0.  0.
    8880022    1    1    2    0    0  0.37273687534E+03 -0.54323824759E+03  0.36958818838E+03  0.77073189494E+03  0.15294330000E+03 0.  0.
<mgrwt>
<rscale>  0 0.67633736E+03</rscale>
<asrwt>0</asrwt>
<pdfrwt beam="1">  1        2 0.12578078E+00 0.67633736E+03</pdfrwt>
<pdfrwt beam="2">  1       -2 0.11623144E+00 0.67633736E+03</pdfrwt>
<totfact> 0.19654278E+01</totfact>
</mgrwt>
</event>
<event>
 4    1  0.5387657E-008  0.7263617E+03  0.7818608E-02  0.9673183E-01
         -2   -1    0    0    0  501 -0.00000000000E+00  0.00000000000E+00  0.80032053146E+03  0.80032053146E+03  0.25500000000E-02 0.  1.
          2   -1    0    0  501    0  0.00000000000E+00 -0.00000000000E+00 -0.13711969350E+04  0.13711969350E+04  0.25500000000E-02 0. -1.
    8880022    1    1    2    0    0 -0.66381332313E+03  0.25211400314E+03 -0.10678061679E+04  0.12914376732E+04  0.15294330000E+03 0.  0.
    8880022    1    1    2    0    0  0.66381332313E+03 -0.25211400314E+03  0.49692976445E+03  0.88007979317E+03  0.15294330000E+03 0.  0.
<mgrwt>
<rscale>  0 0.72636165E+03</rscale>
<asrwt>0</asrwt>
<pdfrwt beam="1">  1        2 0.21095338E+00 0.72636165E+03</pdfrwt>
<pdfrwt beam="2">  1       -2 0.12312623E+00 0.72636165E+03</pdfrwt>
<totfact> 0.76817168E+00</totfact>
</mgrwt>
</event>
<event>
 4    1  0.5387657E-008  0.2970511E+03  0.7818608E-02  0.1086724E+00
          2   -1    0    0  501    0  0.00000000000E+00  0.00000000000E+00  0.27706137522E+04  0.27706137522E+04  0.25500000000E-02 0. -1.
         -2   -1    0    0    0  501 -0.00000000000E+00 -0.00000000000E+00 -0.69493958013E+02  0.69493958060E+02  0.25500000000E-02 0.  1.
    8880022    1    1    2    0    0  0.13788370224E+03 -0.21409292433E+03  0.23957341813E+04  0.24140798694E+04  0.15294330000E+03 0.  0.
    8880022    1    1    2    0    0 -0.13788370224E+03  0.21409292433E+03  0.30538561294E+03  0.42602784087E+03  0.15294330000E+03 0.  1.
<mgrwt>
<rscale>  0 0.29705109E+03</rscale>
<asrwt>0</asrwt>
<pdfrwt beam="1">  1        2 0.42624823E+00 0.29705109E+03</pdfrwt>
<pdfrwt beam="2">  1       -2 0.10691379E-01 0.29705109E+03</pdfrwt>
<totfact> 0.16791546E+02</totfact>
</mgrwt>
</event>
<event>
 4    1  0.5387657E-008  0.2447809E+03  0.7818608E-02  0.1116648E+00
         -2   -1    0    0    0  501 -0.00000000000E+00  0.00000000000E+00  0.76188049103E+03  0.76188049104E+03  0.25500000000E-02 0.  1.
          2   -1    0    0  501    0  0.00000000000E+00 -0.00000000000E+00 -0.28896084240E+03  0.28896084241E+03  0.25500000000E-02 0. -1.
    8880022    1    1    2    0    0 -0.14476628653E+03 -0.12477491148E+03 -0.21179416712E+03  0.32368886062E+03  0.15294330000E+03 0. -1.
    8880022    1    1    2    0    0  0.14476628653E+03  0.12477491148E+03  0.68471381575E+03  0.72715247283E+03  0.15294330000E+03 0.  0.
<mgrwt>
<rscale>  0 0.24478094E+03</rscale>
<asrwt>0</asrwt>
<pdfrwt beam="1">  1        2 0.44455514E-01 0.24478094E+03</pdfrwt>
<pdfrwt beam="2">  1       -2 0.11721238E+00 0.24478094E+03</pdfrwt>
<totfact> 0.67811769E+01</totfact>
</mgrwt>
</event>
<event>
 4    1  0.5387657E-008  0.9912128E+03  0.7818608E-02  0.9318235E-01
         -2   -1    0    0    0  501 -0.00000000000E+00  0.00000000000E+00  0.11022259591E+04  0.11022259591E+04  0.25500000000E-02 0.  1.
          2   -1    0    0  501    0  0.00000000000E+00 -0.00000000000E+00 -0.10513862977E+04  0.10513862977E+04  0.25500000000E-02 0. -1.
    8880022    1    1    2    0    0  0.70917163711E+03  0.67541594010E+03 -0.39465260556E+03  0.10668896077E+04  0.15294330000E+03 0.  0.
    8880022    1    1    2    0    0 -0.70917163711E+03 -0.67541594010E+03  0.44549226689E+03  0.10867226490E+04  0.15294330000E+03 0.  0.
<mgrwt>
<rscale>  0 0.99121277E+03</rscale>
<asrwt>0</asrwt>
<pdfrwt beam="1">  1        2 0.16175174E+00 0.99121277E+03</pdfrwt>
<pdfrwt beam="2">  1       -2 0.16957322E+00 0.99121277E+03</pdfrwt>
<totfact> 0.49740855E+00</totfact>
</mgrwt>
</event>
<event>
 4    1  0.5387657E-008  0.5848797E+03  0.7818608E-02  0.9937282E-01
          2   -1    0    0  501    0  0.00000000000E+00  0.00000000000E+00  0.18384035048E+04  0.18384035048E+04  0.25500000000E-02 0. -1.
         -2   -1    0    0    0  501 -0.00000000000E+00 -0.00000000000E+00 -0.21316694450E+03  0.21316694451E+03  0.25500000000E-02 0.  1.
    8880022    1    1    2    0    0  0.22906230490E+03  0.51596811983E+03  0.44693766107E+03  0.73609616634E+03  0.15294330000E+03 0.  0.
    8880022    1    1    2    0    0 -0.22906230490E+03 -0.51596811983E+03  0.11782988992E+04  0.13154742830E+04  0.15294330000E+03 0.  0.
<mgrwt>
<rscale>  0 0.58487973E+03</rscale>
<asrwt>0</asrwt>
<pdfrwt beam="1">  1        2 0.28283131E+00 0.58487973E+03</pdfrwt>
<pdfrwt beam="2">  1       -2 0.32794915E-01 0.58487973E+03</pdfrwt>
<totfact> 0.74488839E+01</totfact>
</mgrwt>
</event>
<event>
 4    1  0.5387657E-008  0.1792930E+03  0.7818608E-02  0.1168489E+00
          2   -1    0    0  501    0  0.00000000000E+00  0.00000000000E+00  0.26893838980E+04  0.26893838980E+04  0.25500000000E-02 0. -1.
         -2   -1    0    0    0  501 -0.00000000000E+00 -0.00000000000E+00 -0.62713862571E+02  0.62713862623E+02  0.25500000000E-02 0.  1.
    8880022    1    1    2    0    0  0.92222660221E+02 -0.15789703330E+02  0.75345603201E+02  0.19448122461E+03  0.15294330000E+03 0.  0.
    8880022    1    1    2    0    0 -0.92222660221E+02  0.15789703330E+02  0.25513244322E+04  0.25576165360E+04  0.15294330000E+03 0. -1.
<mgrwt>
<rscale>  0 0.17929302E+03</rscale>
<asrwt>0</asrwt>
<pdfrwt beam="1">  1        2 0.41375131E+00 0.17929302E+03</pdfrwt>
<pdfrwt beam="2">  1       -2 0.96482880E-02 0.17929302E+03</pdfrwt>
<totfact> 0.22892587E+02</totfact>
</mgrwt>
</event>
<event>
 4    1  0.5387657E-008  0.6575354E+03  0.7818608E-02  0.9792741E-01
          2   -1    0    0  501    0  0.00000000000E+00  0.00000000000E+00  0.17294074755E+04  0.17294074755E+04  0.25500000000E-02 0. -1.
         -2   -1    0    0    0  501 -0.00000000000E+00 -0.00000000000E+00 -0.74268759086E+03  0.74268759086E+03  0.25500000000E-02 0.  1.
    8880022    1    1    2    0    0 -0.74659995613E+02  0.63512761645E+03 -0.51338080902E+03  0.83421382883E+03  0.15294330000E+03 0.  0.
    8880022    1    1    2    0    0  0.74659995613E+02 -0.63512761645E+03  0.15001006936E+04  0.16378812375E+04  0.15294330000E+03 0.  0.
<mgrwt>
<rscale>  0 0.65753544E+03</rscale>
<asrwt>0</asrwt>
<pdfrwt beam="1">  1        2 0.26606269E+00 0.65753544E+03</pdfrwt>
<pdfrwt beam="2">  1       -2 0.11425963E+00 0.65753544E+03</pdfrwt>
<totfact> 0.59154482E+00</totfact>
</mgrwt>
</event>
<event>
 4    1  0.5387657E-008  0.5162773E+03  0.7818608E-02  0.1009616E+00
         -2   -1    0    0    0  501 -0.00000000000E+00  0.00000000000E+00  0.46542101797E+03  0.46542101798E+03  0.25500000000E-02 0.  1.
          2   -1    0    0  501    0  0.00000000000E+00 -0.00000000000E+00 -0.66194278843E+03  0.66194278843E+03  0.25500000000E-02 0. -1.
    8880022    1    1    2    0    0 -0.36406098421E+03  0.33258112382E+03  0.10872142138E+03  0.52760080045E+03  0.15294330000E+03 0.  0.
    8880022    1    1    2    0    0  0.36406098421E+03 -0.33258112382E+03 -0.30524319184E+03  0.59976300597E+03  0.15294330000E+03 0.  0.
<mgrwt>
<rscale>  0 0.51627731E+03</rscale>
<asrwt>0</asrwt>
<pdfrwt beam="1">  1        2 0.10183735E+00 0.51627731E+03</pdfrwt>
<pdfrwt beam="2">  1       -2 0.71603234E-01 0.51627731E+03</pdfrwt>
<totfact> 0.80127575E+01</totfact>
</mgrwt>
</event>
<event>
 4    1  0.5387657E-008  0.1314554E+04  0.7818608E-02  0.9018102E-01
         -2   -1    0    0    0  501 -0.00000000000E+00  0.00000000000E+00  0.13946678644E+04  0.13946678644E+04  0.25500000000E-02 0.  1.
          2   -1    0    0  501    0  0.00000000000E+00 -0.00000000000E+00 -0.15304856556E+04  0.15304856556E+04  0.25500000000E-02 0. -1.
    8880022    1    1    2    0    0 -0.11677020410E+04 -0.58406654560E+03 -0.70614387493E+03  0.14922106457E+04  0.15294330000E+03 0.  0.
    8880022    1    1    2    0    0  0.11677020410E+04  0.58406654560E+03  0.57032608371E+03  0.14329428743E+04  0.15294330000E+03 0.  0.
<mgrwt>
<rscale>  0 0.13145545E+04</rscale>
<asrwt>0</asrwt>
<pdfrwt beam="1">  1        2 0.23545933E+00 0.13145545E+04</pdfrwt>
<pdfrwt beam="2">  1       -2 0.21456429E+00 0.13145545E+04</pdfrwt>
<totfact> 0.12513211E+00</totfact>
</mgrwt>
</event>
<event>
 4    1  0.5387657E-008  0.9527418E+03  0.7818608E-02  0.9361952E-01
          2   -1    0    0  501    0  0.00000000000E+00  0.00000000000E+00  0.15613419602E+04  0.15613419602E+04  0.25500000000E-02 0. -1.
         -2   -1    0    0    0  501 -0.00000000000E+00 -0.00000000000E+00 -0.75616654234E+03  0.75616654234E+03  0.25500000000E-02 0.  1.
    8880022    1    1    2    0    0  0.55299066231E+03  0.76060942194E+03 -0.15453301613E+03  0.96519297108E+03  0.15294330000E+03 0.  0.
    8880022    1    1    2    0    0 -0.55299066231E+03 -0.76060942194E+03  0.95970843402E+03  0.13523155315E+04  0.15294330000E+03 0.  0.
<mgrwt>
<rscale>  0 0.95274184E+03</rscale>
<asrwt>0</asrwt>
<pdfrwt beam="1">  1        2 0.24020645E+00 0.95274184E+03</pdfrwt>
<pdfrwt beam="2">  1       -2 0.11633331E+00 0.95274184E+03</pdfrwt>
<totfact> 0.67195472E+00</totfact>
</mgrwt>
</event>
<event>
 4    1  0.5387657E-008  0.4376323E+03  0.7818608E-02  0.1031476E+00
          2   -1    0    0  501    0  0.00000000000E+00  0.00000000000E+00  0.11707271982E+04  0.11707271982E+04  0.25500000000E-02 0. -1.
         -2   -1    0    0    0  501 -0.00000000000E+00 -0.00000000000E+00 -0.10579264866E+04  0.10579264866E+04  0.25500000000E-02 0.  1.
    8880022    1    1    2    0    0  0.35915122509E+03  0.19784024810E+03  0.10809541118E+04  0.11661834380E+04  0.15294330000E+03 0.  0.
    8880022    1    1    2    0    0 -0.35915122509E+03 -0.19784024810E+03 -0.96815340017E+03  0.10624702469E+04  0.15294330000E+03 0.  0.
<mgrwt>
<rscale>  0 0.43763229E+03</rscale>
<asrwt>0</asrwt>
<pdfrwt beam="1">  1        2 0.18011188E+00 0.43763229E+03</pdfrwt>
<pdfrwt beam="2">  1       -2 0.16275792E+00 0.43763229E+03</pdfrwt>
<totfact> 0.51352550E+00</totfact>
</mgrwt>
</event>
<event>
 4    1  0.5387657E-008  0.2202761E+03  0.7818608E-02  0.1133677E+00
          2   -1    0    0  501    0  0.00000000000E+00  0.00000000000E+00  0.53836233322E+03  0.53836233323E+03  0.25500000000E-02 0. -1.
         -2   -1    0    0    0  501 -0.00000000000E+00 -0.00000000000E+00 -0.48888642932E+03  0.48888642933E+03  0.25500000000E-02 0.  1.
    8880022    1    1    2    0    0  0.55078106081E+02  0.14864820744E+03 -0.43913233856E+03  0.49128276087E+03  0.15294330000E+03 0.  0.
    8880022    1    1    2    0    0 -0.55078106081E+02 -0.14864820744E+03  0.48860824246E+03  0.53596600169E+03  0.15294330000E+03 0. -1.
<mgrwt>
<rscale>  0 0.22027605E+03</rscale>
<asrwt>0</asrwt>
<pdfrwt beam="1">  1        2 0.82824975E-01 0.22027605E+03</pdfrwt>
<pdfrwt beam="2">  1       -2 0.75213297E-01 0.22027605E+03</pdfrwt>
<totfact> 0.95213686E+01</totfact>
</mgrwt>
</event>
<event>
 4    1  0.5387657E-008  0.2506650E+03  0.7818608E-02  0.1112885E+00
          2   -1    0    0  501    0  0.00000000000E+00  0.00000000000E+00  0.14939133110E+04  0.14939133110E+04  0.25500000000E-02 0. -1.
         -2   -1    0    0    0  501 -0.00000000000E+00 -0.00000000000E+00 -0.53918084977E+03  0.53918084978E+03  0.25500000000E-02 0.  1.
    8880022    1    1    2    0    0  0.67392488462E+02 -0.18681420788E+03  0.14534600496E+04  0.14749166297E+04  0.15294330000E+03 0. -1.
    8880022    1    1    2    0    0 -0.67392488462E+02  0.18681420788E+03 -0.49872758838E+03  0.55817753107E+03  0.15294330000E+03 0.  0.
<mgrwt>
<rscale>  0 0.25066501E+03</rscale>
<asrwt>0</asrwt>
<pdfrwt beam="1">  1        2 0.22983282E+00 0.25066501E+03</pdfrwt>
<pdfrwt beam="2">  1       -2 0.82950900E-01 0.25066501E+03</pdfrwt>
<totfact> 0.18535096E+01</totfact>
</mgrwt>
</event>
<event>
 4    1  0.5387657E-008  0.1151277E+04  0.7818608E-02  0.9156606E-01
          2   -1    0    0  501    0  0.00000000000E+00  0.00000000000E+00  0.35252607737E+04  0.35252607737E+04  0.25500000000E-02 0. -1.
         -2   -1    0    0    0  501 -0.00000000000E+00 -0.00000000000E+00 -0.41214225988E+03  0.41214225988E+03  0.25500000000E-02 0.  1.
    8880022    1    1    2    0    0  0.10388328843E+04  0.47209505675E+03  0.97343070820E+03  0.15076493295E+04  0.15294330000E+03 0.  0.
    8880022    1    1    2    0    0 -0.10388328843E+04 -0.47209505675E+03  0.21396878057E+04  0.24297537041E+04  0.15294330000E+03 0.  0.
<mgrwt>
<rscale>  0 0.11512772E+04</rscale>
<asrwt>0</asrwt>
<pdfrwt beam="1">  1        2 0.54234781E+00 0.11512772E+04</pdfrwt>
<pdfrwt beam="2">  1       -2 0.63406502E-01 0.11512772E+04</pdfrwt>
<totfact> 0.18212912E+00</totfact>
</mgrwt>
</event>
<event>
 4    1  0.5387657E-008  0.6189551E+03  0.7818608E-02  0.9866842E-01
         -2   -1    0    0    0  501 -0.00000000000E+00  0.00000000000E+00  0.48153526269E+03  0.48153526270E+03  0.25500000000E-02 0.  1.
          2   -1    0    0  501    0  0.00000000000E+00 -0.00000000000E+00 -0.17758206631E+04  0.17758206631E+04  0.25500000000E-02 0. -1.
    8880022    1    1    2    0    0 -0.54467915968E+03  0.25107452762E+03  0.19141752376E+03  0.64787817283E+03  0.15294330000E+03 0.  0.
    8880022    1    1    2    0    0  0.54467915968E+03 -0.25107452762E+03 -0.14857029242E+04  0.16094777530E+04  0.15294330000E+03 0.  0.
<mgrwt>
<rscale>  0 0.61895513E+03</rscale>
<asrwt>0</asrwt>
<pdfrwt beam="1">  1        2 0.27320318E+00 0.61895513E+03</pdfrwt>
<pdfrwt beam="2">  1       -2 0.74082349E-01 0.61895513E+03</pdfrwt>
<totfact> 0.15339457E+01</totfact>
</mgrwt>
</event>
<event>
 4    1  0.5387657E-008  0.4667354E+03  0.7818608E-02  0.1022846E+00
         -2   -1    0    0    0  501 -0.00000000000E+00  0.00000000000E+00  0.45225340140E+03  0.45225340141E+03  0.25500000000E-02 0.  1.
          2   -1    0    0  501    0  0.00000000000E+00 -0.00000000000E+00 -0.87507141819E+03  0.87507141819E+03  0.25500000000E-02 0. -1.
    8880022    1    1    2    0    0 -0.44060561082E+03  0.17804354059E+02 -0.65638569643E+03  0.80540929645E+03  0.15294330000E+03 0.  0.
    8880022    1    1    2    0    0  0.44060561082E+03 -0.17804354059E+02  0.23356767965E+03  0.52191552315E+03  0.15294330000E+03 0.  0.
<mgrwt>
<rscale>  0 0.46673542E+03</rscale>
<asrwt>0</asrwt>
<pdfrwt beam="1">  1        2 0.13462637E+00 0.46673542E+03</pdfrwt>
<pdfrwt beam="2">  1       -2 0.69577447E-01 0.46673542E+03</pdfrwt>
<totfact> 0.59904323E+01</totfact>
</mgrwt>
</event>
<event>
 4    1  0.5387657E-008  0.6242097E+03  0.7818608E-02  0.9856414E-01
         -2   -1    0    0    0  501 -0.00000000000E+00  0.00000000000E+00  0.40281478166E+03  0.40281478166E+03  0.25500000000E-02 0.  1.
          2   -1    0    0  501    0  0.00000000000E+00 -0.00000000000E+00 -0.14358592330E+04  0.14358592330E+04  0.25500000000E-02 0. -1.
    8880022    1    1    2    0    0  0.41989455717E+03  0.43581494092E+03 -0.10417005504E+04  0.12144042950E+04  0.15294330000E+03 0.  0.
    8880022    1    1    2    0    0 -0.41989455717E+03 -0.43581494092E+03  0.86560990830E+01  0.62426971970E+03  0.15294330000E+03 0.  0.
<mgrwt>
<rscale>  0 0.62420970E+03</rscale>
<asrwt>0</asrwt>
<pdfrwt beam="1">  1        2 0.22090142E+00 0.62420970E+03</pdfrwt>
<pdfrwt beam="2">  1       -2 0.61971506E-01 0.62420970E+03</pdfrwt>
<totfact> 0.34631113E+01</totfact>
</mgrwt>
</event>
<event>
 4    1  0.5387657E-008  0.1490448E+04  0.7818608E-02  0.8890830E-01
          2   -1    0    0  501    0  0.00000000000E+00  0.00000000000E+00  0.29400508220E+04  0.29400508220E+04  0.25500000000E-02 0. -1.
         -2   -1    0    0    0  501 -0.00000000000E+00 -0.00000000000E+00 -0.11657517506E+04  0.11657517506E+04  0.25500000000E-02 0.  1.
    8880022    1    1    2    0    0 -0.74592298727E+03  0.12812658307E+04 -0.33057616227E+03  0.15266680988E+04  0.15294330000E+03 0.  0.
    8880022    1    1    2    0    0  0.74592298727E+03 -0.12812658307E+04  0.21048752336E+04  0.25791344738E+04  0.15294330000E+03 0.  0.
<mgrwt>
<rscale>  0 0.14904479E+04</rscale>
<asrwt>0</asrwt>
<pdfrwt beam="1">  1        2 0.45231550E+00 0.14904479E+04</pdfrwt>
<pdfrwt beam="2">  1       -2 0.17934643E+00 0.14904479E+04</pdfrwt>
<totfact> 0.32854625E-01</totfact>
</mgrwt>
</event>
<event>
 4    1  0.5387657E-008  0.6776898E+03  0.7818608E-02  0.9756165E-01
         -2   -1    0    0    0  501 -0.00000000000E+00  0.00000000000E+00  0.47078822504E+03  0.47078822505E+03  0.25500000000E-02 0.  1.
          2   -1    0    0  501    0  0.00000000000E+00 -0.00000000000E+00 -0.13311932672E+04  0.13311932672E+04  0.25500000000E-02 0. -1.
    8880022    1    1    2    0    0 -0.43700167996E+03 -0.49487513873E+03  0.35517741479E+02  0.67861994827E+03  0.15294330000E+03 0.  0.
    8880022    1    1    2    0    0  0.43700167996E+03  0.49487513873E+03 -0.89592278365E+03  0.11233615440E+04  0.15294330000E+03 0.  0.
<mgrwt>
<rscale>  0 0.67768984E+03</rscale>
<asrwt>0</asrwt>
<pdfrwt beam="1">  1        2 0.20479896E+00 0.67768984E+03</pdfrwt>
<pdfrwt beam="2">  1       -2 0.72428958E-01 0.67768984E+03</pdfrwt>
<totfact> 0.28147478E+01</totfact>
</mgrwt>
</event>
<event>
 4    1  0.5387657E-008  0.9185011E+03  0.7818608E-02  0.9402745E-01
         -2   -1    0    0    0  501 -0.00000000000E+00  0.00000000000E+00  0.42823722778E+03  0.42823722778E+03  0.25500000000E-02 0.  1.
          2   -1    0    0  501    0  0.00000000000E+00 -0.00000000000E+00 -0.21481258784E+04  0.21481258784E+04  0.25500000000E-02 0. -1.
    8880022    1    1    2    0    0  0.61693510358E+03 -0.66305631775E+03 -0.48903943533E+03  0.10405786010E+04  0.15294330000E+03 0.  0.
    8880022    1    1    2    0    0 -0.61693510358E+03  0.66305631775E+03 -0.12308492153E+04  0.15357845052E+04  0.15294330000E+03 0.  0.
<mgrwt>
<rscale>  0 0.91850109E+03</rscale>
<asrwt>0</asrwt>
<pdfrwt beam="1">  1        2 0.33048090E+00 0.91850109E+03</pdfrwt>
<pdfrwt beam="2">  1       -2 0.65882652E-01 0.91850109E+03</pdfrwt>
<totfact> 0.11886944E+01</totfact>
</mgrwt>
</event>
<event>
 4    1  0.5387657E-008  0.3536296E+03  0.7818608E-02  0.1061135E+00
         -2   -1    0    0    0  501 -0.00000000000E+00  0.00000000000E+00  0.43251481016E+03  0.43251481017E+03  0.25500000000E-02 0.  1.
          2   -1    0    0  501    0  0.00000000000E+00 -0.00000000000E+00 -0.14566558078E+04  0.14566558078E+04  0.25500000000E-02 0. -1.
    8880022    1    1    2    0    0  0.30920655636E+03 -0.77804452264E+02  0.33358910147E+03  0.48614356822E+03  0.15294330000E+03 0.  1.
    8880022    1    1    2    0    0 -0.30920655636E+03  0.77804452264E+02 -0.13577300991E+04  0.14030270497E+04  0.15294330000E+03 0.  0.
<mgrwt>
<rscale>  0 0.35362958E+03</rscale>
<asrwt>0</asrwt>
<pdfrwt beam="1">  1        2 0.22410089E+00 0.35362958E+03</pdfrwt>
<pdfrwt beam="2">  1       -2 0.66540741E-01 0.35362958E+03</pdfrwt>
<totfact> 0.30422418E+01</totfact>
</mgrwt>
</event>
<event>
 4    1  0.5387657E-008  0.7507622E+03  0.7818608E-02  0.9634155E-01
          2   -1    0    0  501    0  0.00000000000E+00  0.00000000000E+00  0.24648381101E+04  0.24648381101E+04  0.25500000000E-02 0. -1.
         -2   -1    0    0    0  501 -0.00000000000E+00 -0.00000000000E+00 -0.35084385305E+03  0.35084385306E+03  0.25500000000E-02 0.  1.
    8880022    1    1    2    0    0 -0.29180396145E+03 -0.67461297226E+03  0.22623044822E+03  0.78410718845E+03  0.15294330000E+03 0.  0.
    8880022    1    1    2    0    0  0.29180396145E+03  0.67461297226E+03  0.18877638088E+04  0.20315747747E+04  0.15294330000E+03 0.  0.
<mgrwt>
<rscale>  0 0.75076219E+03</rscale>
<asrwt>0</asrwt>
<pdfrwt beam="1">  1        2 0.37920586E+00 0.75076219E+03</pdfrwt>
<pdfrwt beam="2">  1       -2 0.53975978E-01 0.75076219E+03</pdfrwt>
<totfact> 0.12345585E+01</totfact>
</mgrwt>
</event>
<event>
 4    1  0.5387657E-008  0.4919273E+03  0.7818608E-02  0.1015908E+00
          2   -1    0    0  501    0  0.00000000000E+00  0.00000000000E+00  0.17817001873E+04  0.17817001873E+04  0.25500000000E-02 0. -1.
         -2   -1    0    0    0  501 -0.00000000000E+00 -0.00000000000E+00 -0.36141442558E+03  0.36141442559E+03  0.25500000000E-02 0.  1.
    8880022    1    1    2    0    0  0.15775227978E+03  0.44013070065E+03  0.15567380568E+04  0.16326131954E+04  0.15294330000E+03 0.  0.
    8880022    1    1    2    0    0 -0.15775227978E+03 -0.44013070065E+03 -0.13645229503E+03  0.51050141749E+03  0.15294330000E+03 0.  1.
<mgrwt>
<rscale>  0 0.49192730E+03</rscale>
<asrwt>0</asrwt>
<pdfrwt beam="1">  1        2 0.27410772E+00 0.49192730E+03</pdfrwt>
<pdfrwt beam="2">  1       -2 0.55602220E-01 0.49192730E+03</pdfrwt>
<totfact> 0.28735769E+01</totfact>
</mgrwt>
</event>
<event>
 4    1  0.5387657E-008  0.3633150E+03  0.7818608E-02  0.1057279E+00
         -2   -1    0    0    0  501 -0.00000000000E+00  0.00000000000E+00  0.10109602687E+04  0.10109602687E+04  0.25500000000E-02 0.  1.
          2   -1    0    0  501    0  0.00000000000E+00 -0.00000000000E+00 -0.18202776548E+03  0.18202776550E+03  0.25500000000E-02 0. -1.
    8880022    1    1    2    0    0  0.21683396769E+03  0.24817157476E+03  0.97307550194E+02  0.37612034298E+03  0.15294330000E+03 0.  0.
    8880022    1    1    2    0    0 -0.21683396769E+03 -0.24817157476E+03  0.73162495305E+03  0.81686769124E+03  0.15294330000E+03 0.  0.
<mgrwt>
<rscale>  0 0.36331495E+03</rscale>
<asrwt>0</asrwt>
<pdfrwt beam="1">  1        2 0.28004272E-01 0.36331495E+03</pdfrwt>
<pdfrwt beam="2">  1       -2 0.15553235E+00 0.36331495E+03</pdfrwt>
<totfact> 0.54419193E+01</totfact>
</mgrwt>
</event>
<event>
 4    1  0.5387657E-008  0.5108959E+03  0.7818608E-02  0.1010973E+00
          2   -1    0    0  501    0  0.00000000000E+00  0.00000000000E+00  0.44214366766E+03  0.44214366766E+03  0.25500000000E-02 0. -1.
         -2   -1    0    0    0  501 -0.00000000000E+00 -0.00000000000E+00 -0.96672304996E+03  0.96672304996E+03  0.25500000000E-02 0.  1.
    8880022    1    1    2    0    0  0.44879251524E+03 -0.19028475528E+03 -0.70183582729E+03  0.86809457510E+03  0.15294330000E+03 0.  0.
    8880022    1    1    2    0    0 -0.44879251524E+03  0.19028475528E+03  0.17725644499E+03  0.54077214253E+03  0.15294330000E+03 0.  0.
<mgrwt>
<rscale>  0 0.51089594E+03</rscale>
<asrwt>0</asrwt>
<pdfrwt beam="1">  1        2 0.68022103E-01 0.51089594E+03</pdfrwt>
<pdfrwt beam="2">  1       -2 0.14872662E+00 0.51089594E+03</pdfrwt>
<totfact> 0.22562322E+01</totfact>
</mgrwt>
</event>
<event>
 4    1  0.5387657E-008  0.3856968E+03  0.7818608E-02  0.1048848E+00
         -2   -1    0    0    0  501 -0.00000000000E+00  0.00000000000E+00  0.18829507929E+04  0.18829507929E+04  0.25500000000E-02 0.  1.
          2   -1    0    0  501    0  0.00000000000E+00 -0.00000000000E+00 -0.43168119556E+03  0.43168119557E+03  0.25500000000E-02 0. -1.
    8880022    1    1    2    0    0  0.35407643932E+03 -0.52750483239E+00 -0.32043007148E+03  0.50143542642E+03  0.15294330000E+03 0.  0.
    8880022    1    1    2    0    0 -0.35407643932E+03  0.52750483239E+00  0.17716996689E+04  0.18131965621E+04  0.15294330000E+03 0.  0.
<mgrwt>
<rscale>  0 0.38569684E+03</rscale>
<asrwt>0</asrwt>
<pdfrwt beam="1">  1        2 0.66412491E-01 0.38569684E+03</pdfrwt>
<pdfrwt beam="2">  1       -2 0.28968474E+00 0.38569684E+03</pdfrwt>
<totfact> 0.29960385E+00</totfact>
</mgrwt>
</event>
<event>
 4    1  0.5387657E-008  0.7085420E+03  0.7818608E-02  0.9702735E-01
          2   -1    0    0  501    0  0.00000000000E+00  0.00000000000E+00  0.14540681917E+04  0.14540681917E+04  0.25500000000E-02 0. -1.
         -2   -1    0    0    0  501 -0.00000000000E+00 -0.00000000000E+00 -0.55011656922E+03  0.55011656922E+03  0.25500000000E-02 0.  1.
    8880022    1    1    2    0    0 -0.59310172655E+03  0.35618882025E+03 -0.15953648852E+03  0.72628071563E+03  0.15294330000E+03 0.  0.
    8880022    1    1    2    0    0  0.59310172655E+03 -0.35618882025E+03  0.10634881110E+04  0.12779040453E+04  0.15294330000E+03 0.  0.
<mgrwt>
<rscale>  0 0.70854201E+03</rscale>
<asrwt>0</asrwt>
<pdfrwt beam="1">  1        2 0.22370279E+00 0.70854201E+03</pdfrwt>
<pdfrwt beam="2">  1       -2 0.84633320E-01 0.70854201E+03</pdfrwt>
<totfact> 0.16872523E+01</totfact>
</mgrwt>
</event>
<event>
 4    1  0.5387657E-008  0.2782763E+03  0.7818608E-02  0.1096634E+00
         -2   -1    0    0    0  501 -0.00000000000E+00  0.00000000000E+00  0.37565861216E+03  0.37565861217E+03  0.25500000000E-02 0.  1.
          2   -1    0    0  501    0  0.00000000000E+00 -0.00000000000E+00 -0.25458925213E+03  0.25458925215E+03  0.25500000000E-02 0. -1.
    8880022    1    1    2    0    0  0.10488289621E+03  0.20747444799E+03  0.19800577541E+03  0.34153185590E+03  0.15294330000E+03 0.  0.
    8880022    1    1    2    0    0 -0.10488289621E+03 -0.20747444799E+03 -0.76936415388E+02  0.28871600841E+03  0.15294330000E+03 0.  0.
<mgrwt>
<rscale>  0 0.27827634E+03</rscale>
<asrwt>0</asrwt>
<pdfrwt beam="1">  1        2 0.39167578E-01 0.27827634E+03</pdfrwt>
<pdfrwt beam="2">  1       -2 0.57793632E-01 0.27827634E+03</pdfrwt>
<totfact> 0.37557604E+02</totfact>
</mgrwt>
</event>
<event>
 4    1  0.5387657E-008  0.1695648E+03  0.7818608E-02  0.1178302E+00
         -2   -1    0    0    0  501 -0.00000000000E+00  0.00000000000E+00  0.68891538142E+02  0.68891538189E+02  0.25500000000E-02 0.  1.
          2   -1    0    0  501    0  0.00000000000E+00 -0.00000000000E+00 -0.53135655988E+03  0.53135655988E+03  0.25500000000E-02 0. -1.
    8880022    1    1    2    0    0 -0.69117518356E+02 -0.24152522791E+02 -0.37024798601E+03  0.40722941920E+03  0.15294330000E+03 0.  0.
    8880022    1    1    2    0    0  0.69117518356E+02  0.24152522791E+02 -0.92217035720E+02  0.19301867887E+03  0.15294330000E+03 0.  1.
<mgrwt>
<rscale>  0 0.16956482E+03</rscale>
<asrwt>0</asrwt>
<pdfrwt beam="1">  1        2 0.81747160E-01 0.16956482E+03</pdfrwt>
<pdfrwt beam="2">  1       -2 0.10598699E-01 0.16956482E+03</pdfrwt>
<totfact> 0.34429807E+03</totfact>
</mgrwt>
</event>
<event>
 4    1  0.5387657E-008  0.4045897E+03  0.7818608E-02  0.1042202E+00
         -2   -1    0    0    0  501 -0.00000000000E+00  0.00000000000E+00  0.75334698434E+02  0.75334698477E+02  0.25500000000E-02 0.  1.
          2   -1    0    0  501    0  0.00000000000E+00 -0.00000000000E+00 -0.24031269094E+04  0.24031269094E+04  0.25500000000E-02 0. -1.
    8880022    1    1    2    0    0  0.23685370093E+03 -0.29017490225E+03 -0.78030681539E+03  0.87896048187E+03  0.15294330000E+03 0.  0.
    8880022    1    1    2    0    0 -0.23685370093E+03  0.29017490225E+03 -0.15474853955E+04  0.15995011260E+04  0.15294330000E+03 0.  0.
<mgrwt>
<rscale>  0 0.40458967E+03</rscale>
<asrwt>0</asrwt>
<pdfrwt beam="1">  1        2 0.36971177E+00 0.40458967E+03</pdfrwt>
<pdfrwt beam="2">  1       -2 0.11589955E-01 0.40458967E+03</pdfrwt>
<totfact> 0.23089058E+02</totfact>
</mgrwt>
</event>
<event>
 4    1  0.5387657E-008  0.1913712E+03  0.7818608E-02  0.1157230E+00
          2   -1    0    0  501    0  0.00000000000E+00  0.00000000000E+00  0.67756438121E+02  0.67756438169E+02  0.25500000000E-02 0. -1.
         -2   -1    0    0    0  501 -0.00000000000E+00 -0.00000000000E+00 -0.87548939114E+03  0.87548939115E+03  0.25500000000E-02 0.  1.
    8880022    1    1    2    0    0 -0.11498339001E+03 -0.31815268881E+01 -0.11213772207E+03  0.22180582458E+03  0.15294330000E+03 0.  0.
    8880022    1    1    2    0    0  0.11498339001E+03  0.31815268881E+01 -0.69559523095E+03  0.72144000473E+03  0.15294330000E+03 0.  0.
<mgrwt>
<rscale>  0 0.19137125E+03</rscale>
<asrwt>0</asrwt>
<pdfrwt beam="1">  1        2 0.10424068E-01 0.19137125E+03</pdfrwt>
<pdfrwt beam="2">  1       -2 0.13469067E+00 0.19137125E+03</pdfrwt>
<totfact> 0.25367700E+02</totfact>
</mgrwt>
</event>
<event>
 4    1  0.5387657E-008  0.4227090E+03  0.7818608E-02  0.1036188E+00
         -2   -1    0    0    0  501 -0.00000000000E+00  0.00000000000E+00  0.19232636577E+03  0.19232636579E+03  0.25500000000E-02 0.  1.
          2   -1    0    0  501    0  0.00000000000E+00 -0.00000000000E+00 -0.15988102912E+04  0.15988102912E+04  0.25500000000E-02 0. -1.
    8880022    1    1    2    0    0  0.13577420349E+03 -0.36994133744E+03 -0.12360447356E+03  0.44040997534E+03  0.15294330000E+03 0.  1.
    8880022    1    1    2    0    0 -0.13577420349E+03  0.36994133744E+03 -0.12828794519E+04  0.13507266817E+04  0.15294330000E+03 0.  0.
<mgrwt>
<rscale>  0 0.42270898E+03</rscale>
<asrwt>0</asrwt>
<pdfrwt beam="1">  1        2 0.24597081E+00 0.42270898E+03</pdfrwt>
<pdfrwt beam="2">  1       -2 0.29588673E-01 0.42270898E+03</pdfrwt>
<totfact> 0.12435527E+02</totfact>
</mgrwt>
</event>
<event>
 4    1  0.5387657E-008  0.5790555E+03  0.7818608E-02  0.9949838E-01
          2   -1    0    0  501    0  0.00000000000E+00  0.00000000000E+00  0.19743922826E+04  0.19743922826E+04  0.25500000000E-02 0. -1.
         -2   -1    0    0    0  501 -0.00000000000E+00 -0.00000000000E+00 -0.10770744457E+04  0.10770744457E+04  0.25500000000E-02 0.  1.
    8880022    1    1    2    0    0 -0.34820674840E+03  0.43665277624E+03  0.18489510376E+04  0.19375048849E+04  0.15294330000E+03 0.  0.
    8880022    1    1    2    0    0  0.34820674840E+03 -0.43665277624E+03 -0.95163320075E+03  0.11139618433E+04  0.15294330000E+03 0.  1.
<mgrwt>
<rscale>  0 0.57905547E+03</rscale>
<asrwt>0</asrwt>
<pdfrwt beam="1">  1        2 0.30375266E+00 0.57905547E+03</pdfrwt>
<pdfrwt beam="2">  1       -2 0.16570376E+00 0.57905547E+03</pdfrwt>
<totfact> 0.17030381E+00</totfact>
</mgrwt>
</event>
<event>
 4    1  0.5387657E-008  0.3377395E+03  0.7818608E-02  0.1067763E+00
          2   -1    0    0  501    0  0.00000000000E+00  0.00000000000E+00  0.19893687484E+04  0.19893687484E+04  0.25500000000E-02 0. -1.
         -2   -1    0    0    0  501 -0.00000000000E+00 -0.00000000000E+00 -0.36292799829E+03  0.36292799830E+03  0.25500000000E-02 0.  1.
    8880022    1    1    2    0    0 -0.21828884661E+02  0.30033287023E+03  0.18924674643E+04  0.19223686144E+04  0.15294330000E+03 0.  0.
    8880022    1    1    2    0    0  0.21828884661E+02 -0.30033287023E+03 -0.26602671428E+03  0.42992813222E+03  0.15294330000E+03 0.  0.
<mgrwt>
<rscale>  0 0.33773952E+03</rscale>
<asrwt>0</asrwt>
<pdfrwt beam="1">  1        2 0.30605673E+00 0.33773952E+03</pdfrwt>
<pdfrwt beam="2">  1       -2 0.55835077E-01 0.33773952E+03</pdfrwt>
<totfact> 0.22922640E+01</totfact>
</mgrwt>
</event>
<event>
 4    1  0.5387657E-008  0.6700025E+03  0.7818608E-02  0.9769953E-01
         -2   -1    0    0    0  501 -0.00000000000E+00  0.00000000000E+00  0.30701631190E+03  0.30701631191E+03  0.25500000000E-02 0.  1.
          2   -1    0    0  501    0  0.00000000000E+00 -0.00000000000E+00 -0.33054759835E+04  0.33054759835E+04  0.25500000000E-02 0. -1.
    8880022    1    1    2    0    0  0.64308641587E+03 -0.10932292128E+03 -0.28480723207E+04  0.29258194128E+04  0.15294330000E+03 0.  0.
    8880022    1    1    2    0    0 -0.64308641587E+03  0.10932292128E+03 -0.15038735091E+03  0.68667288262E+03  0.15294330000E+03 0.  0.
<mgrwt>
<rscale>  0 0.67000246E+03</rscale>
<asrwt>0</asrwt>
<pdfrwt beam="1">  1        2 0.50853474E+00 0.67000246E+03</pdfrwt>
<pdfrwt beam="2">  1       -2 0.47233281E-01 0.67000246E+03</pdfrwt>
<totfact> 0.51393528E+00</totfact>
</mgrwt>
</event>
<event>
 4    1  0.5387657E-008  0.1308566E+04  0.7818608E-02  0.9022800E-01
         -2   -1    0    0    0  501 -0.00000000000E+00  0.00000000000E+00  0.90272382430E+03  0.90272382430E+03  0.25500000000E-02 0.  1.
          2   -1    0    0  501    0  0.00000000000E+00 -0.00000000000E+00 -0.26405714891E+04  0.26405714891E+04  0.25500000000E-02 0. -1.
    8880022    1    1    2    0    0 -0.12982130068E+04 -0.59958467558E+02 -0.18091442423E+04  0.22327889670E+04  0.15294330000E+03 0.  0.
    8880022    1    1    2    0    0  0.12982130068E+04  0.59958467558E+02  0.71296577493E+02  0.13105063464E+04  0.15294330000E+03 0.  0.
<mgrwt>
<rscale>  0 0.13085655E+04</rscale>
<asrwt>0</asrwt>
<pdfrwt beam="1">  1        2 0.40624176E+00 0.13085655E+04</pdfrwt>
<pdfrwt beam="2">  1       -2 0.13888059E+00 0.13085655E+04</pdfrwt>
<totfact> 0.10217321E+00</totfact>
</mgrwt>
</event>
<event>
 4    1  0.5387657E-008  0.5238240E+03  0.7818608E-02  0.1007741E+00
         -2   -1    0    0    0  501 -0.00000000000E+00  0.00000000000E+00  0.91466776574E+02  0.91466776609E+02  0.25500000000E-02 0.  1.
          2   -1    0    0  501    0  0.00000000000E+00 -0.00000000000E+00 -0.34090938996E+04  0.34090938996E+04  0.25500000000E-02 0. -1.
    8880022    1    1    2    0    0  0.48053386560E+03  0.14172900533E+03 -0.22652014538E+04  0.23249793948E+04  0.15294330000E+03 0.  0.
    8880022    1    1    2    0    0 -0.48053386560E+03 -0.14172900533E+03 -0.10524256692E+04  0.11755812814E+04  0.15294330000E+03 0.  0.
<mgrwt>
<rscale>  0 0.52382398E+03</rscale>
<asrwt>0</asrwt>
<pdfrwt beam="1">  1        2 0.52447589E+00 0.52382398E+03</pdfrwt>
<pdfrwt beam="2">  1       -2 0.14071814E-01 0.52382398E+03</pdfrwt>
<totfact> 0.41035576E+01</totfact>
</mgrwt>
</event>
<event>
 4    1  0.5387657E-008  0.4289054E+03  0.7818608E-02  0.1034206E+00
         -2   -1    0    0    0  501 -0.00000000000E+00  0.00000000000E+00  0.12301561069E+04  0.12301561069E+04  0.25500000000E-02 0.  1.
          2   -1    0    0  501    0  0.00000000000E+00 -0.00000000000E+00 -0.18025853482E+04  0.18025853482E+04  0.25500000000E-02 0. -1.
    8880022    1    1    2    0    0  0.39010038886E+03  0.91596408837E+02 -0.17383249324E+04  0.17904562098E+04  0.15294330000E+03 0.  0.
    8880022    1    1    2    0    0 -0.39010038886E+03 -0.91596408837E+02  0.11658956911E+04  0.12422852454E+04  0.15294330000E+03 0.  1.
<mgrwt>
<rscale>  0 0.42890543E+03</rscale>
<asrwt>0</asrwt>
<pdfrwt beam="1">  1        2 0.27732082E+00 0.42890543E+03</pdfrwt>
<pdfrwt beam="2">  1       -2 0.18925479E+00 0.42890543E+03</pdfrwt>
<totfact> 0.15175492E+00</totfact>
</mgrwt>
</event>
<event>
 4    1  0.5387657E-008  0.3791425E+03  0.7818608E-02  0.1051251E+00
          2   -1    0    0  501    0  0.00000000000E+00  0.00000000000E+00  0.69764563146E+03  0.69764563147E+03  0.25500000000E-02 0. -1.
         -2   -1    0    0    0  501 -0.00000000000E+00 -0.00000000000E+00 -0.36647716160E+03  0.36647716161E+03  0.25500000000E-02 0.  1.
    8880022    1    1    2    0    0  0.18780498404E+03 -0.29169623276E+03  0.51761356017E+03  0.64161737424E+03  0.15294330000E+03 0.  0.
    8880022    1    1    2    0    0 -0.18780498404E+03  0.29169623276E+03 -0.18644509031E+03  0.42250541884E+03  0.15294330000E+03 0.  0.
<mgrwt>
<rscale>  0 0.37914253E+03</rscale>
<asrwt>0</asrwt>
<pdfrwt beam="1">  1        2 0.10733010E+00 0.37914253E+03</pdfrwt>
<pdfrwt beam="2">  1       -2 0.56381102E-01 0.37914253E+03</pdfrwt>
<totfact> 0.12644297E+02</totfact>
</mgrwt>
</event>
<event>
 4    1  0.5387657E-008  0.2486416E+03  0.7818608E-02  0.1114166E+00
         -2   -1    0    0    0  501 -0.00000000000E+00  0.00000000000E+00  0.24035065842E+03  0.24035065843E+03  0.25500000000E-02 0.  1.
          2   -1    0    0  501    0  0.00000000000E+00 -0.00000000000E+00 -0.67650940076E+03  0.67650940076E+03  0.25500000000E-02 0. -1.
    8880022    1    1    2    0    0 -0.19211627269E+03 -0.39017079679E+02  0.14282640569E+03  0.28674384024E+03  0.15294330000E+03 0.  0.
    8880022    1    1    2    0    0  0.19211627269E+03  0.39017079679E+02 -0.57898514803E+03  0.63011621896E+03  0.15294330000E+03 0. -1.
<mgrwt>
<rscale>  0 0.24864161E+03</rscale>
<asrwt>0</asrwt>
<pdfrwt beam="1">  1        2 0.10407837E+00 0.24864161E+03</pdfrwt>
<pdfrwt beam="2">  1       -2 0.36977025E-01 0.24864161E+03</pdfrwt>
<totfact> 0.30580140E+02</totfact>
</mgrwt>
</event>
<event>
 4    1  0.5387657E-008  0.2424850E+03  0.7818608E-02  0.1118148E+00
         -2   -1    0    0    0  501 -0.00000000000E+00  0.00000000000E+00  0.81693372222E+03  0.81693372222E+03  0.25500000000E-02 0.  1.
          2   -1    0    0  501    0  0.00000000000E+00 -0.00000000000E+00 -0.28110543092E+04  0.28110543092E+04  0.25500000000E-02 0. -1.
    8880022    1    1    2    0    0  0.12776224395E+03 -0.13814526625E+03 -0.27876806632E+04  0.27982070042E+04  0.15294330000E+03 0.  0.
    8880022    1    1    2    0    0 -0.12776224395E+03  0.13814526625E+03  0.79356007620E+03  0.82978102721E+03  0.15294330000E+03 0.  1.
<mgrwt>
<rscale>  0 0.24248497E+03</rscale>
<asrwt>0</asrwt>
<pdfrwt beam="1">  1        2 0.43246989E+00 0.24248497E+03</pdfrwt>
<pdfrwt beam="2">  1       -2 0.12568211E+00 0.24248497E+03</pdfrwt>
<totfact> 0.13845744E+00</totfact>
</mgrwt>
</event>
<event>
 4    1  0.5387657E-008  0.9917018E+03  0.7818608E-02  0.9317693E-01
          2   -1    0    0  501    0  0.00000000000E+00  0.00000000000E+00  0.19383905822E+04  0.19383905822E+04  0.25500000000E-02 0. -1.
         -2   -1    0    0    0  501 -0.00000000000E+00 -0.00000000000E+00 -0.10730423502E+04  0.10730423502E+04  0.25500000000E-02 0.  1.
    8880022    1    1    2    0    0 -0.62272109284E+03  0.75650459062E+03  0.15259228698E+04  0.18198662073E+04  0.15294330000E+03 0.  0.
    8880022    1    1    2    0    0  0.62272109284E+03 -0.75650459062E+03 -0.66057463780E+03  0.11915667250E+04  0.15294330000E+03 0.  0.
<mgrwt>
<rscale>  0 0.99170177E+03</rscale>
<asrwt>0</asrwt>
<pdfrwt beam="1">  1        2 0.29821393E+00 0.99170177E+03</pdfrwt>
<pdfrwt beam="2">  1       -2 0.16508344E+00 0.99170177E+03</pdfrwt>
<totfact> 0.16680300E+00</totfact>
</mgrwt>
</event>
<event>
 4    1  0.5387657E-008  0.5234078E+03  0.7818608E-02  0.1007844E+00
          2   -1    0    0  501    0  0.00000000000E+00  0.00000000000E+00  0.13087478577E+04  0.13087478577E+04  0.25500000000E-02 0. -1.
         -2   -1    0    0    0  501 -0.00000000000E+00 -0.00000000000E+00 -0.89785642324E+03  0.89785642324E+03  0.25500000000E-02 0.  1.
    8880022    1    1    2    0    0 -0.17381552444E+03  0.46941687335E+03  0.11716131707E+04  0.12832120293E+04  0.15294330000E+03 0.  0.
    8880022    1    1    2    0    0  0.17381552444E+03 -0.46941687335E+03 -0.76072173617E+03  0.92339225166E+03  0.15294330000E+03 0.  1.
<mgrwt>
<rscale>  0 0.52340777E+03</rscale>
<asrwt>0</asrwt>
<pdfrwt beam="1">  1        2 0.20134582E+00 0.52340777E+03</pdfrwt>
<pdfrwt beam="2">  1       -2 0.13813176E+00 0.52340777E+03</pdfrwt>
<totfact> 0.64529491E+00</totfact>
</mgrwt>
</event>
<event>
 4    1  0.5387657E-008  0.1595473E+04  0.7818608E-02  0.8823334E-01
          2   -1    0    0  501    0  0.00000000000E+00  0.00000000000E+00  0.34919210622E+04  0.34919210622E+04  0.25500000000E-02 0. -1.
         -2   -1    0    0    0  501 -0.00000000000E+00 -0.00000000000E+00 -0.74263106117E+03  0.74263106117E+03  0.25500000000E-02 0.  1.
    8880022    1    1    2    0    0 -0.15764775350E+04  0.19199551333E+03  0.10875681764E+04  0.19308909567E+04  0.15294330000E+03 0.  0.
    8880022    1    1    2    0    0  0.15764775350E+04 -0.19199551333E+03  0.16617218247E+04  0.23036611667E+04  0.15294330000E+03 0.  0.
<mgrwt>
<rscale>  0 0.15954734E+04</rscale>
<asrwt>0</asrwt>
<pdfrwt beam="1">  1        2 0.53721864E+00 0.15954734E+04</pdfrwt>
<pdfrwt beam="2">  1       -2 0.11425093E+00 0.15954734E+04</pdfrwt>
<totfact> 0.46808356E-01</totfact>
</mgrwt>
</event>
<event>
 4    1  0.5387657E-008  0.2864453E+03  0.7818608E-02  0.1092220E+00
          2   -1    0    0  501    0  0.00000000000E+00  0.00000000000E+00  0.20675570386E+04  0.20675570386E+04  0.25500000000E-02 0. -1.
         -2   -1    0    0    0  501 -0.00000000000E+00 -0.00000000000E+00 -0.11372706283E+03  0.11372706285E+03  0.25500000000E-02 0.  1.
    8880022    1    1    2    0    0 -0.39873202927E+02 -0.23889195097E+03  0.96900666577E+02  0.30239151567E+03  0.15294330000E+03 0.  1.
    8880022    1    1    2    0    0  0.39873202927E+02  0.23889195097E+03  0.18569293092E+04  0.18788925858E+04  0.15294330000E+03 0.  0.
<mgrwt>
<rscale>  0 0.28644526E+03</rscale>
<asrwt>0</asrwt>
<pdfrwt beam="1">  1        2 0.31808567E+00 0.28644526E+03</pdfrwt>
<pdfrwt beam="2">  1       -2 0.17496473E-01 0.28644526E+03</pdfrwt>
<totfact> 0.18120239E+02</totfact>
</mgrwt>
</event>
<event>
 4    1  0.5387657E-008  0.2769594E+03  0.7818608E-02  0.1097361E+00
         -2   -1    0    0    0  501 -0.00000000000E+00  0.00000000000E+00  0.96858810097E+02  0.96858810131E+02  0.25500000000E-02 0.  1.
          2   -1    0    0  501    0  0.00000000000E+00 -0.00000000000E+00 -0.15786347505E+04  0.15786347505E+04  0.25500000000E-02 0. -1.
    8880022    1    1    2    0    0  0.22644961936E+03 -0.45115571065E+02 -0.13322789397E+04  0.13607621655E+04  0.15294330000E+03 0.  0.
    8880022    1    1    2    0    0 -0.22644961936E+03  0.45115571065E+02 -0.14949700074E+03  0.31473139517E+03  0.15294330000E+03 0.  0.
<mgrwt>
<rscale>  0 0.27695938E+03</rscale>
<asrwt>0</asrwt>
<pdfrwt beam="1">  1        2 0.24286687E+00 0.27695938E+03</pdfrwt>
<pdfrwt beam="2">  1       -2 0.14901357E-01 0.27695938E+03</pdfrwt>
<totfact> 0.43027346E+02</totfact>
</mgrwt>
</event>
<event>
 4    1  0.5387657E-008  0.3764290E+03  0.7818608E-02  0.1052262E+00
         -2   -1    0    0    0  501 -0.00000000000E+00  0.00000000000E+00  0.40088629460E+03  0.40088629461E+03  0.25500000000E-02 0.  1.
          2   -1    0    0  501    0  0.00000000000E+00 -0.00000000000E+00 -0.63984318995E+03  0.63984318996E+03  0.25500000000E-02 0. -1.
    8880022    1    1    2    0    0  0.33321365572E+03 -0.85298320767E+02  0.22865196064E+03  0.44043219229E+03  0.15294330000E+03 0.  0.
    8880022    1    1    2    0    0 -0.33321365572E+03  0.85298320767E+02 -0.46760885600E+03  0.60029729227E+03  0.15294330000E+03 0. -1.
<mgrwt>
<rscale>  0 0.37642901E+03</rscale>
<asrwt>0</asrwt>
<pdfrwt beam="1">  1        2 0.98437414E-01 0.37642901E+03</pdfrwt>
<pdfrwt beam="2">  1       -2 0.61674815E-01 0.37642901E+03</pdfrwt>
<totfact> 0.11656414E+02</totfact>
</mgrwt>
</event>
<event>
 4    1  0.5387657E-008  0.1135715E+04  0.7818608E-02  0.9171064E-01
         -2   -1    0    0    0  501 -0.00000000000E+00  0.00000000000E+00  0.98808318442E+03  0.98808318442E+03  0.25500000000E-02 0.  1.
          2   -1    0    0  501    0  0.00000000000E+00 -0.00000000000E+00 -0.21829439520E+04  0.21829439520E+04  0.25500000000E-02 0. -1.
    8880022    1    1    2    0    0 -0.51174100305E+02  0.11242057130E+04  0.40783753329E+03  0.12067229924E+04  0.15294330000E+03 0.  0.
    8880022    1    1    2    0    0  0.51174100305E+02 -0.11242057130E+04 -0.16026983008E+04  0.19643041440E+04  0.15294330000E+03 0.  0.
<mgrwt>
<rscale>  0 0.11357152E+04</rscale>
<asrwt>0</asrwt>
<pdfrwt beam="1">  1        2 0.33583753E+00 0.11357152E+04</pdfrwt>
<pdfrwt beam="2">  1       -2 0.15201280E+00 0.11357152E+04</pdfrwt>
<totfact> 0.14994533E+00</totfact>
</mgrwt>
</event>
<event>
 4    1  0.5387657E-008  0.1145375E+04  0.7818608E-02  0.9162061E-01
         -2   -1    0    0    0  501 -0.00000000000E+00  0.00000000000E+00  0.10289450690E+04  0.10289450690E+04  0.25500000000E-02 0.  1.
          2   -1    0    0  501    0  0.00000000000E+00 -0.00000000000E+00 -0.18997170395E+04  0.18997170395E+04  0.25500000000E-02 0. -1.
    8880022    1    1    2    0    0 -0.27026348116E+03  0.11024742530E+04 -0.12751238689E+04  0.17140082736E+04  0.15294330000E+03 0.  0.
    8880022    1    1    2    0    0  0.27026348116E+03 -0.11024742530E+04  0.40435189841E+03  0.12146538349E+04  0.15294330000E+03 0.  0.
<mgrwt>
<rscale>  0 0.11453748E+04</rscale>
<asrwt>0</asrwt>
<pdfrwt beam="1">  1        2 0.29226416E+00 0.11453748E+04</pdfrwt>
<pdfrwt beam="2">  1       -2 0.15829924E+00 0.11453748E+04</pdfrwt>
<totfact> 0.19271704E+00</totfact>
</mgrwt>
</event>
<event>
 4    1  0.5387657E-008  0.2492001E+03  0.7818608E-02  0.1113811E+00
         -2   -1    0    0    0  501 -0.00000000000E+00  0.00000000000E+00  0.11653004391E+03  0.11653004393E+03  0.25500000000E-02 0.  1.
          2   -1    0    0  501    0  0.00000000000E+00 -0.00000000000E+00 -0.68318316565E+03  0.68318316566E+03  0.25500000000E-02 0. -1.
    8880022    1    1    2    0    0  0.14307763803E+03  0.13504754907E+03 -0.95797749064E+02  0.26697923656E+03  0.15294330000E+03 0.  0.
    8880022    1    1    2    0    0 -0.14307763803E+03 -0.13504754907E+03 -0.47085537268E+03  0.53273397302E+03  0.15294330000E+03 0.  0.
<mgrwt>
<rscale>  0 0.24920013E+03</rscale>
<asrwt>0</asrwt>
<pdfrwt beam="1">  1        2 0.10510510E+00 0.24920013E+03</pdfrwt>
<pdfrwt beam="2">  1       -2 0.17927699E-01 0.24920013E+03</pdfrwt>
<totfact> 0.10969525E+03</totfact>
</mgrwt>
</event>
<event>
 4    1  0.5387657E-008  0.3128856E+03  0.7818608E-02  0.1078971E+00
          2   -1    0    0  501    0  0.00000000000E+00  0.00000000000E+00  0.29004111376E+04  0.29004111376E+04  0.25500000000E-02 0. -1.
         -2   -1    0    0    0  501 -0.00000000000E+00 -0.00000000000E+00 -0.95316532340E+02  0.95316532375E+02  0.25500000000E-02 0.  1.
    8880022    1    1    2    0    0 -0.24157049179E+03 -0.12708034104E+03  0.19875867294E+03  0.37067826840E+03  0.15294330000E+03 0.  1.
    8880022    1    1    2    0    0  0.24157049179E+03  0.12708034104E+03  0.26063359324E+04  0.26250494016E+04  0.15294330000E+03 0.  0.
<mgrwt>
<rscale>  0 0.31288555E+03</rscale>
<asrwt>0</asrwt>
<pdfrwt beam="1">  1        2 0.44621713E+00 0.31288555E+03</pdfrwt>
<pdfrwt beam="2">  1       -2 0.14664081E-01 0.31288555E+03</pdfrwt>
<totfact> 0.83920886E+01</totfact>
</mgrwt>
</event>
<event>
 4    1  0.5387657E-008  0.3961814E+03  0.7818608E-02  0.1045110E+00
          2   -1    0    0  501    0  0.00000000000E+00  0.00000000000E+00  0.95856803738E+03  0.95856803738E+03  0.25500000000E-02 0. -1.
         -2   -1    0    0    0  501 -0.00000000000E+00 -0.00000000000E+00 -0.31092039080E+03  0.31092039081E+03  0.25500000000E-02 0.  1.
    8880022    1    1    2    0    0  0.20397513917E+03  0.30325273368E+03 -0.11288631545E+03  0.41195030176E+03  0.15294330000E+03 0.  0.
    8880022    1    1    2    0    0 -0.20397513917E+03 -0.30325273368E+03  0.76053396203E+03  0.85753812644E+03  0.15294330000E+03 0. -1.
<mgrwt>
<rscale>  0 0.39618144E+03</rscale>
<asrwt>0</asrwt>
<pdfrwt beam="1">  1        2 0.14747200E+00 0.39618144E+03</pdfrwt>
<pdfrwt beam="2">  1       -2 0.47833907E-01 0.39618144E+03</pdfrwt>
<totfact> 0.11615716E+02</totfact>
</mgrwt>
</event>
<event>
 4    1  0.5387657E-008  0.8262521E+03  0.7818608E-02  0.9522777E-01
          2   -1    0    0  501    0  0.00000000000E+00  0.00000000000E+00  0.27859429818E+04  0.27859429818E+04  0.25500000000E-02 0. -1.
         -2   -1    0    0    0  501 -0.00000000000E+00 -0.00000000000E+00 -0.77166626752E+03  0.77166626753E+03  0.25500000000E-02 0.  1.
    8880022    1    1    2    0    0 -0.66921268421E+03  0.45984268665E+03  0.24766094121E+04  0.26108019354E+04  0.15294330000E+03 0.  0.
    8880022    1    1    2    0    0  0.66921268421E+03 -0.45984268665E+03 -0.46233269779E+03  0.94680731388E+03  0.15294330000E+03 0.  0.
<mgrwt>
<rscale>  0 0.82625212E+03</rscale>
<asrwt>0</asrwt>
<pdfrwt beam="1">  1        2 0.42860661E+00 0.82625212E+03</pdfrwt>
<pdfrwt beam="2">  1       -2 0.11871789E+00 0.82625212E+03</pdfrwt>
<totfact> 0.13428128E+00</totfact>
</mgrwt>
</event>
<event>
 4    1  0.5387657E-008  0.3642226E+03  0.7818608E-02  0.1056924E+00
          2   -1    0    0  501    0  0.00000000000E+00  0.00000000000E+00  0.26451809970E+03  0.26451809971E+03  0.25500000000E-02 0. -1.
         -2   -1    0    0    0  501 -0.00000000000E+00 -0.00000000000E+00 -0.56845925734E+03  0.56845925735E+03  0.25500000000E-02 0.  1.
    8880022    1    1    2    0    0  0.20704882216E+03  0.25767658029E+03 -0.29490312290E+03  0.46864265672E+03  0.15294330000E+03 0.  1.
    8880022    1    1    2    0    0 -0.20704882216E+03 -0.25767658029E+03 -0.90380347489E+01  0.36433470034E+03  0.15294330000E+03 0.  0.
<mgrwt>
<rscale>  0 0.36422258E+03</rscale>
<asrwt>0</asrwt>
<pdfrwt beam="1">  1        2 0.40695092E-01 0.36422258E+03</pdfrwt>
<pdfrwt beam="2">  1       -2 0.87455270E-01 0.36422258E+03</pdfrwt>
<totfact> 0.14649748E+02</totfact>
</mgrwt>
</event>
<event>
 4    1  0.5387657E-008  0.2487762E+03  0.7818608E-02  0.1114081E+00
          2   -1    0    0  501    0  0.00000000000E+00  0.00000000000E+00  0.81759469525E+02  0.81759469564E+02  0.25500000000E-02 0. -1.
         -2   -1    0    0    0  501 -0.00000000000E+00 -0.00000000000E+00 -0.10384039616E+04  0.10384039617E+04  0.25500000000E-02 0.  1.
    8880022    1    1    2    0    0  0.14861614176E+03 -0.12810620970E+03 -0.76990048049E+03  0.80909601497E+03  0.15294330000E+03 0.  0.
    8880022    1    1    2    0    0 -0.14861614176E+03  0.12810620970E+03 -0.18674401163E+03  0.31106741625E+03  0.15294330000E+03 0.  0.
<mgrwt>
<rscale>  0 0.24877623E+03</rscale>
<asrwt>0</asrwt>
<pdfrwt beam="1">  1        2 0.12578381E-01 0.24877623E+03</pdfrwt>
<pdfrwt beam="2">  1       -2 0.15975445E+00 0.24877623E+03</pdfrwt>
<totfact> 0.13001370E+02</totfact>
</mgrwt>
</event>
<event>
 4    1  0.5387657E-008  0.2083321E+03  0.7818608E-02  0.1142894E+00
          2   -1    0    0  501    0  0.00000000000E+00  0.00000000000E+00  0.19645625818E+04  0.19645625818E+04  0.25500000000E-02 0. -1.
         -2   -1    0    0    0  501 -0.00000000000E+00 -0.00000000000E+00 -0.48007749212E+02  0.48007749279E+02  0.25500000000E-02 0.  1.
    8880022    1    1    2    0    0  0.13269818549E+03 -0.49008235250E+02  0.16976142937E+04  0.17103498352E+04  0.15294330000E+03 0.  0.
    8880022    1    1    2    0    0 -0.13269818549E+03  0.49008235250E+02  0.21894053891E+03  0.30222049591E+03  0.15294330000E+03 0.  0.
<mgrwt>
<rscale>  0 0.20833211E+03</rscale>
<asrwt>0</asrwt>
<pdfrwt beam="1">  1        2 0.30224038E+00 0.20833211E+03</pdfrwt>
<pdfrwt beam="2">  1       -2 0.73858079E-02 0.20833211E+03</pdfrwt>
<totfact> 0.83942012E+02</totfact>
</mgrwt>
</event>
<event>
 4    1  0.5387657E-008  0.4956553E+03  0.7818608E-02  0.1014919E+00
         -2   -1    0    0    0  501 -0.00000000000E+00  0.00000000000E+00  0.63610222019E+03  0.63610222019E+03  0.25500000000E-02 0.  1.
          2   -1    0    0  501    0  0.00000000000E+00 -0.00000000000E+00 -0.96691300170E+03  0.96691300171E+03  0.25500000000E-02 0. -1.
    8880022    1    1    2    0    0  0.79453950991E+02  0.46472530106E+03 -0.78654318923E+03  0.92969047393E+03  0.15294330000E+03 0.  0.
    8880022    1    1    2    0    0 -0.79453950991E+02 -0.46472530106E+03  0.45573240772E+03  0.67332474797E+03  0.15294330000E+03 0.  0.
<mgrwt>
<rscale>  0 0.49565531E+03</rscale>
<asrwt>0</asrwt>
<pdfrwt beam="1">  1        2 0.14875585E+00 0.49565531E+03</pdfrwt>
<pdfrwt beam="2">  1       -2 0.97861880E-01 0.49565531E+03</pdfrwt>
<totfact> 0.24114607E+01</totfact>
</mgrwt>
</event>
<event>
 4    1  0.5387657E-008  0.8848099E+03  0.7818608E-02  0.9444772E-01
          2   -1    0    0  501    0  0.00000000000E+00  0.00000000000E+00  0.10682159610E+04  0.10682159610E+04  0.25500000000E-02 0. -1.
         -2   -1    0    0    0  501 -0.00000000000E+00 -0.00000000000E+00 -0.11148156600E+04  0.11148156600E+04  0.25500000000E-02 0.  1.
    8880022    1    1    2    0    0  0.79152307855E+03  0.36467536287E+03  0.61557518473E+03  0.10778781774E+04  0.15294330000E+03 0.  0.
    8880022    1    1    2    0    0 -0.79152307855E+03 -0.36467536287E+03 -0.66217488374E+03  0.11051534436E+04  0.15294330000E+03 0.  0.
<mgrwt>
<rscale>  0 0.88480990E+03</rscale>
<asrwt>0</asrwt>
<pdfrwt beam="1">  1        2 0.16434092E+00 0.88480990E+03</pdfrwt>
<pdfrwt beam="2">  1       -2 0.17151010E+00 0.88480990E+03</pdfrwt>
<totfact> 0.47589857E+00</totfact>
</mgrwt>
</event>
<event>
 4    1  0.5387657E-008  0.3367812E+03  0.7818608E-02  0.1068175E+00
         -2   -1    0    0    0  501 -0.00000000000E+00  0.00000000000E+00  0.16821216116E+03  0.16821216118E+03  0.25500000000E-02 0.  1.
          2   -1    0    0  501    0  0.00000000000E+00 -0.00000000000E+00 -0.11474570026E+04  0.11474570026E+04  0.25500000000E-02 0. -1.
    8880022    1    1    2    0    0  0.25324917694E+03  0.16091849425E+03 -0.67185599817E+02  0.34341733394E+03  0.15294330000E+03 0.  0.
    8880022    1    1    2    0    0 -0.25324917694E+03 -0.16091849425E+03 -0.91205924165E+03  0.97225182988E+03  0.15294330000E+03 0.  0.
<mgrwt>
<rscale>  0 0.33678118E+03</rscale>
<asrwt>0</asrwt>
<pdfrwt beam="1">  1        2 0.17653184E+00 0.33678118E+03</pdfrwt>
<pdfrwt beam="2">  1       -2 0.25878795E-01 0.33678118E+03</pdfrwt>
<totfact> 0.28618465E+02</totfact>
</mgrwt>
</event>
<event>
 4    1  0.5387657E-008  0.4178589E+03  0.7818608E-02  0.1037765E+00
          2   -1    0    0  501    0  0.00000000000E+00  0.00000000000E+00  0.32487756438E+04  0.32487756438E+04  0.25500000000E-02 0. -1.
         -2   -1    0    0    0  501 -0.00000000000E+00 -0.00000000000E+00 -0.67178648706E+02  0.67178648754E+02  0.25500000000E-02 0.  1.
    8880022    1    1    2    0    0 -0.27978947767E+03  0.27005980084E+03  0.84939155498E+03  0.94661085696E+03  0.15294330000E+03 0.  0.
    8880022    1    1    2    0    0  0.27978947767E+03 -0.27005980084E+03  0.23322054402E+04  0.23693434356E+04  0.15294330000E+03 0.  0.
<mgrwt>
<rscale>  0 0.41785895E+03</rscale>
<asrwt>0</asrwt>
<pdfrwt beam="1">  1        2 0.49981176E+00 0.41785895E+03</pdfrwt>
<pdfrwt beam="2">  1       -2 0.10335174E-01 0.41785895E+03</pdfrwt>
<totfact> 0.88674069E+01</totfact>
</mgrwt>
</event>
<event>
 4    1  0.5387657E-008  0.3426121E+03  0.7818608E-02  0.1065689E+00
         -2   -1    0    0    0  501 -0.00000000000E+00  0.00000000000E+00  0.15529968483E+03  0.15529968485E+03  0.25500000000E-02 0.  1.
          2   -1    0    0  501    0  0.00000000000E+00 -0.00000000000E+00 -0.16106711034E+04  0.16106711034E+04  0.25500000000E-02 0. -1.
    8880022    1    1    2    0    0  0.15846434137E+03  0.26245088124E+03 -0.13709479111E+04  0.14131104842E+04  0.15294330000E+03 0.  0.
    8880022    1    1    2    0    0 -0.15846434137E+03 -0.26245088124E+03 -0.84423507453E+02  0.35286030405E+03  0.15294330000E+03 0.  0.
<mgrwt>
<rscale>  0 0.34261212E+03</rscale>
<asrwt>0</asrwt>
<pdfrwt beam="1">  1        2 0.24779554E+00 0.34261212E+03</pdfrwt>
<pdfrwt beam="2">  1       -2 0.23892260E-01 0.34261212E+03</pdfrwt>
<totfact> 0.18249830E+02</totfact>
</mgrwt>
</event>
<event>
 4    1  0.5387657E-008  0.2646968E+03  0.7818608E-02  0.1104354E+00
          2   -1    0    0  501    0  0.00000000000E+00  0.00000000000E+00  0.67290009101E+03  0.67290009102E+03  0.25500000000E-02 0. -1.
         -2   -1    0    0    0  501 -0.00000000000E+00 -0.00000000000E+00 -0.93337112036E+03  0.93337112037E+03  0.25500000000E-02 0.  1.
    8880022    1    1    2    0    0  0.17829057309E+03 -0.12200496983E+03  0.62677853779E+03  0.68037910724E+03  0.15294330000E+03 0. -1.
    8880022    1    1    2    0    0 -0.17829057309E+03  0.12200496983E+03 -0.88724956714E+03  0.92589210415E+03  0.15294330000E+03 0.  0.
<mgrwt>
<rscale>  0 0.26469680E+03</rscale>
<asrwt>0</asrwt>
<pdfrwt beam="1">  1        2 0.10352309E+00 0.26469680E+03</pdfrwt>
<pdfrwt beam="2">  1       -2 0.14359556E+00 0.26469680E+03</pdfrwt>
<totfact> 0.15879604E+01</totfact>
</mgrwt>
</event>
<event>
 4    1  0.5387657E-008  0.2579452E+03  0.7818608E-02  0.1108384E+00
         -2   -1    0    0    0  501 -0.00000000000E+00  0.00000000000E+00  0.18100599828E+03  0.18100599830E+03  0.25500000000E-02 0.  1.
          2   -1    0    0  501    0  0.00000000000E+00 -0.00000000000E+00 -0.14878882209E+04  0.14878882209E+04  0.25500000000E-02 0. -1.
    8880022    1    1    2    0    0 -0.19957176509E+03 -0.57577682084E+02 -0.13775114658E+04  0.14014540914E+04  0.15294330000E+03 0.  0.
    8880022    1    1    2    0    0  0.19957176509E+03  0.57577682084E+02  0.70629243253E+02  0.26744012772E+03  0.15294330000E+03 0.  0.
<mgrwt>
<rscale>  0 0.25794521E+03</rscale>
<asrwt>0</asrwt>
<pdfrwt beam="1">  1        2 0.22890587E+00 0.25794521E+03</pdfrwt>
<pdfrwt beam="2">  1       -2 0.27847078E-01 0.25794521E+03</pdfrwt>
<totfact> 0.16432555E+02</totfact>
</mgrwt>
</event>
<event>
 4    1  0.5387657E-008  0.4960625E+03  0.7818608E-02  0.1014812E+00
         -2   -1    0    0    0  501 -0.00000000000E+00  0.00000000000E+00  0.27428836438E+03  0.27428836440E+03  0.25500000000E-02 0.  1.
          2   -1    0    0  501    0  0.00000000000E+00 -0.00000000000E+00 -0.25089617276E+04  0.25089617276E+04  0.25500000000E-02 0. -1.
    8880022    1    1    2    0    0  0.36925895742E+03 -0.29382680416E+03 -0.22327408626E+04  0.22871838100E+04  0.15294330000E+03 0.  0.
    8880022    1    1    2    0    0 -0.36925895742E+03  0.29382680416E+03 -0.19325005960E+01  0.49606628191E+03  0.15294330000E+03 0.  0.
<mgrwt>
<rscale>  0 0.49606252E+03</rscale>
<asrwt>0</asrwt>
<pdfrwt beam="1">  1        2 0.38599410E+00 0.49606252E+03</pdfrwt>
<pdfrwt beam="2">  1       -2 0.42198212E-01 0.49606252E+03</pdfrwt>
<totfact> 0.20097404E+01</totfact>
</mgrwt>
</event>
<event>
 4    1  0.5387657E-008  0.2255794E+03  0.7818608E-02  0.1129790E+00
          2   -1    0    0  501    0  0.00000000000E+00  0.00000000000E+00  0.33924842793E+04  0.33924842793E+04  0.25500000000E-02 0. -1.
         -2   -1    0    0    0  501 -0.00000000000E+00 -0.00000000000E+00 -0.52444579432E+03  0.52444579432E+03  0.25500000000E-02 0.  1.
    8880022    1    1    2    0    0  0.14554234636E+02  0.16517441454E+03 -0.49623564361E+03  0.54510171525E+03  0.15294330000E+03 0.  0.
    8880022    1    1    2    0    0 -0.14554234636E+02 -0.16517441454E+03  0.33642741286E+04  0.33718283584E+04  0.15294330000E+03 0.  0.
<mgrwt>
<rscale>  0 0.22557940E+03</rscale>
<asrwt>0</asrwt>
<pdfrwt beam="1">  1        2 0.52192067E+00 0.22557940E+03</pdfrwt>
<pdfrwt beam="2">  1       -2 0.80683967E-01 0.22557940E+03</pdfrwt>
<totfact> 0.17565807E+00</totfact>
</mgrwt>
</event>
<event>
 4    1  0.5387657E-008  0.3342969E+03  0.7818608E-02  0.1069251E+00
          2   -1    0    0  501    0  0.00000000000E+00  0.00000000000E+00  0.29479163828E+04  0.29479163828E+04  0.25500000000E-02 0. -1.
         -2   -1    0    0    0  501 -0.00000000000E+00 -0.00000000000E+00 -0.22306070885E+03  0.22306070887E+03  0.25500000000E-02 0.  1.
    8880022    1    1    2    0    0 -0.69394269332E+02  0.28904535270E+03  0.28069183295E+04  0.28267551967E+04  0.15294330000E+03 0. -1.
    8880022    1    1    2    0    0  0.69394269332E+02 -0.28904535270E+03 -0.82062655547E+02  0.34422189498E+03  0.15294330000E+03 0.  0.
<mgrwt>
<rscale>  0 0.33429692E+03</rscale>
<asrwt>0</asrwt>
<pdfrwt beam="1">  1        2 0.45352558E+00 0.33429692E+03</pdfrwt>
<pdfrwt beam="2">  1       -2 0.34317034E-01 0.33429692E+03</pdfrwt>
<totfact> 0.17550449E+01</totfact>
</mgrwt>
</event>
<event>
 4    1  0.5387657E-008  0.5225080E+03  0.7818608E-02  0.1008065E+00
         -2   -1    0    0    0  501 -0.00000000000E+00  0.00000000000E+00  0.17480143488E+03  0.17480143490E+03  0.25500000000E-02 0.  1.
          2   -1    0    0  501    0  0.00000000000E+00 -0.00000000000E+00 -0.36736625581E+04  0.36736625581E+04  0.25500000000E-02 0. -1.
    8880022    1    1    2    0    0  0.53495627312E+02  0.49675057843E+03 -0.32083621427E+04  0.32506310481E+04  0.15294330000E+03 0.  0.
    8880022    1    1    2    0    0 -0.53495627312E+02 -0.49675057843E+03 -0.29049898058E+03  0.59783294493E+03  0.15294330000E+03 0.  0.
<mgrwt>
<rscale>  0 0.52250796E+03</rscale>
<asrwt>0</asrwt>
<pdfrwt beam="1">  1        2 0.56517880E+00 0.52250796E+03</pdfrwt>
<pdfrwt beam="2">  1       -2 0.26892531E-01 0.52250796E+03</pdfrwt>
<totfact> 0.87984004E+00</totfact>
</mgrwt>
</event>
<event>
 4    1  0.5387657E-008  0.2841900E+03  0.7818608E-02  0.1093422E+00
          2   -1    0    0  501    0  0.00000000000E+00  0.00000000000E+00  0.14210204514E+04  0.14210204514E+04  0.25500000000E-02 0. -1.
         -2   -1    0    0    0  501 -0.00000000000E+00 -0.00000000000E+00 -0.72496170848E+02  0.72496170892E+02  0.25500000000E-02 0.  1.
    8880022    1    1    2    0    0  0.22385896847E+03 -0.85202330156E+02  0.10213443835E+04  0.10601454040E+04  0.15294330000E+03 0.  0.
    8880022    1    1    2    0    0 -0.22385896847E+03  0.85202330156E+02  0.32717989707E+03  0.43337121835E+03  0.15294330000E+03 0.  0.
<mgrwt>
<rscale>  0 0.28418995E+03</rscale>
<asrwt>0</asrwt>
<pdfrwt beam="1">  1        2 0.21861852E+00 0.28418995E+03</pdfrwt>
<pdfrwt beam="2">  1       -2 0.11153258E-01 0.28418995E+03</pdfrwt>
<totfact> 0.83904513E+02</totfact>
</mgrwt>
</event>
<event>
 4    1  0.5387657E-008  0.9492250E+03  0.7818608E-02  0.9366057E-01
         -2   -1    0    0    0  501 -0.00000000000E+00  0.00000000000E+00  0.14650767472E+04  0.14650767472E+04  0.25500000000E-02 0.  1.
          2   -1    0    0  501    0  0.00000000000E+00 -0.00000000000E+00 -0.12849328278E+04  0.12849328278E+04  0.25500000000E-02 0. -1.
    8880022    1    1    2    0    0 -0.92324884685E+03 -0.15889640649E+03  0.10829097749E+04  0.14400422684E+04  0.15294330000E+03 0.  0.
    8880022    1    1    2    0    0  0.92324884685E+03  0.15889640649E+03 -0.90276585553E+03  0.13099673065E+04  0.15294330000E+03 0.  0.
<mgrwt>
<rscale>  0 0.94922503E+03</rscale>
<asrwt>0</asrwt>
<pdfrwt beam="1">  1        2 0.19768197E+00 0.94922503E+03</pdfrwt>
<pdfrwt beam="2">  1       -2 0.22539642E+00 0.94922503E+03</pdfrwt>
<totfact> 0.15435958E+00</totfact>
</mgrwt>
</event>
<event>
 4    1  0.5387657E-008  0.8216153E+03  0.7818608E-02  0.9529246E-01
          2   -1    0    0  501    0  0.00000000000E+00  0.00000000000E+00  0.26043534599E+04  0.26043534599E+04  0.25500000000E-02 0. -1.
         -2   -1    0    0    0  501 -0.00000000000E+00 -0.00000000000E+00 -0.48286930435E+03  0.48286930436E+03  0.25500000000E-02 0.  1.
    8880022    1    1    2    0    0 -0.49002303068E+03 -0.64151190241E+03  0.21113123948E+04  0.22655444761E+04  0.15294330000E+03 0.  0.
    8880022    1    1    2    0    0  0.49002303068E+03  0.64151190241E+03  0.10171760719E+02  0.82167828818E+03  0.15294330000E+03 0.  0.
<mgrwt>
<rscale>  0 0.82161533E+03</rscale>
<asrwt>0</asrwt>
<pdfrwt beam="1">  1        2 0.40066977E+00 0.82161533E+03</pdfrwt>
<pdfrwt beam="2">  1       -2 0.74287585E-01 0.82161533E+03</pdfrwt>
<totfact> 0.51317159E+00</totfact>
</mgrwt>
</event>
<event>
 4    1  0.5387657E-008  0.2795947E+03  0.7818608E-02  0.1095911E+00
         -2   -1    0    0    0  501 -0.00000000000E+00  0.00000000000E+00  0.30795205795E+03  0.30795205796E+03  0.25500000000E-02 0.  1.
          2   -1    0    0  501    0  0.00000000000E+00 -0.00000000000E+00 -0.10574295407E+04  0.10574295407E+04  0.25500000000E-02 0. -1.
    8880022    1    1    2    0    0  0.10285655021E+03 -0.21024283286E+03 -0.96987055679E+03  0.10093671624E+04  0.15294330000E+03 0.  0.
    8880022    1    1    2    0    0 -0.10285655021E+03  0.21024283286E+03  0.22039307405E+03  0.35601443621E+03  0.15294330000E+03 0.  1.
<mgrwt>
<rscale>  0 0.27959466E+03</rscale>
<asrwt>0</asrwt>
<pdfrwt beam="1">  1        2 0.16268147E+00 0.27959466E+03</pdfrwt>
<pdfrwt beam="2">  1       -2 0.47377240E-01 0.27959466E+03</pdfrwt>
<totfact> 0.10477360E+02</totfact>
</mgrwt>
</event>
<event>
 4    1  0.5387657E-008  0.4686641E+03  0.7818608E-02  0.1022298E+00
          2   -1    0    0  501    0  0.00000000000E+00  0.00000000000E+00  0.25685136466E+03  0.25685136468E+03  0.25500000000E-02 0. -1.
         -2   -1    0    0    0  501 -0.00000000000E+00 -0.00000000000E+00 -0.10378306897E+04  0.10378306897E+04  0.25500000000E-02 0.  1.
    8880022    1    1    2    0    0  0.44095774541E+03  0.42551452718E+02 -0.11889689589E+03  0.48351058337E+03  0.15294330000E+03 0.  0.
    8880022    1    1    2    0    0 -0.44095774541E+03 -0.42551452718E+02 -0.66208242910E+03  0.81117147096E+03  0.15294330000E+03 0.  0.
<mgrwt>
<rscale>  0 0.46866407E+03</rscale>
<asrwt>0</asrwt>
<pdfrwt beam="1">  1        2 0.39515595E-01 0.46866407E+03</pdfrwt>
<pdfrwt beam="2">  1       -2 0.15966626E+00 0.46866407E+03</pdfrwt>
<totfact> 0.34259934E+01</totfact>
</mgrwt>
</event>
<event>
 4    1  0.5387657E-008  0.4981615E+03  0.7818608E-02  0.1014260E+00
          2   -1    0    0  501    0  0.00000000000E+00  0.00000000000E+00  0.10632696489E+04  0.10632696489E+04  0.25500000000E-02 0. -1.
         -2   -1    0    0    0  501 -0.00000000000E+00 -0.00000000000E+00 -0.40044490390E+03  0.40044490391E+03  0.25500000000E-02 0.  1.
    8880022    1    1    2    0    0  0.30740266856E+03  0.36093884332E+03  0.80410013179E+03  0.94590798930E+03  0.15294330000E+03 0.  0.
    8880022    1    1    2    0    0 -0.30740266856E+03 -0.36093884332E+03 -0.14127538683E+03  0.51780656349E+03  0.15294330000E+03 0.  0.
<mgrwt>
<rscale>  0 0.49816152E+03</rscale>
<asrwt>0</asrwt>
<pdfrwt beam="1">  1        2 0.16357994E+00 0.49816152E+03</pdfrwt>
<pdfrwt beam="2">  1       -2 0.61606909E-01 0.49816152E+03</pdfrwt>
<totfact> 0.58658012E+01</totfact>
</mgrwt>
</event>
<event>
 4    1  0.5387657E-008  0.4944201E+03  0.7818608E-02  0.1015246E+00
         -2   -1    0    0    0  501 -0.00000000000E+00  0.00000000000E+00  0.31995913517E+03  0.31995913518E+03  0.25500000000E-02 0.  1.
          2   -1    0    0  501    0  0.00000000000E+00 -0.00000000000E+00 -0.93572629986E+03  0.93572629987E+03  0.25500000000E-02 0. -1.
    8880022    1    1    2    0    0 -0.47001805640E+03  0.11943611420E+02 -0.38925263763E+02  0.49595005027E+03  0.15294330000E+03 0.  0.
    8880022    1    1    2    0    0  0.47001805640E+03 -0.11943611420E+02 -0.57684190093E+03  0.75973538477E+03  0.15294330000E+03 0.  0.
<mgrwt>
<rscale>  0 0.49442014E+03</rscale>
<asrwt>0</asrwt>
<pdfrwt beam="1">  1        2 0.14395789E+00 0.49442014E+03</pdfrwt>
<pdfrwt beam="2">  1       -2 0.49224483E-01 0.49442014E+03</pdfrwt>
<totfact> 0.11216723E+02</totfact>
</mgrwt>
</event>
<event>
 4    1  0.5387657E-008  0.5660051E+03  0.7818608E-02  0.9978558E-01
         -2   -1    0    0    0  501 -0.00000000000E+00  0.00000000000E+00  0.54087753104E+03  0.54087753105E+03  0.25500000000E-02 0.  1.
          2   -1    0    0  501    0  0.00000000000E+00 -0.00000000000E+00 -0.10779030614E+04  0.10779030614E+04  0.25500000000E-02 0. -1.
    8880022    1    1    2    0    0 -0.40290772185E+03  0.36692714020E+03  0.27474858340E+03  0.62916499873E+03  0.15294330000E+03 0.  1.
    8880022    1    1    2    0    0  0.40290772185E+03 -0.36692714020E+03 -0.81177411374E+03  0.98961559370E+03  0.15294330000E+03 0.  0.
<mgrwt>
<rscale>  0 0.56600513E+03</rscale>
<asrwt>0</asrwt>
<pdfrwt beam="1">  1        2 0.16583124E+00 0.56600513E+03</pdfrwt>
<pdfrwt beam="2">  1       -2 0.83211928E-01 0.56600513E+03</pdfrwt>
<totfact> 0.29540510E+01</totfact>
</mgrwt>
</event>
<event>
 4    1  0.5387657E-008  0.6240225E+03  0.7818608E-02  0.9856783E-01
         -2   -1    0    0    0  501 -0.00000000000E+00  0.00000000000E+00  0.21685134161E+03  0.21685134163E+03  0.25500000000E-02 0.  1.
          2   -1    0    0  501    0  0.00000000000E+00 -0.00000000000E+00 -0.21134842234E+04  0.21134842234E+04  0.25500000000E-02 0. -1.
    8880022    1    1    2    0    0  0.24206994307E+03  0.55444983683E+03 -0.49652087535E+03  0.79745665184E+03  0.15294330000E+03 0.  0.
    8880022    1    1    2    0    0 -0.24206994307E+03 -0.55444983683E+03 -0.14001120064E+04  0.15328789132E+04  0.15294330000E+03 0.  0.
<mgrwt>
<rscale>  0 0.62402254E+03</rscale>
<asrwt>0</asrwt>
<pdfrwt beam="1">  1        2 0.32515140E+00 0.62402254E+03</pdfrwt>
<pdfrwt beam="2">  1       -2 0.33361746E-01 0.62402254E+03</pdfrwt>
<totfact> 0.50883856E+01</totfact>
</mgrwt>
</event>
<event>
 4    1  0.5387657E-008  0.3696784E+03  0.7818608E-02  0.1054816E+00
          2   -1    0    0  501    0  0.00000000000E+00  0.00000000000E+00  0.54333539058E+03  0.54333539059E+03  0.25500000000E-02 0. -1.
         -2   -1    0    0    0  501 -0.00000000000E+00 -0.00000000000E+00 -0.27512551775E+03  0.27512551776E+03  0.25500000000E-02 0.  1.
    8880022    1    1    2    0    0 -0.52109531309E+02  0.33249825564E+03  0.25396324619E+03  0.44850805643E+03  0.15294330000E+03 0.  0.
    8880022    1    1    2    0    0  0.52109531309E+02 -0.33249825564E+03  0.14246626643E+02  0.36995285192E+03  0.15294330000E+03 0.  0.
<mgrwt>
<rscale>  0 0.36967844E+03</rscale>
<asrwt>0</asrwt>
<pdfrwt beam="1">  1        2 0.83590060E-01 0.36967844E+03</pdfrwt>
<pdfrwt beam="2">  1       -2 0.42327003E-01 0.36967844E+03</pdfrwt>
<totfact> 0.30277601E+02</totfact>
</mgrwt>
</event>
<event>
 4    1  0.5387657E-008  0.6850713E+03  0.7818608E-02  0.9743108E-01
          2   -1    0    0  501    0  0.00000000000E+00  0.00000000000E+00  0.15656951979E+04  0.15656951979E+04  0.25500000000E-02 0. -1.
         -2   -1    0    0    0  501 -0.00000000000E+00 -0.00000000000E+00 -0.50900140667E+03  0.50900140667E+03  0.25500000000E-02 0.  1.
    8880022    1    1    2    0    0  0.65023673340E+03 -0.15206319917E+03  0.11934601892E+04  0.13761067917E+04  0.15294330000E+03 0.  0.
    8880022    1    1    2    0    0 -0.65023673340E+03  0.15206319917E+03 -0.13676639796E+03  0.69858981286E+03  0.15294330000E+03 0.  0.
<mgrwt>
<rscale>  0 0.68507129E+03</rscale>
<asrwt>0</asrwt>
<pdfrwt beam="1">  1        2 0.24087618E+00 0.68507129E+03</pdfrwt>
<pdfrwt beam="2">  1       -2 0.78307911E-01 0.68507129E+03</pdfrwt>
<totfact> 0.17485301E+01</totfact>
</mgrwt>
</event>
<event>
 4    1  0.5387657E-008  0.3396920E+03  0.7818608E-02  0.1066927E+00
         -2   -1    0    0    0  501 -0.00000000000E+00  0.00000000000E+00  0.13880947476E+03  0.13880947478E+03  0.25500000000E-02 0.  1.
          2   -1    0    0  501    0  0.00000000000E+00 -0.00000000000E+00 -0.26878581593E+04  0.26878581593E+04  0.25500000000E-02 0. -1.
    8880022    1    1    2    0    0 -0.72770124064E+02  0.29445457181E+03 -0.24491440142E+04  0.24725891371E+04  0.15294330000E+03 0.  0.
    8880022    1    1    2    0    0  0.72770124064E+02 -0.29445457181E+03 -0.99904670325E+02  0.35407849692E+03  0.15294330000E+03 0.  0.
<mgrwt>
<rscale>  0 0.33969198E+03</rscale>
<asrwt>0</asrwt>
<pdfrwt beam="1">  1        2 0.41351660E+00 0.33969198E+03</pdfrwt>
<pdfrwt beam="2">  1       -2 0.21355306E-01 0.33969198E+03</pdfrwt>
<totfact> 0.58241354E+01</totfact>
</mgrwt>
</event>
<event>
 4    1  0.5387657E-008  0.1007706E+04  0.7818608E-02  0.9300133E-01
          2   -1    0    0  501    0  0.00000000000E+00  0.00000000000E+00  0.21309631665E+04  0.21309631665E+04  0.25500000000E-02 0. -1.
         -2   -1    0    0    0  501 -0.00000000000E+00 -0.00000000000E+00 -0.50239068860E+03  0.50239068861E+03  0.25500000000E-02 0.  1.
    8880022    1    1    2    0    0 -0.80446697018E+03  0.58729270683E+03  0.51556625868E+03  0.11319364159E+04  0.15294330000E+03 0.  0.
    8880022    1    1    2    0    0  0.80446697018E+03 -0.58729270683E+03  0.11130062192E+04  0.15014174392E+04  0.15294330000E+03 0.  0.
<mgrwt>
<rscale>  0 0.10077060E+04</rscale>
<asrwt>0</asrwt>
<pdfrwt beam="1">  1        2 0.32784049E+00 0.10077060E+04</pdfrwt>
<pdfrwt beam="2">  1       -2 0.77290874E-01 0.10077060E+04</pdfrwt>
<totfact> 0.84592485E+00</totfact>
</mgrwt>
</event>
<event>
 4    1  0.5387657E-008  0.8995899E+03  0.7818608E-02  0.9426094E-01
         -2   -1    0    0    0  501 -0.00000000000E+00  0.00000000000E+00  0.87762243566E+03  0.87762243567E+03  0.25500000000E-02 0.  1.
          2   -1    0    0  501    0  0.00000000000E+00 -0.00000000000E+00 -0.11458929007E+04  0.11458929007E+04  0.25500000000E-02 0. -1.
    8880022    1    1    2    0    0  0.39956078031E+03  0.79134157349E+03 -0.58125170322E+03  0.10710347794E+04  0.15294330000E+03 0.  0.
    8880022    1    1    2    0    0 -0.39956078031E+03 -0.79134157349E+03  0.31298123815E+03  0.95248055704E+03  0.15294330000E+03 0. -1.
<mgrwt>
<rscale>  0 0.89958988E+03</rscale>
<asrwt>0</asrwt>
<pdfrwt beam="1">  1        2 0.17629122E+00 0.89958988E+03</pdfrwt>
<pdfrwt beam="2">  1       -2 0.13501884E+00 0.89958988E+03</pdfrwt>
<totfact> 0.80680034E+00</totfact>
</mgrwt>
</event>
<event>
 4    1  0.5387657E-008  0.8342770E+03  0.7818608E-02  0.9511686E-01
         -2   -1    0    0    0  501 -0.00000000000E+00  0.00000000000E+00  0.42890979808E+03  0.42890979809E+03  0.25500000000E-02 0.  1.
          2   -1    0    0  501    0  0.00000000000E+00 -0.00000000000E+00 -0.27987705050E+04  0.27987705050E+04  0.25500000000E-02 0. -1.
    8880022    1    1    2    0    0  0.79201574812E+03  0.21292618448E+03 -0.13880853551E+03  0.84574580570E+03  0.15294330000E+03 0.  0.
    8880022    1    1    2    0    0 -0.79201574812E+03 -0.21292618448E+03 -0.22310521714E+04  0.23819344973E+04  0.15294330000E+03 0.  0.
<mgrwt>
<rscale>  0 0.83427703E+03</rscale>
<asrwt>0</asrwt>
<pdfrwt beam="1">  1        2 0.43058006E+00 0.83427703E+03</pdfrwt>
<pdfrwt beam="2">  1       -2 0.65986125E-01 0.83427703E+03</pdfrwt>
<totfact> 0.51085184E+00</totfact>
</mgrwt>
</event>
<event>
 4    1  0.5387657E-008  0.4106209E+03  0.7818608E-02  0.1040163E+00
         -2   -1    0    0    0  501 -0.00000000000E+00  0.00000000000E+00  0.81725686524E+02  0.81725686563E+02  0.25500000000E-02 0.  1.
          2   -1    0    0  501    0  0.00000000000E+00 -0.00000000000E+00 -0.46570407614E+04  0.46570407614E+04  0.25500000000E-02 0. -1.
    8880022    1    1    2    0    0  0.32682444429E+03  0.19596847307E+03 -0.51934495500E+03  0.66206396603E+03  0.15294330000E+03 0.  0.
    8880022    1    1    2    0    0 -0.32682444429E+03 -0.19596847307E+03 -0.40559701199E+04  0.40767024819E+04  0.15294330000E+03 0. -1.
<mgrwt>
<rscale>  0 0.41062089E+03</rscale>
<asrwt>0</asrwt>
<pdfrwt beam="1">  1        2 0.71646760E+00 0.41062089E+03</pdfrwt>
<pdfrwt beam="2">  1       -2 0.12573186E-01 0.41062089E+03</pdfrwt>
<totfact> 0.51109159E+00</totfact>
</mgrwt>
</event>
<event>
 4    1  0.6046099E-008  0.1117613E+04  0.7818608E-02  0.9188194E-01
          2   -1    0    0  501    0  0.00000000000E+00  0.00000000000E+00  0.12876170068E+04  0.12876170068E+04  0.25500000000E-02 0. -1.
         -2   -1    0    0    0  501 -0.00000000000E+00 -0.00000000000E+00 -0.25448434829E+04  0.25448434829E+04  0.25500000000E-02 0.  1.
    8880022    1    1    2    0    0  0.24413624270E+03  0.10798442676E+04  0.87878647901E+03  0.14217325613E+04  0.15294330000E+03 0.  0.
    8880022    1    1    2    0    0 -0.24413624270E+03 -0.10798442676E+04 -0.21360129551E+04  0.24107279283E+04  0.15294330000E+03 0.  0.
<mgrwt>
<rscale>  0 0.11176125E+04</rscale>
<asrwt>0</asrwt>
<pdfrwt beam="1">  1        2 0.19809492E+00 0.11176125E+04</pdfrwt>
<pdfrwt beam="2">  1       -2 0.39151438E+00 0.11176125E+04</pdfrwt>
<totfact> 0.14120476E-01</totfact>
</mgrwt>
</event>
<event>
 4    1  0.5387657E-008  0.1986687E+03  0.7818608E-02  0.1150867E+00
          2   -1    0    0  501    0  0.00000000000E+00  0.00000000000E+00  0.65314993122E+03  0.65314993123E+03  0.25500000000E-02 0. -1.
         -2   -1    0    0    0  501 -0.00000000000E+00 -0.00000000000E+00 -0.10308199599E+03  0.10308199602E+03  0.25500000000E-02 0.  1.
    8880022    1    1    2    0    0 -0.23489412905E+02 -0.12460270429E+03  0.31809061090E+02  0.20119904527E+03  0.15294330000E+03 0.  0.
    8880022    1    1    2    0    0  0.23489412905E+02  0.12460270429E+03  0.51825887414E+03  0.55503288198E+03  0.15294330000E+03 0.  0.
<mgrwt>
<rscale>  0 0.19866867E+03</rscale>
<asrwt>0</asrwt>
<pdfrwt beam="1">  1        2 0.10048460E+00 0.19866867E+03</pdfrwt>
<pdfrwt beam="2">  1       -2 0.15858769E-01 0.19866867E+03</pdfrwt>
<totfact> 0.14191487E+03</totfact>
</mgrwt>
</event>
<event>
 4    1  0.5387657E-008  0.2317325E+03  0.7818608E-02  0.1125426E+00
          2   -1    0    0  501    0  0.00000000000E+00  0.00000000000E+00  0.21634448943E+04  0.21634448943E+04  0.25500000000E-02 0. -1.
         -2   -1    0    0    0  501 -0.00000000000E+00 -0.00000000000E+00 -0.40459214260E+03  0.40459214261E+03  0.25500000000E-02 0.  1.
    8880022    1    1    2    0    0 -0.48212130773E+02 -0.16728388409E+03  0.21234346142E+04  0.21360417882E+04  0.15294330000E+03 0.  0.
    8880022    1    1    2    0    0  0.48212130773E+02  0.16728388409E+03 -0.36458186247E+03  0.43199524868E+03  0.15294330000E+03 0.  0.
<mgrwt>
<rscale>  0 0.23173252E+03</rscale>
<asrwt>0</asrwt>
<pdfrwt beam="1">  1        2 0.33283768E+00 0.23173252E+03</pdfrwt>
<pdfrwt beam="2">  1       -2 0.62244945E-01 0.23173252E+03</pdfrwt>
<totfact> 0.15445563E+01</totfact>
</mgrwt>
</event>
<event>
 4    1  0.8302974E-008  0.1119977E+04  0.7818608E-02  0.9185936E-01
         -2   -1    0    0    0  501 -0.00000000000E+00  0.00000000000E+00  0.47342250221E+04  0.47342250221E+04  0.25500000000E-02 0.  1.
          2   -1    0    0  501    0  0.00000000000E+00 -0.00000000000E+00 -0.76090236118E+03  0.76090236118E+03  0.25500000000E-02 0. -1.
    8880022    1    1    2    0    0  0.23977928274E+03  0.10832651573E+04 -0.23154419131E+03  0.11436616069E+04  0.15294330000E+03 0.  0.
    8880022    1    1    2    0    0 -0.23977928274E+03 -0.10832651573E+04  0.42048668523E+04  0.43514657765E+04  0.15294330000E+03 0.  0.
<mgrwt>
<rscale>  0 0.11199773E+04</rscale>
<asrwt>0</asrwt>
<pdfrwt beam="1">  1        2 0.11706190E+00 0.11199773E+04</pdfrwt>
<pdfrwt beam="2">  1       -2 0.72834229E+00 0.11199773E+04</pdfrwt>
<totfact> 0.65637849E-03</totfact>
</mgrwt>
</event>
<event>
 4    1  0.5387657E-008  0.2064541E+03  0.7818608E-02  0.1144405E+00
          2   -1    0    0  501    0  0.00000000000E+00  0.00000000000E+00  0.11076446703E+04  0.11076446703E+04  0.25500000000E-02 0. -1.
         -2   -1    0    0    0  501 -0.00000000000E+00 -0.00000000000E+00 -0.40408489756E+02  0.40408489837E+02  0.25500000000E-02 0.  1.
    8880022    1    1    2    0    0 -0.10729420690E+03 -0.87861287133E+02  0.65898663286E+03  0.69056982842E+03  0.15294330000E+03 0. -1.
    8880022    1    1    2    0    0  0.10729420690E+03  0.87861287133E+02  0.40824954770E+03  0.45748333174E+03  0.15294330000E+03 0.  1.
<mgrwt>
<rscale>  0 0.20645412E+03</rscale>
<asrwt>0</asrwt>
<pdfrwt beam="1">  1        2 0.17040689E+00 0.20645412E+03</pdfrwt>
<pdfrwt beam="2">  1       -2 0.62166901E-02 0.20645412E+03</pdfrwt>
<totfact> 0.31511172E+03</totfact>
</mgrwt>
</event>
<event>
 4    1  0.5387657E-008  0.3166369E+03  0.7818608E-02  0.1077208E+00
         -2   -1    0    0    0  501 -0.00000000000E+00  0.00000000000E+00  0.28047980147E+03  0.28047980149E+03  0.25500000000E-02 0.  1.
          2   -1    0    0  501    0  0.00000000000E+00 -0.00000000000E+00 -0.47447798858E+03  0.47447798858E+03  0.25500000000E-02 0. -1.
    8880022    1    1    2    0    0  0.25421312096E+03  0.11064788583E+03  0.90465890542E+02  0.32930684153E+03  0.15294330000E+03 0.  0.
    8880022    1    1    2    0    0 -0.25421312096E+03 -0.11064788583E+03 -0.28446407765E+03  0.42565094854E+03  0.15294330000E+03 0.  0.
<mgrwt>
<rscale>  0 0.31663689E+03</rscale>
<asrwt>0</asrwt>
<pdfrwt beam="1">  1        2 0.72996614E-01 0.31663689E+03</pdfrwt>
<pdfrwt beam="2">  1       -2 0.43150739E-01 0.31663689E+03</pdfrwt>
<totfact> 0.34119408E+02</totfact>
</mgrwt>
</event>
<event>
 4    1  0.5387657E-008  0.6121506E+03  0.7818608E-02  0.9880513E-01
          2   -1    0    0  501    0  0.00000000000E+00  0.00000000000E+00  0.14772192927E+04  0.14772192927E+04  0.25500000000E-02 0. -1.
         -2   -1    0    0    0  501 -0.00000000000E+00 -0.00000000000E+00 -0.78899782597E+03  0.78899782597E+03  0.25500000000E-02 0.  1.
    8880022    1    1    2    0    0 -0.14824592046E+03  0.57389883629E+03 -0.58923582908E+03  0.84966301703E+03  0.15294330000E+03 0.  0.
    8880022    1    1    2    0    0  0.14824592046E+03 -0.57389883629E+03  0.12774572958E+04  0.14165541016E+04  0.15294330000E+03 0.  0.
<mgrwt>
<rscale>  0 0.61215062E+03</rscale>
<asrwt>0</asrwt>
<pdfrwt beam="1">  1        2 0.22726450E+00 0.61215062E+03</pdfrwt>
<pdfrwt beam="2">  1       -2 0.12138428E+00 0.61215062E+03</pdfrwt>
<totfact> 0.70671340E+00</totfact>
</mgrwt>
</event>
<event>
 4    1  0.5387657E-008  0.6193782E+03  0.7818608E-02  0.9865999E-01
          2   -1    0    0  501    0  0.00000000000E+00  0.00000000000E+00  0.32759662606E+04  0.32759662606E+04  0.25500000000E-02 0. -1.
         -2   -1    0    0    0  501 -0.00000000000E+00 -0.00000000000E+00 -0.14671644304E+03  0.14671644306E+03  0.25500000000E-02 0.  1.
    8880022    1    1    2    0    0  0.53741407318E+02  0.59778721589E+03  0.23334597190E+04  0.24142625391E+04  0.15294330000E+03 0.  0.
    8880022    1    1    2    0    0 -0.53741407318E+02 -0.59778721589E+03  0.79579009850E+03  0.10084201645E+04  0.15294330000E+03 0.  0.
<mgrwt>
<rscale>  0 0.61937819E+03</rscale>
<asrwt>0</asrwt>
<pdfrwt beam="1">  1        2 0.50399479E+00 0.61937819E+03</pdfrwt>
<pdfrwt beam="2">  1       -2 0.22571761E-01 0.61937819E+03</pdfrwt>
<totfact> 0.21789797E+01</totfact>
</mgrwt>
</event>
<event>
 4    1  0.5387657E-008  0.4636505E+03  0.7818608E-02  0.1023728E+00
          2   -1    0    0  501    0  0.00000000000E+00  0.00000000000E+00  0.34442815401E+03  0.34442815402E+03  0.25500000000E-02 0. -1.
         -2   -1    0    0    0  501 -0.00000000000E+00 -0.00000000000E+00 -0.12192009694E+04  0.12192009694E+04  0.25500000000E-02 0.  1.
    8880022    1    1    2    0    0 -0.39962537968E+03  0.17854885996E+03 -0.98357975958E+03  0.10873826079E+04  0.15294330000E+03 0.  0.
    8880022    1    1    2    0    0  0.39962537968E+03 -0.17854885996E+03  0.10880694414E+03  0.47624651557E+03  0.15294330000E+03 0.  0.
<mgrwt>
<rscale>  0 0.46365051E+03</rscale>
<asrwt>0</asrwt>
<pdfrwt beam="1">  1        2 0.52988947E-01 0.46365051E+03</pdfrwt>
<pdfrwt beam="2">  1       -2 0.18756938E+00 0.46365051E+03</pdfrwt>
<totfact> 0.15894646E+01</totfact>
</mgrwt>
</event>
<event>
 4    1  0.5387657E-008  0.7045398E+03  0.7818608E-02  0.9709500E-01
         -2   -1    0    0    0  501 -0.00000000000E+00  0.00000000000E+00  0.91618213944E+03  0.91618213945E+03  0.25500000000E-02 0.  1.
          2   -1    0    0  501    0  0.00000000000E+00 -0.00000000000E+00 -0.56939248618E+03  0.56939248619E+03  0.25500000000E-02 0. -1.
    8880022    1    1    2    0    0  0.60253585526E+03 -0.33156479516E+03  0.33694457031E+03  0.78096604711E+03  0.15294330000E+03 0.  0.
    8880022    1    1    2    0    0 -0.60253585526E+03  0.33156479516E+03  0.98450829454E+01  0.70460857853E+03  0.15294330000E+03 0.  0.
<mgrwt>
<rscale>  0 0.70453980E+03</rscale>
<asrwt>0</asrwt>
<pdfrwt beam="1">  1        2 0.87598845E-01 0.70453980E+03</pdfrwt>
<pdfrwt beam="2">  1       -2 0.14095110E+00 0.70453980E+03</pdfrwt>
<totfact> 0.18974679E+01</totfact>
</mgrwt>
</event>
<event>
 4    1  0.5387657E-008  0.4637403E+03  0.7818608E-02  0.1023702E+00
          2   -1    0    0  501    0  0.00000000000E+00  0.00000000000E+00  0.15617328893E+04  0.15617328893E+04  0.25500000000E-02 0. -1.
         -2   -1    0    0    0  501 -0.00000000000E+00 -0.00000000000E+00 -0.16318942967E+03  0.16318942969E+03  0.25500000000E-02 0.  1.
    8880022    1    1    2    0    0  0.41815583539E+03 -0.12964989590E+03  0.35843262697E+03  0.58611346962E+03  0.15294330000E+03 0.  0.
    8880022    1    1    2    0    0 -0.41815583539E+03  0.12964989590E+03  0.10401108326E+04  0.11388088494E+04  0.15294330000E+03 0.  0.
<mgrwt>
<rscale>  0 0.46374028E+03</rscale>
<asrwt>0</asrwt>
<pdfrwt beam="1">  1        2 0.24026660E+00 0.46374028E+03</pdfrwt>
<pdfrwt beam="2">  1       -2 0.25106066E-01 0.46374028E+03</pdfrwt>
<totfact> 0.17437436E+02</totfact>
</mgrwt>
</event>
<event>
 4    1  0.5387657E-008  0.6787700E+03  0.7818608E-02  0.9754243E-01
         -2   -1    0    0    0  501 -0.00000000000E+00  0.00000000000E+00  0.78186720447E+03  0.78186720447E+03  0.25500000000E-02 0.  1.
          2   -1    0    0  501    0  0.00000000000E+00 -0.00000000000E+00 -0.67191464095E+03  0.67191464095E+03  0.25500000000E-02 0. -1.
    8880022    1    1    2    0    0 -0.59774206738E+03 -0.28291592055E+03 -0.19995730742E+03  0.70760976182E+03  0.15294330000E+03 0.  0.
    8880022    1    1    2    0    0  0.59774206738E+03  0.28291592055E+03  0.30990987094E+03  0.74617208360E+03  0.15294330000E+03 0.  0.
<mgrwt>
<rscale>  0 0.67876995E+03</rscale>
<asrwt>0</asrwt>
<pdfrwt beam="1">  1        2 0.10337148E+00 0.67876995E+03</pdfrwt>
<pdfrwt beam="2">  1       -2 0.12028726E+00 0.67876995E+03</pdfrwt>
<totfact> 0.23236213E+01</totfact>
</mgrwt>
</event>
<event>
 4    1  0.5387657E-008  0.9574658E+03  0.7818608E-02  0.9356466E-01
          2   -1    0    0  501    0  0.00000000000E+00  0.00000000000E+00  0.19305811317E+04  0.19305811317E+04  0.25500000000E-02 0. -1.
         -2   -1    0    0    0  501 -0.00000000000E+00 -0.00000000000E+00 -0.51348849590E+03  0.51348849590E+03  0.25500000000E-02 0.  1.
    8880022    1    1    2    0    0 -0.86094469471E+03  0.39003001145E+03  0.10437552445E+04  0.14163918386E+04  0.15294330000E+03 0.  0.
    8880022    1    1    2    0    0  0.86094469471E+03 -0.39003001145E+03  0.37333739135E+03  0.10276777890E+04  0.15294330000E+03 0.  0.
<mgrwt>
<rscale>  0 0.95746584E+03</rscale>
<asrwt>0</asrwt>
<pdfrwt beam="1">  1        2 0.29701248E+00 0.95746584E+03</pdfrwt>
<pdfrwt beam="2">  1       -2 0.78998231E-01 0.95746584E+03</pdfrwt>
<totfact> 0.10447756E+01</totfact>
</mgrwt>
</event>
<event>
 4    1  0.5387657E-008  0.4227413E+03  0.7818608E-02  0.1036178E+00
          2   -1    0    0  501    0  0.00000000000E+00  0.00000000000E+00  0.10778417474E+04  0.10778417474E+04  0.25500000000E-02 0. -1.
         -2   -1    0    0    0  501 -0.00000000000E+00 -0.00000000000E+00 -0.57745809263E+03  0.57745809263E+03  0.25500000000E-02 0.  1.
    8880022    1    1    2    0    0 -0.38847834694E+03 -0.66356262922E+02 -0.44860798193E+03  0.61640843127E+03  0.15294330000E+03 0.  0.
    8880022    1    1    2    0    0  0.38847834694E+03  0.66356262922E+02  0.94899163674E+03  0.10388914088E+04  0.15294330000E+03 0.  0.
<mgrwt>
<rscale>  0 0.42274133E+03</rscale>
<asrwt>0</asrwt>
<pdfrwt beam="1">  1        2 0.16582181E+00 0.42274133E+03</pdfrwt>
<pdfrwt beam="2">  1       -2 0.88839707E-01 0.42274133E+03</pdfrwt>
<totfact> 0.26043156E+01</totfact>
</mgrwt>
</event>
<event>
 4    1  0.5387657E-008  0.6808034E+03  0.7818608E-02  0.9750636E-01
         -2   -1    0    0    0  501 -0.00000000000E+00  0.00000000000E+00  0.18760522803E+03  0.18760522804E+03  0.25500000000E-02 0.  1.
          2   -1    0    0  501    0  0.00000000000E+00 -0.00000000000E+00 -0.26132120231E+04  0.26132120231E+04  0.25500000000E-02 0. -1.
    8880022    1    1    2    0    0  0.62843000709E+03 -0.21254960916E+03 -0.88562869499E+03  0.11170637621E+04  0.15294330000E+03 0.  0.
    8880022    1    1    2    0    0 -0.62843000709E+03  0.21254960916E+03 -0.15399781001E+04  0.16837534890E+04  0.15294330000E+03 0.  0.
<mgrwt>
<rscale>  0 0.68080340E+03</rscale>
<asrwt>0</asrwt>
<pdfrwt beam="1">  1        2 0.40203259E+00 0.68080340E+03</pdfrwt>
<pdfrwt beam="2">  1       -2 0.28862345E-01 0.68080340E+03</pdfrwt>
<totfact> 0.34791514E+01</totfact>
</mgrwt>
</event>
<event>
 4    1  0.5387657E-008  0.9409099E+03  0.7818608E-02  0.9375839E-01
         -2   -1    0    0    0  501 -0.00000000000E+00  0.00000000000E+00  0.50539550487E+03  0.50539550488E+03  0.25500000000E-02 0.  1.
          2   -1    0    0  501    0  0.00000000000E+00 -0.00000000000E+00 -0.31119502432E+04  0.31119502432E+04  0.25500000000E-02 0. -1.
    8880022    1    1    2    0    0 -0.91988610903E+03 -0.12541666651E+03 -0.24990535709E+04  0.26703146252E+04  0.15294330000E+03 0.  0.
    8880022    1    1    2    0    0  0.91988610903E+03  0.12541666651E+03 -0.10750116740E+03  0.94703112295E+03  0.15294330000E+03 0.  0.
<mgrwt>
<rscale>  0 0.94090990E+03</rscale>
<asrwt>0</asrwt>
<pdfrwt beam="1">  1        2 0.47876156E+00 0.94090990E+03</pdfrwt>
<pdfrwt beam="2">  1       -2 0.77753157E-01 0.94090990E+03</pdfrwt>
<totfact> 0.22529625E+00</totfact>
</mgrwt>
</event>
<event>
 4    1  0.5387657E-008  0.5233685E+03  0.7818608E-02  0.1007853E+00
          2   -1    0    0  501    0  0.00000000000E+00  0.00000000000E+00  0.19167459902E+04  0.19167459902E+04  0.25500000000E-02 0. -1.
         -2   -1    0    0    0  501 -0.00000000000E+00 -0.00000000000E+00 -0.12536568171E+04  0.12536568171E+04  0.25500000000E-02 0.  1.
    8880022    1    1    2    0    0  0.22968547360E+03  0.44471062074E+03 -0.11605742916E+04  0.12731250105E+04  0.15294330000E+03 0.  1.
    8880022    1    1    2    0    0 -0.22968547360E+03 -0.44471062074E+03  0.18236634646E+04  0.18972777968E+04  0.15294330000E+03 0.  0.
<mgrwt>
<rscale>  0 0.52336852E+03</rscale>
<asrwt>0</asrwt>
<pdfrwt beam="1">  1        2 0.29488400E+00 0.52336852E+03</pdfrwt>
<pdfrwt beam="2">  1       -2 0.19287028E+00 0.52336852E+03</pdfrwt>
<totfact> 0.12109791E+00</totfact>
</mgrwt>
</event>
<event>
 4    1  0.5387657E-008  0.6674170E+03  0.7818608E-02  0.9774635E-01
         -2   -1    0    0    0  501 -0.00000000000E+00  0.00000000000E+00  0.18819054864E+03  0.18819054866E+03  0.25500000000E-02 0.  1.
          2   -1    0    0  501    0  0.00000000000E+00 -0.00000000000E+00 -0.34736840499E+04  0.34736840499E+04  0.25500000000E-02 0. -1.
    8880022    1    1    2    0    0  0.58655715804E+03 -0.27929282333E+03 -0.60929119802E+03  0.90370415392E+03  0.15294330000E+03 0.  0.
    8880022    1    1    2    0    0 -0.58655715804E+03  0.27929282333E+03 -0.26762023032E+04  0.27581704446E+04  0.15294330000E+03 0.  0.
<mgrwt>
<rscale>  0 0.66741699E+03</rscale>
<asrwt>0</asrwt>
<pdfrwt beam="1">  1        2 0.53441288E+00 0.66741699E+03</pdfrwt>
<pdfrwt beam="2">  1       -2 0.28952395E-01 0.66741699E+03</pdfrwt>
<totfact> 0.10191077E+01</totfact>
</mgrwt>
</event>
<event>
 4    1  0.5387657E-008  0.5415745E+03  0.7818608E-02  0.1003463E+00
          2   -1    0    0  501    0  0.00000000000E+00  0.00000000000E+00  0.49022009011E+04  0.49022009011E+04  0.25500000000E-02 0. -1.
         -2   -1    0    0    0  501 -0.00000000000E+00 -0.00000000000E+00 -0.11094296715E+03  0.11094296718E+03  0.25500000000E-02 0.  1.
    8880022    1    1    2    0    0  0.35874713746E+03 -0.37578161900E+03  0.69428510685E+03  0.88053097414E+03  0.15294330000E+03 0.  0.
    8880022    1    1    2    0    0 -0.35874713746E+03  0.37578161900E+03  0.40969728271E+04  0.41326128941E+04  0.15294330000E+03 0.  0.
<mgrwt>
<rscale>  0 0.54157454E+03</rscale>
<asrwt>0</asrwt>
<pdfrwt beam="1">  1        2 0.75418476E+00 0.54157454E+03</pdfrwt>
<pdfrwt beam="2">  1       -2 0.17068149E-01 0.54157454E+03</pdfrwt>
<totfact> 0.15807716E+00</totfact>
</mgrwt>
</event>
<event>
 4    1  0.5387657E-008  0.4702520E+03  0.7818608E-02  0.1021849E+00
         -2   -1    0    0    0  501 -0.00000000000E+00  0.00000000000E+00  0.96119479287E+03  0.96119479287E+03  0.25500000000E-02 0.  1.
          2   -1    0    0  501    0  0.00000000000E+00 -0.00000000000E+00 -0.17644936503E+04  0.17644936503E+04  0.25500000000E-02 0. -1.
    8880022    1    1    2    0    0 -0.44444610822E+03 -0.14593951313E+02  0.86924524878E+03  0.98829362139E+03  0.15294330000E+03 0.  0.
    8880022    1    1    2    0    0  0.44444610822E+03  0.14593951313E+02 -0.16725441062E+04  0.17373948218E+04  0.15294330000E+03 0.  0.
<mgrwt>
<rscale>  0 0.47025204E+03</rscale>
<asrwt>0</asrwt>
<pdfrwt beam="1">  1        2 0.27146056E+00 0.47025204E+03</pdfrwt>
<pdfrwt beam="2">  1       -2 0.14787612E+00 0.47025204E+03</pdfrwt>
<totfact> 0.30806975E+00</totfact>
</mgrwt>
</event>
<event>
 4    1  0.5533121E-008  0.9132730E+03  0.7818608E-02  0.9409140E-01
         -2   -1    0    0    0  501 -0.00000000000E+00  0.00000000000E+00  0.10166713719E+04  0.10166713719E+04  0.25500000000E-02 0.  1.
          2   -1    0    0  501    0  0.00000000000E+00 -0.00000000000E+00 -0.28818849426E+04  0.28818849426E+04  0.25500000000E-02 0. -1.
    8880022    1    1    2    0    0  0.73409525912E+03  0.52132522306E+03 -0.25812496457E+04  0.27380498943E+04  0.15294330000E+03 0. -1.
    8880022    1    1    2    0    0 -0.73409525912E+03 -0.52132522306E+03  0.71603607498E+03  0.11605064202E+04  0.15294330000E+03 0.  1.
<mgrwt>
<rscale>  0 0.91327296E+03</rscale>
<asrwt>0</asrwt>
<pdfrwt beam="1">  1        2 0.44336691E+00 0.91327296E+03</pdfrwt>
<pdfrwt beam="2">  1       -2 0.15641098E+00 0.91327296E+03</pdfrwt>
<totfact> 0.56868205E-01</totfact>
</mgrwt>
</event>
<event>
 4    1  0.5387657E-008  0.8526375E+03  0.7818608E-02  0.9486804E-01
         -2   -1    0    0    0  501 -0.00000000000E+00  0.00000000000E+00  0.50560347091E+03  0.50560347091E+03  0.25500000000E-02 0.  1.
          2   -1    0    0  501    0  0.00000000000E+00 -0.00000000000E+00 -0.17788444888E+04  0.17788444888E+04  0.25500000000E-02 0. -1.
    8880022    1    1    2    0    0  0.62288524588E+03  0.56179441870E+03 -0.13653415574E+03  0.86349998675E+03  0.15294330000E+03 0.  0.
    8880022    1    1    2    0    0 -0.62288524588E+03 -0.56179441870E+03 -0.11367068622E+04  0.14209479730E+04  0.15294330000E+03 0.  0.
<mgrwt>
<rscale>  0 0.85263747E+03</rscale>
<asrwt>0</asrwt>
<pdfrwt beam="1">  1        2 0.27366838E+00 0.85263747E+03</pdfrwt>
<pdfrwt beam="2">  1       -2 0.77785150E-01 0.85263747E+03</pdfrwt>
<totfact> 0.13264439E+01</totfact>
</mgrwt>
</event>
<event>
 4    1  0.5387657E-008  0.5885989E+03  0.7818608E-02  0.9929346E-01
         -2   -1    0    0    0  501 -0.00000000000E+00  0.00000000000E+00  0.45330835446E+03  0.45330835447E+03  0.25500000000E-02 0.  1.
          2   -1    0    0  501    0  0.00000000000E+00 -0.00000000000E+00 -0.28398626109E+04  0.28398626109E+04  0.25500000000E-02 0. -1.
    8880022    1    1    2    0    0  0.94513574870E+01  0.56830245258E+03 -0.26009669780E+04  0.26667354349E+04  0.15294330000E+03 0.  0.
    8880022    1    1    2    0    0 -0.94513574870E+01 -0.56830245258E+03  0.21441272154E+03  0.62643553056E+03  0.15294330000E+03 0.  0.
<mgrwt>
<rscale>  0 0.58859889E+03</rscale>
<asrwt>0</asrwt>
<pdfrwt beam="1">  1        2 0.43690193E+00 0.58859889E+03</pdfrwt>
<pdfrwt beam="2">  1       -2 0.69739748E-01 0.58859889E+03</pdfrwt>
<totfact> 0.45035260E+00</totfact>
</mgrwt>
</event>
<event>
 4    1  0.5387657E-008  0.7788852E+03  0.7818608E-02  0.9591093E-01
          2   -1    0    0  501    0  0.00000000000E+00  0.00000000000E+00  0.74767601780E+03  0.74767601780E+03  0.25500000000E-02 0. -1.
         -2   -1    0    0    0  501 -0.00000000000E+00 -0.00000000000E+00 -0.10927564066E+04  0.10927564066E+04  0.25500000000E-02 0.  1.
    8880022    1    1    2    0    0  0.71824759514E+03 -0.25959766782E+03 -0.63947772560E+03  0.10077668240E+04  0.15294330000E+03 0.  0.
    8880022    1    1    2    0    0 -0.71824759514E+03  0.25959766782E+03  0.29439733683E+03  0.83266560035E+03  0.15294330000E+03 0. -1.
<mgrwt>
<rscale>  0 0.77888524E+03</rscale>
<asrwt>0</asrwt>
<pdfrwt beam="1">  1        2 0.11502708E+00 0.77888524E+03</pdfrwt>
<pdfrwt beam="2">  1       -2 0.16811637E+00 0.77888524E+03</pdfrwt>
<totfact> 0.83925736E+00</totfact>
</mgrwt>
</event>
<event>
 4    1  0.5387657E-008  0.6381872E+03  0.7818608E-02  0.9829201E-01
         -2   -1    0    0    0  501 -0.00000000000E+00  0.00000000000E+00  0.36856214279E+03  0.36856214280E+03  0.25500000000E-02 0.  1.
          2   -1    0    0  501    0  0.00000000000E+00 -0.00000000000E+00 -0.15767152834E+04  0.15767152834E+04  0.25500000000E-02 0. -1.
    8880022    1    1    2    0    0  0.60383804112E+03 -0.13881950971E+03 -0.72105818979E+02  0.64224772348E+03  0.15294330000E+03 0.  0.
    8880022    1    1    2    0    0 -0.60383804112E+03  0.13881950971E+03 -0.11360473216E+04  0.13030297027E+04  0.15294330000E+03 0.  0.
<mgrwt>
<rscale>  0 0.63818719E+03</rscale>
<asrwt>0</asrwt>
<pdfrwt beam="1">  1        2 0.24257158E+00 0.63818719E+03</pdfrwt>
<pdfrwt beam="2">  1       -2 0.56701869E-01 0.63818719E+03</pdfrwt>
<totfact> 0.34817993E+01</totfact>
</mgrwt>
</event>
<event>
 4    1  0.5387657E-008  0.6900202E+03  0.7818608E-02  0.9734453E-01
         -2   -1    0    0    0  501 -0.00000000000E+00  0.00000000000E+00  0.39414479536E+03  0.39414479537E+03  0.25500000000E-02 0.  1.
          2   -1    0    0  501    0  0.00000000000E+00 -0.00000000000E+00 -0.19422671275E+04  0.19422671275E+04  0.25500000000E-02 0. -1.
    8880022    1    1    2    0    0  0.38552741858E+03 -0.55145700179E+03 -0.55785317149E+02  0.69227152904E+03  0.15294330000E+03 0.  0.
    8880022    1    1    2    0    0 -0.38552741858E+03  0.55145700179E+03 -0.14923370150E+04  0.16441403938E+04  0.15294330000E+03 0.  0.
<mgrwt>
<rscale>  0 0.69002019E+03</rscale>
<asrwt>0</asrwt>
<pdfrwt beam="1">  1        2 0.29881032E+00 0.69002019E+03</pdfrwt>
<pdfrwt beam="2">  1       -2 0.60637662E-01 0.69002019E+03</pdfrwt>
<totfact> 0.18981787E+01</totfact>
</mgrwt>
</event>
<event>
 4    1  0.5387657E-008  0.4439053E+03  0.7818608E-02  0.1029555E+00
          2   -1    0    0  501    0  0.00000000000E+00  0.00000000000E+00  0.32773421678E+04  0.32773421678E+04  0.25500000000E-02 0. -1.
         -2   -1    0    0    0  501 -0.00000000000E+00 -0.00000000000E+00 -0.17832890117E+03  0.17832890119E+03  0.25500000000E-02 0.  1.
    8880022    1    1    2    0    0  0.38162768368E+03  0.16739338764E+03  0.29562228441E+04  0.29893653828E+04  0.15294330000E+03 0.  0.
    8880022    1    1    2    0    0 -0.38162768368E+03 -0.16739338764E+03  0.14279042256E+03  0.46630568619E+03  0.15294330000E+03 0.  0.
<mgrwt>
<rscale>  0 0.44390527E+03</rscale>
<asrwt>0</asrwt>
<pdfrwt beam="1">  1        2 0.50420649E+00 0.44390527E+03</pdfrwt>
<pdfrwt beam="2">  1       -2 0.27435215E-01 0.44390527E+03</pdfrwt>
<totfact> 0.16022671E+01</totfact>
</mgrwt>
</event>
<event>
 4    1  0.5387657E-008  0.2944218E+03  0.7818608E-02  0.1088063E+00
          2   -1    0    0  501    0  0.00000000000E+00  0.00000000000E+00  0.86132914020E+03  0.86132914021E+03  0.25500000000E-02 0. -1.
         -2   -1    0    0    0  501 -0.00000000000E+00 -0.00000000000E+00 -0.52442712440E+03  0.52442712440E+03  0.25500000000E-02 0.  1.
    8880022    1    1    2    0    0  0.24769609022E+03  0.44036112844E+02  0.79130771929E+03  0.84430568633E+03  0.15294330000E+03 0. -1.
    8880022    1    1    2    0    0 -0.24769609022E+03 -0.44036112844E+02 -0.45440570349E+03  0.54145057828E+03  0.15294330000E+03 0.  0.
<mgrwt>
<rscale>  0 0.29442178E+03</rscale>
<asrwt>0</asrwt>
<pdfrwt beam="1">  1        2 0.13251217E+00 0.29442178E+03</pdfrwt>
<pdfrwt beam="2">  1       -2 0.80681097E-01 0.29442178E+03</pdfrwt>
<totfact> 0.45475649E+01</totfact>
</mgrwt>
</event>
<event>
 4    1  0.5387657E-008  0.2969979E+03  0.7818608E-02  0.1086751E+00
         -2   -1    0    0    0  501 -0.00000000000E+00  0.00000000000E+00  0.21055626754E+04  0.21055626754E+04  0.25500000000E-02 0.  1.
          2   -1    0    0  501    0  0.00000000000E+00 -0.00000000000E+00 -0.20387778313E+03  0.20387778315E+03  0.25500000000E-02 0. -1.
    8880022    1    1    2    0    0  0.59786239611E+02 -0.24747057438E+03  0.19801124521E+04  0.20022619847E+04  0.15294330000E+03 0.  0.
    8880022    1    1    2    0    0 -0.59786239611E+02  0.24747057438E+03 -0.78427559794E+02  0.30717847382E+03  0.15294330000E+03 0.  0.
<mgrwt>
<rscale>  0 0.29699787E+03</rscale>
<asrwt>0</asrwt>
<pdfrwt beam="1">  1        2 0.31365811E-01 0.29699787E+03</pdfrwt>
<pdfrwt beam="2">  1       -2 0.32393273E+00 0.29699787E+03</pdfrwt>
<totfact> 0.43977866E+00</totfact>
</mgrwt>
</event>
<event>
 4    1  0.5387657E-008  0.3156350E+03  0.7818608E-02  0.1077676E+00
         -2   -1    0    0    0  501 -0.00000000000E+00  0.00000000000E+00  0.99395519457E+02  0.99395519490E+02  0.25500000000E-02 0.  1.
          2   -1    0    0  501    0  0.00000000000E+00 -0.00000000000E+00 -0.41119267993E+04  0.41119267993E+04  0.25500000000E-02 0. -1.
    8880022    1    1    2    0    0 -0.16861369806E+03 -0.21863941729E+03 -0.38373949843E+04  0.38503539698E+04  0.15294330000E+03 0.  0.
    8880022    1    1    2    0    0  0.16861369806E+03  0.21863941729E+03 -0.17513629555E+03  0.36096834903E+03  0.15294330000E+03 0.  0.
<mgrwt>
<rscale>  0 0.31563496E+03</rscale>
<asrwt>0</asrwt>
<pdfrwt beam="1">  1        2 0.63260399E+00 0.31563496E+03</pdfrwt>
<pdfrwt beam="2">  1       -2 0.15291622E-01 0.31563496E+03</pdfrwt>
<totfact> 0.11895742E+01</totfact>
</mgrwt>
</event>
<event>
 4    1  0.5387657E-008  0.5755888E+03  0.7818608E-02  0.9957387E-01
          2   -1    0    0  501    0  0.00000000000E+00  0.00000000000E+00  0.26217395379E+04  0.26217395379E+04  0.25500000000E-02 0. -1.
         -2   -1    0    0    0  501 -0.00000000000E+00 -0.00000000000E+00 -0.29291192846E+03  0.29291192847E+03  0.25500000000E-02 0.  1.
    8880022    1    1    2    0    0  0.53969186576E+02 -0.55226640572E+03  0.65526289072E+02  0.57930665761E+03  0.15294330000E+03 0.  1.
    8880022    1    1    2    0    0 -0.53969186576E+02  0.55226640572E+03  0.22633013204E+04  0.23353448087E+04  0.15294330000E+03 0.  0.
<mgrwt>
<rscale>  0 0.57558884E+03</rscale>
<asrwt>0</asrwt>
<pdfrwt beam="1">  1        2 0.40334455E+00 0.57558884E+03</pdfrwt>
<pdfrwt beam="2">  1       -2 0.45063373E-01 0.57558884E+03</pdfrwt>
<totfact> 0.14974195E+01</totfact>
</mgrwt>
</event>
<event>
 4    1  0.5387657E-008  0.1028275E+04  0.7818608E-02  0.9278065E-01
         -2   -1    0    0    0  501 -0.00000000000E+00  0.00000000000E+00  0.38723921294E+03  0.38723921295E+03  0.25500000000E-02 0.  1.
          2   -1    0    0  501    0  0.00000000000E+00 -0.00000000000E+00 -0.39868243027E+04  0.39868243027E+04  0.25500000000E-02 0. -1.
    8880022    1    1    2    0    0 -0.98440187237E+03  0.25477661140E+03 -0.30275016561E+04  0.31973608021E+04  0.15294330000E+03 0. -1.
    8880022    1    1    2    0    0  0.98440187237E+03 -0.25477661140E+03 -0.57208343367E+03  0.11767027136E+04  0.15294330000E+03 0.  0.
<mgrwt>
<rscale>  0 0.10282752E+04</rscale>
<asrwt>0</asrwt>
<pdfrwt beam="1">  1        2 0.61335756E+00 0.10282752E+04</pdfrwt>
<pdfrwt beam="2">  1       -2 0.59575266E-01 0.10282752E+04</pdfrwt>
<totfact> 0.96650741E-01</totfact>
</mgrwt>
</event>
<event>
 4    1  0.5387657E-008  0.7634129E+03  0.7818608E-02  0.9614539E-01
         -2   -1    0    0    0  501 -0.00000000000E+00  0.00000000000E+00  0.19652758736E+03  0.19652758738E+03  0.25500000000E-02 0.  1.
          2   -1    0    0  501    0  0.00000000000E+00 -0.00000000000E+00 -0.30173498841E+04  0.30173498841E+04  0.25500000000E-02 0. -1.
    8880022    1    1    2    0    0  0.74216462884E+03  0.92732241330E+02 -0.11997275428E+04  0.14220216014E+04  0.15294330000E+03 0.  0.
    8880022    1    1    2    0    0 -0.74216462884E+03 -0.92732241330E+02 -0.16210947539E+04  0.17918558701E+04  0.15294330000E+03 0.  0.
<mgrwt>
<rscale>  0 0.76341290E+03</rscale>
<asrwt>0</asrwt>
<pdfrwt beam="1">  1        2 0.46420764E+00 0.76341290E+03</pdfrwt>
<pdfrwt beam="2">  1       -2 0.30235016E-01 0.76341290E+03</pdfrwt>
<totfact> 0.18149894E+01</totfact>
</mgrwt>
</event>
<event>
 4    1  0.5387657E-008  0.5591442E+03  0.7818608E-02  0.9993993E-01
         -2   -1    0    0    0  501 -0.00000000000E+00  0.00000000000E+00  0.76223467725E+03  0.76223467725E+03  0.25500000000E-02 0.  1.
          2   -1    0    0  501    0  0.00000000000E+00 -0.00000000000E+00 -0.16233370372E+04  0.16233370372E+04  0.25500000000E-02 0. -1.
    8880022    1    1    2    0    0  0.11426321660E+03  0.52554208535E+03 -0.14616950718E+04  0.15649903202E+04  0.15294330000E+03 0.  0.
    8880022    1    1    2    0    0 -0.11426321660E+03 -0.52554208535E+03  0.60059271186E+03  0.82058139432E+03  0.15294330000E+03 0.  0.
<mgrwt>
<rscale>  0 0.55914418E+03</rscale>
<asrwt>0</asrwt>
<pdfrwt beam="1">  1        2 0.24974416E+00 0.55914418E+03</pdfrwt>
<pdfrwt beam="2">  1       -2 0.11726687E+00 0.55914418E+03</pdfrwt>
<totfact> 0.64610956E+00</totfact>
</mgrwt>
</event>
<event>
 4    1  0.5387657E-008  0.1310712E+04  0.7818608E-02  0.9021114E-01
         -2   -1    0    0    0  501 -0.00000000000E+00  0.00000000000E+00  0.19837266079E+04  0.19837266079E+04  0.25500000000E-02 0.  1.
          2   -1    0    0  501    0  0.00000000000E+00 -0.00000000000E+00 -0.11081875328E+04  0.11081875328E+04  0.25500000000E-02 0. -1.
    8880022    1    1    2    0    0 -0.62971047638E+03 -0.11393147481E+04 -0.28490136691E+03  0.13413179418E+04  0.15294330000E+03 0.  0.
    8880022    1    1    2    0    0  0.62971047638E+03  0.11393147481E+04  0.11604404420E+04  0.17505961989E+04  0.15294330000E+03 0.  0.
<mgrwt>
<rscale>  0 0.13107117E+04</rscale>
<asrwt>0</asrwt>
<pdfrwt beam="1">  1        2 0.17049039E+00 0.13107117E+04</pdfrwt>
<pdfrwt beam="2">  1       -2 0.30518871E+00 0.13107117E+04</pdfrwt>
<totfact> 0.61386122E-01</totfact>
</mgrwt>
</event>
<event>
 4    1  0.5387657E-008  0.8237224E+03  0.7818608E-02  0.9526301E-01
         -2   -1    0    0    0  501 -0.00000000000E+00  0.00000000000E+00  0.41744063291E+03  0.41744063292E+03  0.25500000000E-02 0.  1.
          2   -1    0    0  501    0  0.00000000000E+00 -0.00000000000E+00 -0.18001714503E+04  0.18001714503E+04  0.25500000000E-02 0. -1.
    8880022    1    1    2    0    0 -0.16703469181E+03  0.79197623023E+03 -0.34590173728E+03  0.89340170270E+03  0.15294330000E+03 0.  1.
    8880022    1    1    2    0    0  0.16703469181E+03 -0.79197623023E+03 -0.10368290801E+04  0.13242103805E+04  0.15294330000E+03 0.  0.
<mgrwt>
<rscale>  0 0.82372240E+03</rscale>
<asrwt>0</asrwt>
<pdfrwt beam="1">  1        2 0.27694945E+00 0.82372240E+03</pdfrwt>
<pdfrwt beam="2">  1       -2 0.64221637E-01 0.82372240E+03</pdfrwt>
<totfact> 0.19719708E+01</totfact>
</mgrwt>
</event>
<event>
 4    1  0.5387657E-008  0.3610708E+03  0.7818608E-02  0.1058161E+00
          2   -1    0    0  501    0  0.00000000000E+00  0.00000000000E+00  0.31861528376E+04  0.31861528376E+04  0.25500000000E-02 0. -1.
         -2   -1    0    0    0  501 -0.00000000000E+00 -0.00000000000E+00 -0.55417077601E+02  0.55417077660E+02  0.25500000000E-02 0.  1.
    8880022    1    1    2    0    0 -0.27799252736E+03  0.17233874115E+03  0.73634135741E+03  0.82010409986E+03  0.15294330000E+03 0.  0.
    8880022    1    1    2    0    0  0.27799252736E+03 -0.17233874115E+03  0.23943944026E+04  0.24214658154E+04  0.15294330000E+03 0.  1.
<mgrwt>
<rscale>  0 0.36107082E+03</rscale>
<asrwt>0</asrwt>
<pdfrwt beam="1">  1        2 0.49017749E+00 0.36107082E+03</pdfrwt>
<pdfrwt beam="2">  1       -2 0.85257020E-02 0.36107082E+03</pdfrwt>
<totfact> 0.13403561E+02</totfact>
</mgrwt>
</event>
<event>
 4    1  0.5387657E-008  0.6551453E+03  0.7818608E-02  0.9797172E-01
          2   -1    0    0  501    0  0.00000000000E+00  0.00000000000E+00  0.31032390888E+03  0.31032390889E+03  0.25500000000E-02 0. -1.
         -2   -1    0    0    0  501 -0.00000000000E+00 -0.00000000000E+00 -0.17242701064E+04  0.17242701064E+04  0.25500000000E-02 0.  1.
    8880022    1    1    2    0    0 -0.63461866108E+03  0.55523319616E+02 -0.25447412144E+03  0.70283171208E+03  0.15294330000E+03 0.  0.
    8880022    1    1    2    0    0  0.63461866108E+03 -0.55523319616E+02 -0.11594720761E+04  0.13317623032E+04  0.15294330000E+03 0.  0.
<mgrwt>
<rscale>  0 0.65514528E+03</rscale>
<asrwt>0</asrwt>
<pdfrwt beam="1">  1        2 0.47742141E-01 0.65514528E+03</pdfrwt>
<pdfrwt beam="2">  1       -2 0.26527232E+00 0.65514528E+03</pdfrwt>
<totfact> 0.57165320E+00</totfact>
</mgrwt>
</event>
<event>
 4    1  0.5387657E-008  0.6718157E+03  0.7818608E-02  0.9766683E-01
         -2   -1    0    0    0  501 -0.00000000000E+00  0.00000000000E+00  0.30986905268E+03  0.30986905269E+03  0.25500000000E-02 0.  1.
          2   -1    0    0  501    0  0.00000000000E+00 -0.00000000000E+00 -0.15602101750E+04  0.15602101750E+04  0.25500000000E-02 0. -1.
    8880022    1    1    2    0    0  0.65394536978E+03  0.17323864401E+02 -0.38414241156E+03  0.77388740027E+03  0.15294330000E+03 0.  0.
    8880022    1    1    2    0    0 -0.65394536978E+03 -0.17323864401E+02 -0.86619871073E+03  0.10961918274E+04  0.15294330000E+03 0.  0.
<mgrwt>
<rscale>  0 0.67181569E+03</rscale>
<asrwt>0</asrwt>
<pdfrwt beam="1">  1        2 0.24003233E+00 0.67181569E+03</pdfrwt>
<pdfrwt beam="2">  1       -2 0.47672163E-01 0.67181569E+03</pdfrwt>
<totfact> 0.50499434E+01</totfact>
</mgrwt>
</event>
<event>
 4    1  0.5387657E-008  0.4570471E+03  0.7818608E-02  0.1025641E+00
         -2   -1    0    0    0  501 -0.00000000000E+00  0.00000000000E+00  0.40990379670E+03  0.40990379670E+03  0.25500000000E-02 0.  1.
          2   -1    0    0  501    0  0.00000000000E+00 -0.00000000000E+00 -0.62285103172E+03  0.62285103172E+03  0.25500000000E-02 0. -1.
    8880022    1    1    2    0    0  0.41543485379E+03  0.11364115613E+03 -0.32665081095E+03  0.56177649952E+03  0.15294330000E+03 0.  0.
    8880022    1    1    2    0    0 -0.41543485379E+03 -0.11364115613E+03  0.11370357592E+03  0.47097832891E+03  0.15294330000E+03 0.  0.
<mgrwt>
<rscale>  0 0.45704713E+03</rscale>
<asrwt>0</asrwt>
<pdfrwt beam="1">  1        2 0.95823236E-01 0.45704713E+03</pdfrwt>
<pdfrwt beam="2">  1       -2 0.63062123E-01 0.45704713E+03</pdfrwt>
<totfact> 0.11397086E+02</totfact>
</mgrwt>
</event>
<event>
 4    1  0.5387657E-008  0.6198095E+03  0.7818608E-02  0.9865139E-01
         -2   -1    0    0    0  501 -0.00000000000E+00  0.00000000000E+00  0.62183523962E+03  0.62183523962E+03  0.25500000000E-02 0.  1.
          2   -1    0    0  501    0  0.00000000000E+00 -0.00000000000E+00 -0.89039272012E+03  0.89039272013E+03  0.25500000000E-02 0. -1.
    8880022    1    1    2    0    0  0.56273713419E+03 -0.20999791653E+03 -0.55264939764E+03  0.83041267865E+03  0.15294330000E+03 0.  0.
    8880022    1    1    2    0    0 -0.56273713419E+03  0.20999791653E+03  0.28409191714E+03  0.68181528110E+03  0.15294330000E+03 0.  0.
<mgrwt>
<rscale>  0 0.61980954E+03</rscale>
<asrwt>0</asrwt>
<pdfrwt beam="1">  1        2 0.13698349E+00 0.61980954E+03</pdfrwt>
<pdfrwt beam="2">  1       -2 0.95666960E-01 0.61980954E+03</pdfrwt>
<totfact> 0.28077568E+01</totfact>
</mgrwt>
</event>
<event>
 4    1  0.5387657E-008  0.8773210E+03  0.7818608E-02  0.9454384E-01
         -2   -1    0    0    0  501 -0.00000000000E+00  0.00000000000E+00  0.70415821385E+03  0.70415821386E+03  0.25500000000E-02 0.  1.
          2   -1    0    0  501    0  0.00000000000E+00 -0.00000000000E+00 -0.24069047615E+04  0.24069047615E+04  0.25500000000E-02 0. -1.
    8880022    1    1    2    0    0  0.40963374999E+03 -0.76059234839E+03  0.29789179217E+03  0.92651589431E+03  0.15294330000E+03 0.  0.
    8880022    1    1    2    0    0 -0.40963374999E+03  0.76059234839E+03 -0.20006383399E+04  0.21845470811E+04  0.15294330000E+03 0.  0.
<mgrwt>
<rscale>  0 0.87732103E+03</rscale>
<asrwt>0</asrwt>
<pdfrwt beam="1">  1        2 0.37029304E+00 0.87732103E+03</pdfrwt>
<pdfrwt beam="2">  1       -2 0.10833203E+00 0.87732103E+03</pdfrwt>
<totfact> 0.27522179E+00</totfact>
</mgrwt>
</event>
<event>
 4    1  0.5387657E-008  0.5255708E+03  0.7818608E-02  0.1007312E+00
          2   -1    0    0  501    0  0.00000000000E+00  0.00000000000E+00  0.10630790147E+04  0.10630790147E+04  0.25500000000E-02 0. -1.
         -2   -1    0    0    0  501 -0.00000000000E+00 -0.00000000000E+00 -0.30264365949E+03  0.30264365950E+03  0.25500000000E-02 0.  1.
    8880022    1    1    2    0    0 -0.40492118602E+03  0.29811374583E+03  0.63704130996E+03  0.82586091804E+03  0.15294330000E+03 0.  0.
    8880022    1    1    2    0    0  0.40492118602E+03 -0.29811374583E+03  0.12339404524E+03  0.53986175615E+03  0.15294330000E+03 0.  0.
<mgrwt>
<rscale>  0 0.52557076E+03</rscale>
<asrwt>0</asrwt>
<pdfrwt beam="1">  1        2 0.16355062E+00 0.52557076E+03</pdfrwt>
<pdfrwt beam="2">  1       -2 0.46560563E-01 0.52557076E+03</pdfrwt>
<totfact> 0.10390465E+02</totfact>
</mgrwt>
</event>
<event>
 4    1  0.5387657E-008  0.1332729E+04  0.7818608E-02  0.9004006E-01
          2   -1    0    0  501    0  0.00000000000E+00  0.00000000000E+00  0.32590440070E+04  0.32590440070E+04  0.25500000000E-02 0. -1.
         -2   -1    0    0    0  501 -0.00000000000E+00 -0.00000000000E+00 -0.75713127016E+03  0.75713127016E+03  0.25500000000E-02 0.  1.
    8880022    1    1    2    0    0 -0.65355964736E+03  0.11513622068E+04  0.18802984295E+03  0.13459279397E+04  0.15294330000E+03 0.  0.
    8880022    1    1    2    0    0  0.65355964736E+03 -0.11513622068E+04  0.23138828939E+04  0.26702473375E+04  0.15294330000E+03 0.  0.
<mgrwt>
<rscale>  0 0.13327291E+04</rscale>
<asrwt>0</asrwt>
<pdfrwt beam="1">  1        2 0.50139138E+00 0.13327291E+04</pdfrwt>
<pdfrwt beam="2">  1       -2 0.11648173E+00 0.13327291E+04</pdfrwt>
<totfact> 0.66099115E-01</totfact>
</mgrwt>
</event>
<event>
 4    1  0.5387657E-008  0.3749932E+03  0.7818608E-02  0.1052800E+00
          2   -1    0    0  501    0  0.00000000000E+00  0.00000000000E+00  0.47207193031E+04  0.47207193031E+04  0.25500000000E-02 0. -1.
         -2   -1    0    0    0  501 -0.00000000000E+00 -0.00000000000E+00 -0.10207721365E+03  0.10207721368E+03  0.25500000000E-02 0.  1.
    8880022    1    1    2    0    0  0.29443054341E+03 -0.17475381704E+03  0.43386004951E+04  0.43547760162E+04  0.15294330000E+03 0.  0.
    8880022    1    1    2    0    0 -0.29443054341E+03  0.17475381704E+03  0.28004159433E+03  0.46802050065E+03  0.15294330000E+03 0.  0.
<mgrwt>
<rscale>  0 0.37499319E+03</rscale>
<asrwt>0</asrwt>
<pdfrwt beam="1">  1        2 0.72626436E+00 0.37499319E+03</pdfrwt>
<pdfrwt beam="2">  1       -2 0.15704190E-01 0.37499319E+03</pdfrwt>
<totfact> 0.30938946E+00</totfact>
</mgrwt>
</event>
<event>
 4    1  0.5387657E-008  0.1569803E+03  0.7818608E-02  0.1192149E+00
         -2   -1    0    0    0  501 -0.00000000000E+00  0.00000000000E+00  0.22828034813E+04  0.22828034813E+04  0.25500000000E-02 0.  1.
          2   -1    0    0  501    0  0.00000000000E+00 -0.00000000000E+00 -0.82950343584E+02  0.82950343623E+02  0.25500000000E-02 0. -1.
    8880022    1    1    2    0    0 -0.70804473097E+01 -0.34655786920E+02 -0.33001761762E+01  0.15701496896E+03  0.15294330000E+03 0.  0.
    8880022    1    1    2    0    0  0.70804473097E+01  0.34655786920E+02  0.22031533139E+04  0.22087388560E+04  0.15294330000E+03 0.  1.
<mgrwt>
<rscale>  0 0.15698028E+03</rscale>
<asrwt>0</asrwt>
<pdfrwt beam="1">  1        2 0.12761594E-01 0.15698028E+03</pdfrwt>
<pdfrwt beam="2">  1       -2 0.35120047E+00 0.15698028E+03</pdfrwt>
<totfact> 0.90151517E+00</totfact>
</mgrwt>
</event>
<event>
 4    1  0.5387657E-008  0.5509448E+03  0.7818608E-02  0.1001275E+00
         -2   -1    0    0    0  501 -0.00000000000E+00  0.00000000000E+00  0.25485224930E+04  0.25485224930E+04  0.25500000000E-02 0.  1.
          2   -1    0    0  501    0  0.00000000000E+00 -0.00000000000E+00 -0.33916421241E+03  0.33916421242E+03  0.25500000000E-02 0. -1.
    8880022    1    1    2    0    0  0.27904859826E+03  0.44975596737E+03  0.22676945038E+04  0.23336620505E+04  0.15294330000E+03 0.  1.
    8880022    1    1    2    0    0 -0.27904859826E+03 -0.44975596737E+03 -0.58336223149E+02  0.55402465497E+03  0.15294330000E+03 0.  0.
<mgrwt>
<rscale>  0 0.55094483E+03</rscale>
<asrwt>0</asrwt>
<pdfrwt beam="1">  1        2 0.52179109E-01 0.55094483E+03</pdfrwt>
<pdfrwt beam="2">  1       -2 0.39208039E+00 0.55094483E+03</pdfrwt>
<totfact> 0.88521293E-01</totfact>
</mgrwt>
</event>
<event>
 4    1  0.5387657E-008  0.6701205E+03  0.7818608E-02  0.9769740E-01
          2   -1    0    0  501    0  0.00000000000E+00  0.00000000000E+00  0.21321813416E+04  0.21321813416E+04  0.25500000000E-02 0. -1.
         -2   -1    0    0    0  501 -0.00000000000E+00 -0.00000000000E+00 -0.22227149751E+03  0.22227149753E+03  0.25500000000E-02 0.  1.
    8880022    1    1    2    0    0 -0.15443672549E+03 -0.63389203460E+03  0.68532305523E+03  0.95850360289E+03  0.15294330000E+03 0.  0.
    8880022    1    1    2    0    0  0.15443672549E+03  0.63389203460E+03  0.12245867889E+04  0.13959492363E+04  0.15294330000E+03 0.  0.
<mgrwt>
<rscale>  0 0.67012049E+03</rscale>
<asrwt>0</asrwt>
<pdfrwt beam="1">  1        2 0.32802791E+00 0.67012049E+03</pdfrwt>
<pdfrwt beam="2">  1       -2 0.34195614E-01 0.67012049E+03</pdfrwt>
<totfact> 0.47123670E+01</totfact>
</mgrwt>
</event>
<event>
 4    1  0.5387657E-008  0.5022737E+03  0.7818608E-02  0.1013187E+00
         -2   -1    0    0    0  501 -0.00000000000E+00  0.00000000000E+00  0.30462644511E+03  0.30462644512E+03  0.25500000000E-02 0.  1.
          2   -1    0    0  501    0  0.00000000000E+00 -0.00000000000E+00 -0.17231926501E+04  0.17231926501E+04  0.25500000000E-02 0. -1.
    8880022    1    1    2    0    0 -0.44949059528E+03  0.16384574151E+03  0.21438896366E+02  0.50273104295E+03  0.15294330000E+03 0.  0.
    8880022    1    1    2    0    0  0.44949059528E+03 -0.16384574151E+03 -0.14400051014E+04  0.15250880523E+04  0.15294330000E+03 0.  0.
<mgrwt>
<rscale>  0 0.50227371E+03</rscale>
<asrwt>0</asrwt>
<pdfrwt beam="1">  1        2 0.26510655E+00 0.50227371E+03</pdfrwt>
<pdfrwt beam="2">  1       -2 0.46865608E-01 0.50227371E+03</pdfrwt>
<totfact> 0.43642949E+01</totfact>
</mgrwt>
</event>
<event>
 4    1  0.5387657E-008  0.4601979E+03  0.7818608E-02  0.1024724E+00
          2   -1    0    0  501    0  0.00000000000E+00  0.00000000000E+00  0.97375475762E+03  0.97375475762E+03  0.25500000000E-02 0. -1.
         -2   -1    0    0    0  501 -0.00000000000E+00 -0.00000000000E+00 -0.52254210122E+03  0.52254210122E+03  0.25500000000E-02 0.  1.
    8880022    1    1    2    0    0 -0.33520463610E+03  0.27573233087E+03  0.79723498310E+03  0.92052470778E+03  0.15294330000E+03 0.  0.
    8880022    1    1    2    0    0  0.33520463610E+03 -0.27573233087E+03 -0.34602232670E+03  0.57577215106E+03  0.15294330000E+03 0.  0.
<mgrwt>
<rscale>  0 0.46019791E+03</rscale>
<asrwt>0</asrwt>
<pdfrwt beam="1">  1        2 0.14980842E+00 0.46019791E+03</pdfrwt>
<pdfrwt beam="2">  1       -2 0.80391093E-01 0.46019791E+03</pdfrwt>
<totfact> 0.37619224E+01</totfact>
</mgrwt>
</event>
<event>
 4    1  0.5387657E-008  0.4283204E+03  0.7818608E-02  0.1034392E+00
          2   -1    0    0  501    0  0.00000000000E+00  0.00000000000E+00  0.69838255034E+03  0.69838255034E+03  0.25500000000E-02 0. -1.
         -2   -1    0    0    0  501 -0.00000000000E+00 -0.00000000000E+00 -0.24446916330E+04  0.24446916330E+04  0.25500000000E-02 0.  1.
    8880022    1    1    2    0    0 -0.39824129075E+03 -0.38348044739E+02 -0.23578592786E+04  0.23964471054E+04  0.15294330000E+03 0.  0.
    8880022    1    1    2    0    0  0.39824129075E+03  0.38348044739E+02  0.61155019601E+03  0.74662707789E+03  0.15294330000E+03 0. -1.
<mgrwt>
<rscale>  0 0.42832038E+03</rscale>
<asrwt>0</asrwt>
<pdfrwt beam="1">  1        2 0.10744347E+00 0.42832038E+03</pdfrwt>
<pdfrwt beam="2">  1       -2 0.37610640E+00 0.42832038E+03</pdfrwt>
<totfact> 0.50498365E-01</totfact>
</mgrwt>
</event>
<event>
 4    1  0.5387657E-008  0.1159081E+04  0.7818608E-02  0.9149446E-01
          2   -1    0    0  501    0  0.00000000000E+00  0.00000000000E+00  0.20697859824E+04  0.20697859824E+04  0.25500000000E-02 0. -1.
         -2   -1    0    0    0  501 -0.00000000000E+00 -0.00000000000E+00 -0.84021691062E+03  0.84021691062E+03  0.25500000000E-02 0.  1.
    8880022    1    1    2    0    0  0.82622712327E+03  0.79839024094E+03  0.13087418376E+04  0.17482205486E+04  0.15294330000E+03 0.  0.
    8880022    1    1    2    0    0 -0.82622712327E+03 -0.79839024094E+03 -0.79172765758E+02  0.11617823445E+04  0.15294330000E+03 0.  0.
<mgrwt>
<rscale>  0 0.11590815E+04</rscale>
<asrwt>0</asrwt>
<pdfrwt beam="1">  1        2 0.31842861E+00 0.11590815E+04</pdfrwt>
<pdfrwt beam="2">  1       -2 0.12926414E+00 0.11590815E+04</pdfrwt>
<totfact> 0.26381414E+00</totfact>
</mgrwt>
</event>
<event>
 4    1  0.5387657E-008  0.2257763E+03  0.7818608E-02  0.1129648E+00
         -2   -1    0    0    0  501 -0.00000000000E+00  0.00000000000E+00  0.55387261560E+02  0.55387261619E+02  0.25500000000E-02 0.  1.
          2   -1    0    0  501    0  0.00000000000E+00 -0.00000000000E+00 -0.11556392421E+04  0.11556392421E+04  0.25500000000E-02 0. -1.
    8880022    1    1    2    0    0  0.16216572979E+03  0.35854621724E+02 -0.27689761465E+03  0.35727751095E+03  0.15294330000E+03 0.  0.
    8880022    1    1    2    0    0 -0.16216572979E+03 -0.35854621724E+02 -0.82335436593E+03  0.85374899281E+03  0.15294330000E+03 0.  0.
<mgrwt>
<rscale>  0 0.22577628E+03</rscale>
<asrwt>0</asrwt>
<pdfrwt beam="1">  1        2 0.17779063E+00 0.22577628E+03</pdfrwt>
<pdfrwt beam="2">  1       -2 0.85211180E-02 0.22577628E+03</pdfrwt>
<totfact> 0.18138405E+03</totfact>
</mgrwt>
</event>
<event>
 4    1  0.5387657E-008  0.3802263E+03  0.7818608E-02  0.1050850E+00
         -2   -1    0    0    0  501 -0.00000000000E+00  0.00000000000E+00  0.27508729098E+03  0.27508729099E+03  0.25500000000E-02 0.  1.
          2   -1    0    0  501    0  0.00000000000E+00 -0.00000000000E+00 -0.56567986160E+03  0.56567986161E+03  0.25500000000E-02 0. -1.
    8880022    1    1    2    0    0  0.13897653673E+03  0.31916445026E+03 -0.25726460749E+03  0.45908295040E+03  0.15294330000E+03 0.  0.
    8880022    1    1    2    0    0 -0.13897653673E+03 -0.31916445026E+03 -0.33327963137E+02  0.38168420220E+03  0.15294330000E+03 0.  0.
<mgrwt>
<rscale>  0 0.38022635E+03</rscale>
<asrwt>0</asrwt>
<pdfrwt beam="1">  1        2 0.87027671E-01 0.38022635E+03</pdfrwt>
<pdfrwt beam="2">  1       -2 0.42321122E-01 0.38022635E+03</pdfrwt>
<totfact> 0.28884821E+02</totfact>
</mgrwt>
</event>
<event>
 4    1  0.5387657E-008  0.3274766E+03  0.7818608E-02  0.1072259E+00
         -2   -1    0    0    0  501 -0.00000000000E+00  0.00000000000E+00  0.31320276577E+03  0.31320276578E+03  0.25500000000E-02 0.  1.
          2   -1    0    0  501    0  0.00000000000E+00 -0.00000000000E+00 -0.50870977382E+03  0.50870977383E+03  0.25500000000E-02 0. -1.
    8880022    1    1    2    0    0 -0.25930875905E+03  0.12887293248E+03 -0.33272665569E+03  0.46684895381E+03  0.15294330000E+03 0. -1.
    8880022    1    1    2    0    0  0.25930875905E+03 -0.12887293248E+03  0.13721964765E+03  0.35506358580E+03  0.15294330000E+03 0.  0.
<mgrwt>
<rscale>  0 0.32747659E+03</rscale>
<asrwt>0</asrwt>
<pdfrwt beam="1">  1        2 0.78263042E-01 0.32747659E+03</pdfrwt>
<pdfrwt beam="2">  1       -2 0.48185041E-01 0.32747659E+03</pdfrwt>
<totfact> 0.25355089E+02</totfact>
</mgrwt>
</event>
<event>
 4    1  0.5387657E-008  0.6212774E+03  0.7818608E-02  0.9862220E-01
         -2   -1    0    0    0  501 -0.00000000000E+00  0.00000000000E+00  0.32585792199E+03  0.32585792200E+03  0.25500000000E-02 0.  1.
          2   -1    0    0  501    0  0.00000000000E+00 -0.00000000000E+00 -0.24317611166E+04  0.24317611166E+04  0.25500000000E-02 0. -1.
    8880022    1    1    2    0    0  0.30028952449E+03  0.52193888691E+03 -0.20404099767E+04  0.21328990895E+04  0.15294330000E+03 0.  0.
    8880022    1    1    2    0    0 -0.30028952449E+03 -0.52193888691E+03 -0.65493217955E+02  0.62471994909E+03  0.15294330000E+03 0.  0.
<mgrwt>
<rscale>  0 0.62127744E+03</rscale>
<asrwt>0</asrwt>
<pdfrwt beam="1">  1        2 0.37411708E+00 0.62127744E+03</pdfrwt>
<pdfrwt beam="2">  1       -2 0.50131989E-01 0.62127744E+03</pdfrwt>
<totfact> 0.15335143E+01</totfact>
</mgrwt>
</event>
<event>
 4    1  0.5387657E-008  0.6995936E+03  0.7818608E-02  0.9717927E-01
         -2   -1    0    0    0  501 -0.00000000000E+00  0.00000000000E+00  0.74866555776E+03  0.74866555776E+03  0.25500000000E-02 0.  1.
          2   -1    0    0  501    0  0.00000000000E+00 -0.00000000000E+00 -0.92995168304E+03  0.92995168305E+03  0.25500000000E-02 0. -1.
    8880022    1    1    2    0    0  0.64550922790E+03 -0.22216535567E+03  0.36677566517E+03  0.78990863405E+03  0.15294330000E+03 0.  1.
    8880022    1    1    2    0    0 -0.64550922790E+03  0.22216535567E+03 -0.54806179045E+03  0.88870860676E+03  0.15294330000E+03 0.  0.
<mgrwt>
<rscale>  0 0.69959364E+03</rscale>
<asrwt>0</asrwt>
<pdfrwt beam="1">  1        2 0.14306949E+00 0.69959364E+03</pdfrwt>
<pdfrwt beam="2">  1       -2 0.11517932E+00 0.69959364E+03</pdfrwt>
<totfact> 0.16798545E+01</totfact>
</mgrwt>
</event>
<event>
 4    1  0.5387657E-008  0.4795026E+03  0.7818608E-02  0.1019272E+00
         -2   -1    0    0    0  501 -0.00000000000E+00  0.00000000000E+00  0.18470226349E+03  0.18470226351E+03  0.25500000000E-02 0.  1.
          2   -1    0    0  501    0  0.00000000000E+00 -0.00000000000E+00 -0.27529850879E+04  0.27529850879E+04  0.25500000000E-02 0. -1.
    8880022    1    1    2    0    0 -0.41684723927E+03  0.18102329259E+03 -0.23713097996E+04  0.24193042124E+04  0.15294330000E+03 0.  0.
    8880022    1    1    2    0    0  0.41684723927E+03 -0.18102329259E+03 -0.19697302486E+03  0.51838313908E+03  0.15294330000E+03 0.  1.
<mgrwt>
<rscale>  0 0.47950256E+03</rscale>
<asrwt>0</asrwt>
<pdfrwt beam="1">  1        2 0.42353614E+00 0.47950256E+03</pdfrwt>
<pdfrwt beam="2">  1       -2 0.28415735E-01 0.47950256E+03</pdfrwt>
<totfact> 0.30932624E+01</totfact>
</mgrwt>
</event>
<event>
 4    1  0.5387657E-008  0.1237187E+04  0.7818608E-02  0.9080915E-01
          2   -1    0    0  501    0  0.00000000000E+00  0.00000000000E+00  0.15389015253E+04  0.15389015253E+04  0.25500000000E-02 0. -1.
         -2   -1    0    0    0  501 -0.00000000000E+00 -0.00000000000E+00 -0.14715185464E+04  0.14715185464E+04  0.25500000000E-02 0.  1.
    8880022    1    1    2    0    0 -0.12710919717E+03 -0.12210994837E+04  0.89057984607E+03  0.15243899804E+04  0.15294330000E+03 0.  0.
    8880022    1    1    2    0    0  0.12710919717E+03  0.12210994837E+04 -0.82319686718E+03  0.14860300913E+04  0.15294330000E+03 0.  0.
<mgrwt>
<rscale>  0 0.12371873E+04</rscale>
<asrwt>0</asrwt>
<pdfrwt beam="1">  1        2 0.23675408E+00 0.12371873E+04</pdfrwt>
<pdfrwt beam="2">  1       -2 0.22638747E+00 0.12371873E+04</pdfrwt>
<totfact> 0.10504725E+00</totfact>
</mgrwt>
</event>
<event>
 4    1  0.5387657E-008  0.3346232E+03  0.7818608E-02  0.1069109E+00
         -2   -1    0    0    0  501 -0.00000000000E+00  0.00000000000E+00  0.16534749807E+03  0.16534749809E+03  0.25500000000E-02 0.  1.
          2   -1    0    0  501    0  0.00000000000E+00 -0.00000000000E+00 -0.15456865071E+04  0.15456865071E+04  0.25500000000E-02 0. -1.
    8880022    1    1    2    0    0  0.19260290876E+03 -0.22690336220E+03 -0.13314535979E+04  0.13728588247E+04  0.15294330000E+03 0. -1.
    8880022    1    1    2    0    0 -0.19260290876E+03  0.22690336220E+03 -0.48885411130E+02  0.33817518046E+03  0.15294330000E+03 0.  0.
<mgrwt>
<rscale>  0 0.33462318E+03</rscale>
<asrwt>0</asrwt>
<pdfrwt beam="1">  1        2 0.23779791E+00 0.33462318E+03</pdfrwt>
<pdfrwt beam="2">  1       -2 0.25438078E-01 0.33462318E+03</pdfrwt>
<totfact> 0.17717410E+02</totfact>
</mgrwt>
</event>
<event>
 4    1  0.5387657E-008  0.1045678E+04  0.7818608E-02  0.9259817E-01
          2   -1    0    0  501    0  0.00000000000E+00  0.00000000000E+00  0.17060530049E+04  0.17060530049E+04  0.25500000000E-02 0. -1.
         -2   -1    0    0    0  501 -0.00000000000E+00 -0.00000000000E+00 -0.13480319440E+04  0.13480319440E+04  0.25500000000E-02 0.  1.
    8880022    1    1    2    0    0 -0.10343392315E+04 -0.13929999667E+02  0.12849850932E+04  0.16566924982E+04  0.15294330000E+03 0.  0.
    8880022    1    1    2    0    0  0.10343392315E+04  0.13929999667E+02 -0.92696403237E+03  0.13973924506E+04  0.15294330000E+03 0.  0.
<mgrwt>
<rscale>  0 0.10456784E+04</rscale>
<asrwt>0</asrwt>
<pdfrwt beam="1">  1        2 0.26246969E+00 0.10456784E+04</pdfrwt>
<pdfrwt beam="2">  1       -2 0.20738953E+00 0.10456784E+04</pdfrwt>
<totfact> 0.11460330E+00</totfact>
</mgrwt>
</event>
<event>
 4    1  0.5387657E-008  0.7943291E+03  0.7818608E-02  0.9568262E-01
          2   -1    0    0  501    0  0.00000000000E+00  0.00000000000E+00  0.15724882076E+04  0.15724882076E+04  0.25500000000E-02 0. -1.
         -2   -1    0    0    0  501 -0.00000000000E+00 -0.00000000000E+00 -0.64103034911E+03  0.64103034911E+03  0.25500000000E-02 0.  1.
    8880022    1    1    2    0    0 -0.36615023352E+03 -0.68811419933E+03  0.11426248186E+04  0.13915998972E+04  0.15294330000E+03 0.  0.
    8880022    1    1    2    0    0  0.36615023352E+03  0.68811419933E+03 -0.21116696009E+03  0.82191865952E+03  0.15294330000E+03 0.  0.
<mgrwt>
<rscale>  0 0.79432915E+03</rscale>
<asrwt>0</asrwt>
<pdfrwt beam="1">  1        2 0.24192126E+00 0.79432915E+03</pdfrwt>
<pdfrwt beam="2">  1       -2 0.98620055E-01 0.79432915E+03</pdfrwt>
<totfact> 0.10060406E+01</totfact>
</mgrwt>
</event>
<event>
 4    1  0.5387657E-008  0.5177679E+03  0.7818608E-02  0.1009243E+00
          2   -1    0    0  501    0  0.00000000000E+00  0.00000000000E+00  0.12220324491E+04  0.12220324491E+04  0.25500000000E-02 0. -1.
         -2   -1    0    0    0  501 -0.00000000000E+00 -0.00000000000E+00 -0.34827192739E+03  0.34827192740E+03  0.25500000000E-02 0.  1.
    8880022    1    1    2    0    0  0.31078994160E+03 -0.38483962883E+03 -0.40776138605E+02  0.51937103713E+03  0.15294330000E+03 0.  0.
    8880022    1    1    2    0    0 -0.31078994160E+03  0.38483962883E+03  0.91453666032E+03  0.10509333394E+04  0.15294330000E+03 0.  0.
<mgrwt>
<rscale>  0 0.51776788E+03</rscale>
<asrwt>0</asrwt>
<pdfrwt beam="1">  1        2 0.18800499E+00 0.51776788E+03</pdfrwt>
<pdfrwt beam="2">  1       -2 0.53580297E-01 0.51776788E+03</pdfrwt>
<totfact> 0.62938573E+01</totfact>
</mgrwt>
</event>
<event>
 4    1  0.5387657E-008  0.4140686E+03  0.7818608E-02  0.1039014E+00
          2   -1    0    0  501    0  0.00000000000E+00  0.00000000000E+00  0.70110768286E+03  0.70110768287E+03  0.25500000000E-02 0. -1.
         -2   -1    0    0    0  501 -0.00000000000E+00 -0.00000000000E+00 -0.30399638753E+03  0.30399638754E+03  0.25500000000E-02 0.  1.
    8880022    1    1    2    0    0  0.37718825114E+03  0.76093139529E+02  0.42079739746E+03  0.59035857359E+03  0.15294330000E+03 0.  0.
    8880022    1    1    2    0    0 -0.37718825114E+03 -0.76093139529E+02 -0.23686102130E+02  0.41474549682E+03  0.15294330000E+03 0.  0.
<mgrwt>
<rscale>  0 0.41406859E+03</rscale>
<asrwt>0</asrwt>
<pdfrwt beam="1">  1        2 0.10786272E+00 0.41406859E+03</pdfrwt>
<pdfrwt beam="2">  1       -2 0.46768675E-01 0.41406859E+03</pdfrwt>
<totfact> 0.18293229E+02</totfact>
</mgrwt>
</event>
<event>
 4    1  0.5387657E-008  0.9668544E+03  0.7818608E-02  0.9345665E-01
         -2   -1    0    0    0  501 -0.00000000000E+00  0.00000000000E+00  0.82466182059E+03  0.82466182060E+03  0.25500000000E-02 0.  1.
          2   -1    0    0  501    0  0.00000000000E+00 -0.00000000000E+00 -0.13101446167E+04  0.13101446167E+04  0.25500000000E-02 0. -1.
    8880022    1    1    2    0    0  0.43822163409E+02 -0.95367463864E+03 -0.63460940558E+03  0.11565191088E+04  0.15294330000E+03 0.  0.
    8880022    1    1    2    0    0 -0.43822163409E+02  0.95367463864E+03  0.14912660948E+03  0.97828732848E+03  0.15294330000E+03 0.  0.
<mgrwt>
<rscale>  0 0.96685436E+03</rscale>
<asrwt>0</asrwt>
<pdfrwt beam="1">  1        2 0.20156071E+00 0.96685436E+03</pdfrwt>
<pdfrwt beam="2">  1       -2 0.12687105E+00 0.96685436E+03</pdfrwt>
<totfact> 0.75021191E+00</totfact>
</mgrwt>
</event>
<event>
 4    1  0.5387657E-008  0.5918802E+03  0.7818608E-02  0.9922397E-01
         -2   -1    0    0    0  501 -0.00000000000E+00  0.00000000000E+00  0.63044270214E+03  0.63044270215E+03  0.25500000000E-02 0.  1.
          2   -1    0    0  501    0  0.00000000000E+00 -0.00000000000E+00 -0.96834328159E+03  0.96834328159E+03  0.25500000000E-02 0. -1.
    8880022    1    1    2    0    0 -0.41237661101E+03 -0.39607586896E+03 -0.69079994593E+03  0.90968499031E+03  0.15294330000E+03 0. -1.
    8880022    1    1    2    0    0  0.41237661101E+03  0.39607586896E+03  0.35289936648E+03  0.68910099344E+03  0.15294330000E+03 0.  0.
<mgrwt>
<rscale>  0 0.59188024E+03</rscale>
<asrwt>0</asrwt>
<pdfrwt beam="1">  1        2 0.14897589E+00 0.59188024E+03</pdfrwt>
<pdfrwt beam="2">  1       -2 0.96991185E-01 0.59188024E+03</pdfrwt>
<totfact> 0.24245814E+01</totfact>
</mgrwt>
</event>
<event>
 4    1  0.5387657E-008  0.5405628E+03  0.7818608E-02  0.1003702E+00
         -2   -1    0    0    0  501 -0.00000000000E+00  0.00000000000E+00  0.17467206065E+03  0.17467206067E+03  0.25500000000E-02 0.  1.
          2   -1    0    0  501    0  0.00000000000E+00 -0.00000000000E+00 -0.29390081697E+04  0.29390081697E+04  0.25500000000E-02 0. -1.
    8880022    1    1    2    0    0  0.47257791953E+03 -0.21327593829E+03 -0.36033550929E+03  0.64965363707E+03  0.15294330000E+03 0.  0.
    8880022    1    1    2    0    0 -0.47257791953E+03  0.21327593829E+03 -0.24040005997E+04  0.24640265933E+04  0.15294330000E+03 0.  0.
<mgrwt>
<rscale>  0 0.54056283E+03</rscale>
<asrwt>0</asrwt>
<pdfrwt beam="1">  1        2 0.45215507E+00 0.54056283E+03</pdfrwt>
<pdfrwt beam="2">  1       -2 0.26872627E-01 0.54056283E+03</pdfrwt>
<totfact> 0.26236734E+01</totfact>
</mgrwt>
</event>
<event>
 4    1  0.5387657E-008  0.1877411E+03  0.7818608E-02  0.1160515E+00
         -2   -1    0    0    0  501 -0.00000000000E+00  0.00000000000E+00  0.15184946942E+03  0.15184946944E+03  0.25500000000E-02 0.  1.
          2   -1    0    0  501    0  0.00000000000E+00 -0.00000000000E+00 -0.14275653912E+04  0.14275653912E+04  0.25500000000E-02 0. -1.
    8880022    1    1    2    0    0 -0.10815032969E+03  0.12592605179E+02 -0.13605175699E+04  0.13734099091E+04  0.15294330000E+03 0.  0.
    8880022    1    1    2    0    0  0.10815032969E+03 -0.12592605179E+02  0.84801648096E+02  0.20600495152E+03  0.15294330000E+03 0.  1.
<mgrwt>
<rscale>  0 0.18774110E+03</rscale>
<asrwt>0</asrwt>
<pdfrwt beam="1">  1        2 0.21962544E+00 0.18774110E+03</pdfrwt>
<pdfrwt beam="2">  1       -2 0.23361458E-01 0.18774110E+03</pdfrwt>
<totfact> 0.24566191E+02</totfact>
</mgrwt>
</event>
<event>
 4    1  0.5387657E-008  0.5649172E+03  0.7818608E-02  0.9980990E-01
          2   -1    0    0  501    0  0.00000000000E+00  0.00000000000E+00  0.74732174582E+03  0.74732174583E+03  0.25500000000E-02 0. -1.
         -2   -1    0    0    0  501 -0.00000000000E+00 -0.00000000000E+00 -0.14130816229E+04  0.14130816229E+04  0.25500000000E-02 0.  1.
    8880022    1    1    2    0    0 -0.48674106904E+03  0.24253447914E+03 -0.12352200418E+04  0.13582709768E+04  0.15294330000E+03 0.  0.
    8880022    1    1    2    0    0  0.48674106904E+03 -0.24253447914E+03  0.56946016473E+03  0.80213239188E+03  0.15294330000E+03 0.  0.
<mgrwt>
<rscale>  0 0.56491725E+03</rscale>
<asrwt>0</asrwt>
<pdfrwt beam="1">  1        2 0.11497258E+00 0.56491725E+03</pdfrwt>
<pdfrwt beam="2">  1       -2 0.21739717E+00 0.56491725E+03</pdfrwt>
<totfact> 0.40813911E+00</totfact>
</mgrwt>
</event>
<event>
 4    1  0.5387657E-008  0.1910828E+03  0.7818608E-02  0.1157488E+00
          2   -1    0    0  501    0  0.00000000000E+00  0.00000000000E+00  0.22652468835E+04  0.22652468835E+04  0.25500000000E-02 0. -1.
         -2   -1    0    0    0  501 -0.00000000000E+00 -0.00000000000E+00 -0.18765438813E+02  0.18765438986E+02  0.25500000000E-02 0.  1.
    8880022    1    1    2    0    0 -0.10247186027E+03 -0.51191003425E+02  0.69434552073E+03  0.72015856320E+03  0.15294330000E+03 0.  0.
    8880022    1    1    2    0    0  0.10247186027E+03  0.51191003425E+02  0.15521359240E+04  0.15638537593E+04  0.15294330000E+03 0.  0.
<mgrwt>
<rscale>  0 0.19108285E+03</rscale>
<asrwt>0</asrwt>
<pdfrwt beam="1">  1        2 0.34849968E+00 0.19108285E+03</pdfrwt>
<pdfrwt beam="2">  1       -2 0.28869893E-02 0.19108285E+03</pdfrwt>
<totfact> 0.24224417E+03</totfact>
</mgrwt>
</event>
<event>
 4    1  0.5387657E-008  0.1374472E+04  0.7818608E-02  0.8972507E-01
          2   -1    0    0  501    0  0.00000000000E+00  0.00000000000E+00  0.24896379129E+04  0.24896379129E+04  0.25500000000E-02 0. -1.
         -2   -1    0    0    0  501 -0.00000000000E+00 -0.00000000000E+00 -0.12647493263E+04  0.12647493263E+04  0.25500000000E-02 0.  1.
    8880022    1    1    2    0    0 -0.13283779482E+04 -0.31810762685E+03 -0.57483897022E+03  0.14898362092E+04  0.15294330000E+03 0.  0.
    8880022    1    1    2    0    0  0.13283779482E+04  0.31810762685E+03  0.17997275568E+04  0.22645510300E+04  0.15294330000E+03 0.  0.
<mgrwt>
<rscale>  0 0.13744716E+04</rscale>
<asrwt>0</asrwt>
<pdfrwt beam="1">  1        2 0.38302122E+00 0.13744716E+04</pdfrwt>
<pdfrwt beam="2">  1       -2 0.19457682E+00 0.13744716E+04</pdfrwt>
<totfact> 0.48631602E-01</totfact>
</mgrwt>
</event>
<event>
 4    1  0.5387657E-008  0.3176259E+03  0.7818608E-02  0.1076747E+00
          2   -1    0    0  501    0  0.00000000000E+00  0.00000000000E+00  0.69091419339E+03  0.69091419340E+03  0.25500000000E-02 0. -1.
         -2   -1    0    0    0  501 -0.00000000000E+00 -0.00000000000E+00 -0.47468179546E+03  0.47468179546E+03  0.25500000000E-02 0.  1.
    8880022    1    1    2    0    0 -0.25824372579E+03  0.10394588918E+03 -0.37682869742E+03  0.49283474918E+03  0.15294330000E+03 0.  0.
    8880022    1    1    2    0    0  0.25824372579E+03 -0.10394588918E+03  0.59306109535E+03  0.67276123968E+03  0.15294330000E+03 0. -1.
<mgrwt>
<rscale>  0 0.31762592E+03</rscale>
<asrwt>0</asrwt>
<pdfrwt beam="1">  1        2 0.10629449E+00 0.31762592E+03</pdfrwt>
<pdfrwt beam="2">  1       -2 0.73027969E-01 0.31762592E+03</pdfrwt>
<totfact> 0.74568388E+01</totfact>
</mgrwt>
</event>
<event>
 4    1  0.5387657E-008  0.3692774E+03  0.7818608E-02  0.1054970E+00
         -2   -1    0    0    0  501 -0.00000000000E+00  0.00000000000E+00  0.12001995134E+03  0.12001995137E+03  0.25500000000E-02 0.  1.
          2   -1    0    0  501    0  0.00000000000E+00 -0.00000000000E+00 -0.31694030109E+04  0.31694030109E+04  0.25500000000E-02 0. -1.
    8880022    1    1    2    0    0  0.82689051974E+02  0.32578618149E+03 -0.28420141953E+04  0.28659048231E+04  0.15294330000E+03 0.  0.
    8880022    1    1    2    0    0 -0.82689051974E+02 -0.32578618149E+03 -0.20736886421E+03  0.42351813920E+03  0.15294330000E+03 0.  0.
<mgrwt>
<rscale>  0 0.36927736E+03</rscale>
<asrwt>0</asrwt>
<pdfrwt beam="1">  1        2 0.48760040E+00 0.36927736E+03</pdfrwt>
<pdfrwt beam="2">  1       -2 0.18464610E-01 0.36927736E+03</pdfrwt>
<totfact> 0.38502227E+01</totfact>
</mgrwt>
</event>
<event>
 4    1  0.1050433E-007  0.8018572E+03  0.7818608E-02  0.9557333E-01
         -2   -1    0    0    0  501 -0.00000000000E+00  0.00000000000E+00  0.18709968479E+04  0.18709968479E+04  0.25500000000E-02 0.  1.
          2   -1    0    0  501    0  0.00000000000E+00 -0.00000000000E+00 -0.17533938631E+04  0.17533938631E+04  0.25500000000E-02 0. -1.
    8880022    1    1    2    0    0  0.77916284681E+03 -0.11175255122E+03  0.16837320475E+04  0.18649205440E+04  0.15294330000E+03 0.  0.
    8880022    1    1    2    0    0 -0.77916284681E+03  0.11175255122E+03 -0.15661290627E+04  0.17594701670E+04  0.15294330000E+03 0.  0.
<mgrwt>
<rscale>  0 0.80185724E+03</rscale>
<asrwt>0</asrwt>
<pdfrwt beam="1">  1        2 0.26975290E+00 0.80185724E+03</pdfrwt>
<pdfrwt beam="2">  1       -2 0.28784567E+00 0.80185724E+03</pdfrwt>
<totfact> 0.36093647E-01</totfact>
</mgrwt>
</event>
<event>
 4    1  0.5387657E-008  0.2682300E+03  0.7818608E-02  0.1102297E+00
          2   -1    0    0  501    0  0.00000000000E+00  0.00000000000E+00  0.78695630608E+03  0.78695630608E+03  0.25500000000E-02 0. -1.
         -2   -1    0    0    0  501 -0.00000000000E+00 -0.00000000000E+00 -0.31500039329E+03  0.31500039330E+03  0.25500000000E-02 0.  1.
    8880022    1    1    2    0    0  0.16659939719E+03  0.14422314120E+03 -0.22820712374E+03  0.35217299434E+03  0.15294330000E+03 0.  0.
    8880022    1    1    2    0    0 -0.16659939719E+03 -0.14422314120E+03  0.70016303653E+03  0.74978370504E+03  0.15294330000E+03 0.  0.
<mgrwt>
<rscale>  0 0.26822999E+03</rscale>
<asrwt>0</asrwt>
<pdfrwt beam="1">  1        2 0.12107020E+00 0.26822999E+03</pdfrwt>
<pdfrwt beam="2">  1       -2 0.48461599E-01 0.26822999E+03</pdfrwt>
<totfact> 0.14988451E+02</totfact>
</mgrwt>
</event>
<event>
 4    1  0.5387657E-008  0.8915127E+03  0.7818608E-02  0.9436254E-01
         -2   -1    0    0    0  501 -0.00000000000E+00  0.00000000000E+00  0.95003804883E+03  0.95003804883E+03  0.25500000000E-02 0.  1.
          2   -1    0    0  501    0  0.00000000000E+00 -0.00000000000E+00 -0.12198516243E+04  0.12198516243E+04  0.25500000000E-02 0. -1.
    8880022    1    1    2    0    0 -0.76808258334E+03 -0.42597225026E+03 -0.74304222201E+03  0.11605630571E+04  0.15294330000E+03 0.  0.
    8880022    1    1    2    0    0  0.76808258334E+03  0.42597225026E+03  0.47322864656E+03  0.10093266160E+04  0.15294330000E+03 0.  0.
<mgrwt>
<rscale>  0 0.89151268E+03</rscale>
<asrwt>0</asrwt>
<pdfrwt beam="1">  1        2 0.18766948E+00 0.89151268E+03</pdfrwt>
<pdfrwt beam="2">  1       -2 0.14615970E+00 0.89151268E+03</pdfrwt>
<totfact> 0.59335656E+00</totfact>
</mgrwt>
</event>
<event>
 4    1  0.5387657E-008  0.6026373E+03  0.7818608E-02  0.9899950E-01
         -2   -1    0    0    0  501 -0.00000000000E+00  0.00000000000E+00  0.38072172171E+03  0.38072172172E+03  0.25500000000E-02 0.  1.
          2   -1    0    0  501    0  0.00000000000E+00 -0.00000000000E+00 -0.19324342988E+04  0.19324342988E+04  0.25500000000E-02 0. -1.
    8880022    1    1    2    0    0 -0.31210254765E+03 -0.49231300548E+03 -0.15988752329E+04  0.17086760252E+04  0.15294330000E+03 0.  0.
    8880022    1    1    2    0    0  0.31210254765E+03  0.49231300548E+03  0.47162655851E+02  0.60447999531E+03  0.15294330000E+03 0.  0.
<mgrwt>
<rscale>  0 0.60263733E+03</rscale>
<asrwt>0</asrwt>
<pdfrwt beam="1">  1        2 0.29729758E+00 0.60263733E+03</pdfrwt>
<pdfrwt beam="2">  1       -2 0.58572573E-01 0.60263733E+03</pdfrwt>
<totfact> 0.20960092E+01</totfact>
</mgrwt>
</event>
<event>
 4    1  0.5387657E-008  0.3596918E+03  0.7818608E-02  0.1058706E+00
          2   -1    0    0  501    0  0.00000000000E+00  0.00000000000E+00  0.25752120900E+04  0.25752120900E+04  0.25500000000E-02 0. -1.
         -2   -1    0    0    0  501 -0.00000000000E+00 -0.00000000000E+00 -0.10748655398E+03  0.10748655401E+03  0.25500000000E-02 0.  1.
    8880022    1    1    2    0    0  0.29030737801E+03 -0.14733700725E+03  0.25495868615E+03  0.44088791330E+03  0.15294330000E+03 0.  0.
    8880022    1    1    2    0    0 -0.29030737801E+03  0.14733700725E+03  0.22127668498E+04  0.22418107307E+04  0.15294330000E+03 0. -1.
<mgrwt>
<rscale>  0 0.35969184E+03</rscale>
<asrwt>0</asrwt>
<pdfrwt beam="1">  1        2 0.39618646E+00 0.35969184E+03</pdfrwt>
<pdfrwt beam="2">  1       -2 0.16536393E-01 0.35969184E+03</pdfrwt>
<totfact> 0.10385538E+02</totfact>
</mgrwt>
</event>
<event>
 4    1  0.5387657E-008  0.1166052E+04  0.7818608E-02  0.9143102E-01
          2   -1    0    0  501    0  0.00000000000E+00  0.00000000000E+00  0.28825434025E+04  0.28825434025E+04  0.25500000000E-02 0. -1.
         -2   -1    0    0    0  501 -0.00000000000E+00 -0.00000000000E+00 -0.71947295354E+03  0.71947295354E+03  0.25500000000E-02 0.  1.
    8880022    1    1    2    0    0 -0.33984311379E+03 -0.11048943264E+04  0.21384531210E+04  0.24357048710E+04  0.15294330000E+03 0.  0.
    8880022    1    1    2    0    0  0.33984311379E+03  0.11048943264E+04  0.24617327954E+02  0.11663114851E+04  0.15294330000E+03 0.  0.
<mgrwt>
<rscale>  0 0.11660517E+04</rscale>
<asrwt>0</asrwt>
<pdfrwt beam="1">  1        2 0.44346822E+00 0.11660517E+04</pdfrwt>
<pdfrwt beam="2">  1       -2 0.11068815E+00 0.11660517E+04</pdfrwt>
<totfact> 0.13215951E+00</totfact>
</mgrwt>
</event>
<event>
 4    1  0.5387657E-008  0.3866508E+03  0.7818608E-02  0.1048503E+00
          2   -1    0    0  501    0  0.00000000000E+00  0.00000000000E+00  0.90524450457E+03  0.90524450457E+03  0.25500000000E-02 0. -1.
         -2   -1    0    0    0  501 -0.00000000000E+00 -0.00000000000E+00 -0.47576987054E+03  0.47576987055E+03  0.25500000000E-02 0.  1.
    8880022    1    1    2    0    0  0.35249603574E+03 -0.43054555346E+02  0.77267558499E+03  0.86401757078E+03  0.15294330000E+03 0. -1.
    8880022    1    1    2    0    0 -0.35249603574E+03  0.43054555346E+02 -0.34320095097E+03  0.51699680435E+03  0.15294330000E+03 0.  0.
<mgrwt>
<rscale>  0 0.38665075E+03</rscale>
<asrwt>0</asrwt>
<pdfrwt beam="1">  1        2 0.13926838E+00 0.38665075E+03</pdfrwt>
<pdfrwt beam="2">  1       -2 0.73195366E-01 0.38665075E+03</pdfrwt>
<totfact> 0.51821510E+01</totfact>
</mgrwt>
</event>
<event>
 4    1  0.5387657E-008  0.1060404E+04  0.7818608E-02  0.9244668E-01
          2   -1    0    0  501    0  0.00000000000E+00  0.00000000000E+00  0.47495836810E+04  0.47495836810E+04  0.25500000000E-02 0. -1.
         -2   -1    0    0    0  501 -0.00000000000E+00 -0.00000000000E+00 -0.32842301516E+03  0.32842301517E+03  0.25500000000E-02 0.  1.
    8880022    1    1    2    0    0  0.15021680523E+03  0.10385080178E+04  0.86913995483E+03  0.13710798320E+04  0.15294330000E+03 0.  0.
    8880022    1    1    2    0    0 -0.15021680523E+03 -0.10385080178E+04  0.35520207110E+04  0.37069268642E+04  0.15294330000E+03 0.  0.
<mgrwt>
<rscale>  0 0.10604035E+04</rscale>
<asrwt>0</asrwt>
<pdfrwt beam="1">  1        2 0.73070516E+00 0.10604035E+04</pdfrwt>
<pdfrwt beam="2">  1       -2 0.50526619E-01 0.10604035E+04</pdfrwt>
<totfact> 0.27001420E-01</totfact>
</mgrwt>
</event>
<event>
 4    1  0.5387657E-008  0.6143792E+03  0.7818608E-02  0.9876015E-01
          2   -1    0    0  501    0  0.00000000000E+00  0.00000000000E+00  0.17147253025E+04  0.17147253025E+04  0.25500000000E-02 0. -1.
         -2   -1    0    0    0  501 -0.00000000000E+00 -0.00000000000E+00 -0.23019392052E+03  0.23019392053E+03  0.25500000000E-02 0.  1.
    8880022    1    1    2    0    0 -0.49190872218E+02  0.59300119974E+03  0.94560277458E+03  0.11276641455E+04  0.15294330000E+03 0.  0.
    8880022    1    1    2    0    0  0.49190872218E+02 -0.59300119974E+03  0.53892860741E+03  0.81725507751E+03  0.15294330000E+03 0.  0.
<mgrwt>
<rscale>  0 0.61437921E+03</rscale>
<asrwt>0</asrwt>
<pdfrwt beam="1">  1        2 0.26380390E+00 0.61437921E+03</pdfrwt>
<pdfrwt beam="2">  1       -2 0.35414449E-01 0.61437921E+03</pdfrwt>
<totfact> 0.74877305E+01</totfact>
</mgrwt>
</event>
<event>
 4    1  0.5387657E-008  0.5782563E+03  0.7818608E-02  0.9951573E-01
          2   -1    0    0  501    0  0.00000000000E+00  0.00000000000E+00  0.21862478262E+04  0.21862478262E+04  0.25500000000E-02 0. -1.
         -2   -1    0    0    0  501 -0.00000000000E+00 -0.00000000000E+00 -0.30849305578E+03  0.30849305579E+03  0.25500000000E-02 0.  1.
    8880022    1    1    2    0    0  0.18663105916E+03 -0.52550698988E+03  0.18246087558E+04  0.19140474168E+04  0.15294330000E+03 0.  0.
    8880022    1    1    2    0    0 -0.18663105916E+03  0.52550698988E+03  0.53146014539E+02  0.58069346520E+03  0.15294330000E+03 0.  0.
<mgrwt>
<rscale>  0 0.57825635E+03</rscale>
<asrwt>0</asrwt>
<pdfrwt beam="1">  1        2 0.33634582E+00 0.57825635E+03</pdfrwt>
<pdfrwt beam="2">  1       -2 0.47460470E-01 0.57825635E+03</pdfrwt>
<totfact> 0.23593127E+01</totfact>
</mgrwt>
</event>
<event>
 4    1  0.5387657E-008  0.3309662E+03  0.7818608E-02  0.1070710E+00
          2   -1    0    0  501    0  0.00000000000E+00  0.00000000000E+00  0.25285360494E+04  0.25285360494E+04  0.25500000000E-02 0. -1.
         -2   -1    0    0    0  501 -0.00000000000E+00 -0.00000000000E+00 -0.10183928885E+03  0.10183928888E+03  0.25500000000E-02 0.  1.
    8880022    1    1    2    0    0 -0.29319409167E+03 -0.13571824017E+02  0.22103043697E+04  0.22349460909E+04  0.15294330000E+03 0.  0.
    8880022    1    1    2    0    0  0.29319409167E+03  0.13571824017E+02  0.21639239086E+03  0.39542924732E+03  0.15294330000E+03 0.  0.
<mgrwt>
<rscale>  0 0.33096620E+03</rscale>
<asrwt>0</asrwt>
<pdfrwt beam="1">  1        2 0.38900555E+00 0.33096620E+03</pdfrwt>
<pdfrwt beam="2">  1       -2 0.15667583E-01 0.33096620E+03</pdfrwt>
<totfact> 0.12161889E+02</totfact>
</mgrwt>
</event>
<event>
 4    1  0.5387657E-008  0.6412170E+03  0.7818608E-02  0.9823401E-01
         -2   -1    0    0    0  501 -0.00000000000E+00  0.00000000000E+00  0.19730791492E+04  0.19730791492E+04  0.25500000000E-02 0.  1.
          2   -1    0    0  501    0  0.00000000000E+00 -0.00000000000E+00 -0.30144677340E+03  0.30144677341E+03  0.25500000000E-02 0. -1.
    8880022    1    1    2    0    0 -0.80593105512E+02 -0.61747256496E+03  0.14677072567E+04  0.16016628427E+04  0.15294330000E+03 0.  0.
    8880022    1    1    2    0    0  0.80593105512E+02  0.61747256496E+03  0.20392511907E+03  0.67286307993E+03  0.15294330000E+03 0.  0.
<mgrwt>
<rscale>  0 0.64121702E+03</rscale>
<asrwt>0</asrwt>
<pdfrwt beam="1">  1        2 0.46376426E-01 0.64121702E+03</pdfrwt>
<pdfrwt beam="2">  1       -2 0.30355064E+00 0.64121702E+03</pdfrwt>
<totfact> 0.34914380E+00</totfact>
</mgrwt>
</event>
<event>
 4    1  0.5387657E-008  0.1532576E+04  0.7818608E-02  0.8863075E-01
         -2   -1    0    0    0  501 -0.00000000000E+00  0.00000000000E+00  0.93087245308E+03  0.93087245308E+03  0.25500000000E-02 0.  1.
          2   -1    0    0  501    0  0.00000000000E+00 -0.00000000000E+00 -0.31349645119E+04  0.31349645119E+04  0.25500000000E-02 0. -1.
    8880022    1    1    2    0    0 -0.73179615512E+03  0.13378608584E+04 -0.20000771326E+04  0.25197415500E+04  0.15294330000E+03 0.  0.
    8880022    1    1    2    0    0  0.73179615512E+03 -0.13378608584E+04 -0.20401492616E+03  0.15460954150E+04  0.15294330000E+03 0.  0.
<mgrwt>
<rscale>  0 0.15325759E+04</rscale>
<asrwt>0</asrwt>
<pdfrwt beam="1">  1        2 0.48230223E+00 0.15325759E+04</pdfrwt>
<pdfrwt beam="2">  1       -2 0.14321115E+00 0.15325759E+04</pdfrwt>
<totfact> 0.45782773E-01</totfact>
</mgrwt>
</event>
<event>
 4    1  0.5387657E-008  0.7746172E+03  0.7818608E-02  0.9597502E-01
          2   -1    0    0  501    0  0.00000000000E+00  0.00000000000E+00  0.29322131426E+04  0.29322131426E+04  0.25500000000E-02 0. -1.
         -2   -1    0    0    0  501 -0.00000000000E+00 -0.00000000000E+00 -0.38136977874E+03  0.38136977875E+03  0.25500000000E-02 0.  1.
    8880022    1    1    2    0    0 -0.72655170880E+03 -0.22082300565E+03  0.24032847865E+04  0.25250365549E+04  0.15294330000E+03 0.  0.
    8880022    1    1    2    0    0  0.72655170880E+03  0.22082300565E+03  0.14755857740E+03  0.78854636653E+03  0.15294330000E+03 0.  0.
<mgrwt>
<rscale>  0 0.77461722E+03</rscale>
<asrwt>0</asrwt>
<pdfrwt beam="1">  1        2 0.45110970E+00 0.77461722E+03</pdfrwt>
<pdfrwt beam="2">  1       -2 0.58672276E-01 0.77461722E+03</pdfrwt>
<totfact> 0.55162397E+00</totfact>
</mgrwt>
</event>
<event>
 4    1  0.5387657E-008  0.3054127E+03  0.7818608E-02  0.1082566E+00
          2   -1    0    0  501    0  0.00000000000E+00  0.00000000000E+00  0.27095392316E+03  0.27095392317E+03  0.25500000000E-02 0. -1.
         -2   -1    0    0    0  501 -0.00000000000E+00 -0.00000000000E+00 -0.95242186144E+03  0.95242186144E+03  0.25500000000E-02 0.  1.
    8880022    1    1    2    0    0 -0.20663460320E+03  0.16488597979E+03  0.14806134755E+03  0.33940987202E+03  0.15294330000E+03 0.  0.
    8880022    1    1    2    0    0  0.20663460320E+03 -0.16488597979E+03 -0.82952928583E+03  0.88396591260E+03  0.15294330000E+03 0.  0.
<mgrwt>
<rscale>  0 0.30541267E+03</rscale>
<asrwt>0</asrwt>
<pdfrwt beam="1">  1        2 0.41685220E-01 0.30541267E+03</pdfrwt>
<pdfrwt beam="2">  1       -2 0.14652644E+00 0.30541267E+03</pdfrwt>
<totfact> 0.41306160E+01</totfact>
</mgrwt>
</event>
<event>
 4    1  0.5387657E-008  0.2183228E+03  0.7818608E-02  0.1135140E+00
          2   -1    0    0  501    0  0.00000000000E+00  0.00000000000E+00  0.49530316878E+03  0.49530316878E+03  0.25500000000E-02 0. -1.
         -2   -1    0    0    0  501 -0.00000000000E+00 -0.00000000000E+00 -0.22595869446E+03  0.22595869447E+03  0.25500000000E-02 0.  1.
    8880022    1    1    2    0    0  0.15495590467E+03  0.16181572741E+02  0.40792236256E+03  0.46267211131E+03  0.15294330000E+03 0. -1.
    8880022    1    1    2    0    0 -0.15495590467E+03 -0.16181572741E+02 -0.13857788824E+03  0.25858975195E+03  0.15294330000E+03 0.  0.
<mgrwt>
<rscale>  0 0.21832276E+03</rscale>
<asrwt>0</asrwt>
<pdfrwt beam="1">  1        2 0.76200487E-01 0.21832276E+03</pdfrwt>
<pdfrwt beam="2">  1       -2 0.34762876E-01 0.21832276E+03</pdfrwt>
<totfact> 0.49299013E+02</totfact>
</mgrwt>
</event>
<event>
 4    1  0.5387657E-008  0.1945095E+03  0.7818608E-02  0.1154456E+00
         -2   -1    0    0    0  501 -0.00000000000E+00  0.00000000000E+00  0.20277890138E+02  0.20277890298E+02  0.25500000000E-02 0.  1.
          2   -1    0    0  501    0  0.00000000000E+00 -0.00000000000E+00 -0.33479378898E+04  0.33479378898E+04  0.25500000000E-02 0. -1.
    8880022    1    1    2    0    0 -0.81905807659E+02 -0.87941573150E+02 -0.27843755473E+04  0.27911612499E+04  0.15294330000E+03 0.  0.
    8880022    1    1    2    0    0  0.81905807659E+02  0.87941573150E+02 -0.54328445244E+03  0.57705453026E+03  0.15294330000E+03 0.  1.
<mgrwt>
<rscale>  0 0.19450947E+03</rscale>
<asrwt>0</asrwt>
<pdfrwt beam="1">  1        2 0.51506693E+00 0.19450947E+03</pdfrwt>
<pdfrwt beam="2">  1       -2 0.31196781E-02 0.19450947E+03</pdfrwt>
<totfact> 0.52046023E+02</totfact>
</mgrwt>
</event>
<event>
 4    1  0.5387657E-008  0.8603335E+03  0.7818608E-02  0.9476572E-01
          2   -1    0    0  501    0  0.00000000000E+00  0.00000000000E+00  0.15251800231E+04  0.15251800231E+04  0.25500000000E-02 0. -1.
         -2   -1    0    0    0  501 -0.00000000000E+00 -0.00000000000E+00 -0.98934670297E+03  0.98934670297E+03  0.25500000000E-02 0.  1.
    8880022    1    1    2    0    0  0.12415444846E+03 -0.83747701993E+03 -0.62948382478E+03  0.10660317184E+04  0.15294330000E+03 0.  0.
    8880022    1    1    2    0    0 -0.12415444846E+03  0.83747701993E+03  0.11653171449E+04  0.14484950077E+04  0.15294330000E+03 0.  0.
<mgrwt>
<rscale>  0 0.86033350E+03</rscale>
<asrwt>0</asrwt>
<pdfrwt beam="1">  1        2 0.23464308E+00 0.86033350E+03</pdfrwt>
<pdfrwt beam="2">  1       -2 0.15220719E+00 0.86033350E+03</pdfrwt>
<totfact> 0.35781225E+00</totfact>
</mgrwt>
</event>
<event>
 4    1  0.5387657E-008  0.5560110E+03  0.7818608E-02  0.1000112E+00
         -2   -1    0    0    0  501 -0.00000000000E+00  0.00000000000E+00  0.36857731115E+03  0.36857731116E+03  0.25500000000E-02 0.  1.
          2   -1    0    0  501    0  0.00000000000E+00 -0.00000000000E+00 -0.20792280750E+04  0.20792280750E+04  0.25500000000E-02 0. -1.
    8880022    1    1    2    0    0  0.52627036802E+03 -0.93787461145E+02  0.90015547541E+02  0.56325042382E+03  0.15294330000E+03 0.  0.
    8880022    1    1    2    0    0 -0.52627036802E+03  0.93787461145E+02 -0.18006663114E+04  0.18845549624E+04  0.15294330000E+03 0.  0.
<mgrwt>
<rscale>  0 0.55601101E+03</rscale>
<asrwt>0</asrwt>
<pdfrwt beam="1">  1        2 0.31988123E+00 0.55601101E+03</pdfrwt>
<pdfrwt beam="2">  1       -2 0.56704203E-01 0.55601101E+03</pdfrwt>
<totfact> 0.18836888E+01</totfact>
</mgrwt>
</event>
<event>
 4    1  0.5387657E-008  0.9479178E+03  0.7818608E-02  0.9367588E-01
         -2   -1    0    0    0  501 -0.00000000000E+00  0.00000000000E+00  0.10004700039E+04  0.10004700039E+04  0.25500000000E-02 0.  1.
          2   -1    0    0  501    0  0.00000000000E+00 -0.00000000000E+00 -0.17966779726E+04  0.17966779726E+04  0.25500000000E-02 0. -1.
    8880022    1    1    2    0    0 -0.52880420072E+03  0.77170117641E+03  0.59095432803E+03  0.11170386113E+04  0.15294330000E+03 0.  0.
    8880022    1    1    2    0    0  0.52880420072E+03 -0.77170117641E+03 -0.13871622967E+04  0.16801093651E+04  0.15294330000E+03 0.  0.
<mgrwt>
<rscale>  0 0.94791785E+03</rscale>
<asrwt>0</asrwt>
<pdfrwt beam="1">  1        2 0.27641200E+00 0.94791785E+03</pdfrwt>
<pdfrwt beam="2">  1       -2 0.15391846E+00 0.94791785E+03</pdfrwt>
<totfact> 0.24291801E+00</totfact>
</mgrwt>
</event>
<event>
 4    1  0.5387657E-008  0.3314626E+03  0.7818608E-02  0.1070492E+00
          2   -1    0    0  501    0  0.00000000000E+00  0.00000000000E+00  0.54410253342E+03  0.54410253343E+03  0.25500000000E-02 0. -1.
         -2   -1    0    0    0  501 -0.00000000000E+00 -0.00000000000E+00 -0.37490126152E+03  0.37490126153E+03  0.25500000000E-02 0.  1.
    8880022    1    1    2    0    0 -0.23649256089E+03 -0.17477711711E+03 -0.22752052723E+03  0.40203608712E+03  0.15294330000E+03 0.  0.
    8880022    1    1    2    0    0  0.23649256089E+03  0.17477711711E+03  0.39672179913E+03  0.51696770783E+03  0.15294330000E+03 0.  0.
<mgrwt>
<rscale>  0 0.33146255E+03</rscale>
<asrwt>0</asrwt>
<pdfrwt beam="1">  1        2 0.83708083E-01 0.33146255E+03</pdfrwt>
<pdfrwt beam="2">  1       -2 0.57677117E-01 0.33146255E+03</pdfrwt>
<totfact> 0.16289651E+02</totfact>
</mgrwt>
</event>
<event>
 4    1  0.5387657E-008  0.1877329E+03  0.7818608E-02  0.1160522E+00
         -2   -1    0    0    0  501 -0.00000000000E+00  0.00000000000E+00  0.48863430896E+02  0.48863430962E+02  0.25500000000E-02 0.  1.
          2   -1    0    0  501    0  0.00000000000E+00 -0.00000000000E+00 -0.95957373769E+03  0.95957373769E+03  0.25500000000E-02 0. -1.
    8880022    1    1    2    0    0  0.32522592446E+02 -0.10389554909E+03 -0.20408182160E+03  0.27729595573E+03  0.15294330000E+03 0.  0.
    8880022    1    1    2    0    0 -0.32522592446E+02  0.10389554909E+03 -0.70662848519E+03  0.73114121292E+03  0.15294330000E+03 0.  1.
<mgrwt>
<rscale>  0 0.18773294E+03</rscale>
<asrwt>0</asrwt>
<pdfrwt beam="1">  1        2 0.14762672E+00 0.18773294E+03</pdfrwt>
<pdfrwt beam="2">  1       -2 0.75174516E-02 0.18773294E+03</pdfrwt>
<totfact> 0.28779917E+03</totfact>
</mgrwt>
</event>
<event>
 4    1  0.5387657E-008  0.6222589E+03  0.7818608E-02  0.9860273E-01
          2   -1    0    0  501    0  0.00000000000E+00  0.00000000000E+00  0.21248711535E+04  0.21248711535E+04  0.25500000000E-02 0. -1.
         -2   -1    0    0    0  501 -0.00000000000E+00 -0.00000000000E+00 -0.60777035411E+03  0.60777035412E+03  0.25500000000E-02 0.  1.
    8880022    1    1    2    0    0 -0.38804000141E+03  0.46177850888E+03  0.19018379905E+04  0.20010481826E+04  0.15294330000E+03 0.  0.
    8880022    1    1    2    0    0  0.38804000141E+03 -0.46177850888E+03 -0.38473719112E+03  0.73159332501E+03  0.15294330000E+03 0.  1.
<mgrwt>
<rscale>  0 0.62225886E+03</rscale>
<asrwt>0</asrwt>
<pdfrwt beam="1">  1        2 0.32690325E+00 0.62225886E+03</pdfrwt>
<pdfrwt beam="2">  1       -2 0.93503132E-01 0.62225886E+03</pdfrwt>
<totfact> 0.58547189E+00</totfact>
</mgrwt>
</event>
<event>
 4    1  0.5387657E-008  0.6652293E+03  0.7818608E-02  0.9778615E-01
          2   -1    0    0  501    0  0.00000000000E+00  0.00000000000E+00  0.22108053505E+04  0.22108053505E+04  0.25500000000E-02 0. -1.
         -2   -1    0    0    0  501 -0.00000000000E+00 -0.00000000000E+00 -0.20372634494E+03  0.20372634496E+03  0.25500000000E-02 0.  1.
    8880022    1    1    2    0    0 -0.61388129126E+03 -0.20564063690E+03  0.84396153871E+03  0.10746166959E+04  0.15294330000E+03 0.  0.
    8880022    1    1    2    0    0  0.61388129126E+03  0.20564063690E+03  0.11631174669E+04  0.13399149995E+04  0.15294330000E+03 0.  0.
<mgrwt>
<rscale>  0 0.66522926E+03</rscale>
<asrwt>0</asrwt>
<pdfrwt beam="1">  1        2 0.34012387E+00 0.66522926E+03</pdfrwt>
<pdfrwt beam="2">  1       -2 0.31342518E-01 0.66522926E+03</pdfrwt>
<totfact> 0.50298501E+01</totfact>
</mgrwt>
</event>
<event>
 4    1  0.5387657E-008  0.3787779E+03  0.7818608E-02  0.1051386E+00
          2   -1    0    0  501    0  0.00000000000E+00  0.00000000000E+00  0.22120284583E+04  0.22120284583E+04  0.25500000000E-02 0. -1.
         -2   -1    0    0    0  501 -0.00000000000E+00 -0.00000000000E+00 -0.97156823838E+02  0.97156823872E+02  0.25500000000E-02 0.  1.
    8880022    1    1    2    0    0  0.21840919723E+03 -0.26903248634E+03  0.17231232936E+04  0.17642637541E+04  0.15294330000E+03 0.  0.
    8880022    1    1    2    0    0 -0.21840919723E+03  0.26903248634E+03  0.39174834081E+03  0.54492152800E+03  0.15294330000E+03 0.  0.
<mgrwt>
<rscale>  0 0.37877792E+03</rscale>
<asrwt>0</asrwt>
<pdfrwt beam="1">  1        2 0.34031203E+00 0.37877792E+03</pdfrwt>
<pdfrwt beam="2">  1       -2 0.14947205E-01 0.37877792E+03</pdfrwt>
<totfact> 0.19376386E+02</totfact>
</mgrwt>
</event>
<event>
 4    1  0.5387657E-008  0.8993188E+03  0.7818608E-02  0.9426433E-01
          2   -1    0    0  501    0  0.00000000000E+00  0.00000000000E+00  0.21855170392E+04  0.21855170392E+04  0.25500000000E-02 0. -1.
         -2   -1    0    0    0  501 -0.00000000000E+00 -0.00000000000E+00 -0.39320269791E+03  0.39320269792E+03  0.25500000000E-02 0.  1.
    8880022    1    1    2    0    0 -0.91975440941E+01 -0.88617043538E+03  0.12089558730E+04  0.15067675969E+04  0.15294330000E+03 0.  0.
    8880022    1    1    2    0    0  0.91975440941E+01  0.88617043538E+03  0.58335846838E+03  0.10719521403E+04  0.15294330000E+03 0.  0.
<mgrwt>
<rscale>  0 0.89931879E+03</rscale>
<asrwt>0</asrwt>
<pdfrwt beam="1">  1        2 0.33623339E+00 0.89931879E+03</pdfrwt>
<pdfrwt beam="2">  1       -2 0.60492722E-01 0.89931879E+03</pdfrwt>
<totfact> 0.13638119E+01</totfact>
</mgrwt>
</event>
<event>
 4    1  0.5387657E-008  0.2841776E+03  0.7818608E-02  0.1093429E+00
         -2   -1    0    0    0  501 -0.00000000000E+00  0.00000000000E+00  0.64508232358E+03  0.64508232358E+03  0.25500000000E-02 0.  1.
          2   -1    0    0  501    0  0.00000000000E+00 -0.00000000000E+00 -0.92922832950E+03  0.92922832950E+03  0.25500000000E-02 0. -1.
    8880022    1    1    2    0    0 -0.14403557819E+03  0.19136096195E+03  0.59014092650E+03  0.65499865014E+03  0.15294330000E+03 0.  1.
    8880022    1    1    2    0    0  0.14403557819E+03 -0.19136096195E+03 -0.87428693242E+03  0.91931200295E+03  0.15294330000E+03 0.  0.
<mgrwt>
<rscale>  0 0.28417762E+03</rscale>
<asrwt>0</asrwt>
<pdfrwt beam="1">  1        2 0.14295821E+00 0.28417762E+03</pdfrwt>
<pdfrwt beam="2">  1       -2 0.99243434E-01 0.28417762E+03</pdfrwt>
<totfact> 0.25718266E+01</totfact>
</mgrwt>
</event>
<event>
 4    1  0.5387657E-008  0.2221805E+03  0.7818608E-02  0.1132268E+00
          2   -1    0    0  501    0  0.00000000000E+00  0.00000000000E+00  0.17150328060E+04  0.17150328060E+04  0.25500000000E-02 0. -1.
         -2   -1    0    0    0  501 -0.00000000000E+00 -0.00000000000E+00 -0.20226606005E+03  0.20226606006E+03  0.25500000000E-02 0.  1.
    8880022    1    1    2    0    0 -0.10519555754E+03  0.12209185530E+03  0.16442067263E+04  0.16591503663E+04  0.15294330000E+03 0. -1.
    8880022    1    1    2    0    0  0.10519555754E+03 -0.12209185530E+03 -0.13143998032E+03  0.25814849970E+03  0.15294330000E+03 0.  0.
<mgrwt>
<rscale>  0 0.22218051E+03</rscale>
<asrwt>0</asrwt>
<pdfrwt beam="1">  1        2 0.26385120E+00 0.22218051E+03</pdfrwt>
<pdfrwt beam="2">  1       -2 0.31117856E-01 0.22218051E+03</pdfrwt>
<totfact> 0.10290747E+02</totfact>
</mgrwt>
</event>
<event>
 4    1  0.5387657E-008  0.6880503E+03  0.7818608E-02  0.9737889E-01
          2   -1    0    0  501    0  0.00000000000E+00  0.00000000000E+00  0.22725944596E+04  0.22725944596E+04  0.25500000000E-02 0. -1.
         -2   -1    0    0    0  501 -0.00000000000E+00 -0.00000000000E+00 -0.36095094857E+03  0.36095094858E+03  0.25500000000E-02 0.  1.
    8880022    1    1    2    0    0  0.35145756324E+03 -0.57140109265E+03  0.18121032044E+04  0.19383320933E+04  0.15294330000E+03 0.  0.
    8880022    1    1    2    0    0 -0.35145756324E+03  0.57140109265E+03  0.99540306537E+02  0.69521331480E+03  0.15294330000E+03 0.  0.
<mgrwt>
<rscale>  0 0.68805035E+03</rscale>
<asrwt>0</asrwt>
<pdfrwt beam="1">  1        2 0.34962992E+00 0.68805035E+03</pdfrwt>
<pdfrwt beam="2">  1       -2 0.55530915E-01 0.68805035E+03</pdfrwt>
<totfact> 0.15058187E+01</totfact>
</mgrwt>
</event>
<event>
 4    1  0.5387657E-008  0.4803581E+03  0.7818608E-02  0.1019037E+00
         -2   -1    0    0    0  501 -0.00000000000E+00  0.00000000000E+00  0.10929601464E+03  0.10929601467E+03  0.25500000000E-02 0.  1.
          2   -1    0    0  501    0  0.00000000000E+00 -0.00000000000E+00 -0.35232084451E+04  0.35232084451E+04  0.25500000000E-02 0. -1.
    8880022    1    1    2    0    0 -0.42571668437E+03 -0.16160929923E+03 -0.55714056274E+03  0.73562865674E+03  0.15294330000E+03 0.  0.
    8880022    1    1    2    0    0  0.42571668437E+03  0.16160929923E+03 -0.28567718677E+04  0.28968758030E+04  0.15294330000E+03 0.  0.
<mgrwt>
<rscale>  0 0.48035811E+03</rscale>
<asrwt>0</asrwt>
<pdfrwt beam="1">  1        2 0.54203198E+00 0.48035811E+03</pdfrwt>
<pdfrwt beam="2">  1       -2 0.16814774E-01 0.48035811E+03</pdfrwt>
<totfact> 0.25780728E+01</totfact>
</mgrwt>
</event>
<event>
 4    1  0.5387657E-008  0.2063263E+03  0.7818608E-02  0.1144509E+00
          2   -1    0    0  501    0  0.00000000000E+00  0.00000000000E+00  0.17224811891E+03  0.17224811893E+03  0.25500000000E-02 0. -1.
         -2   -1    0    0    0  501 -0.00000000000E+00 -0.00000000000E+00 -0.49636467192E+03  0.49636467192E+03  0.25500000000E-02 0.  1.
    8880022    1    1    2    0    0 -0.42640297707E+02 -0.13176003179E+03 -0.39894129740E+03  0.44913774363E+03  0.15294330000E+03 0.  0.
    8880022    1    1    2    0    0  0.42640297707E+02  0.13176003179E+03  0.74824744392E+02  0.21947504722E+03  0.15294330000E+03 0.  0.
<mgrwt>
<rscale>  0 0.20632633E+03</rscale>
<asrwt>0</asrwt>
<pdfrwt beam="1">  1        2 0.26499711E-01 0.20632633E+03</pdfrwt>
<pdfrwt beam="2">  1       -2 0.76363795E-01 0.20632633E+03</pdfrwt>
<totfact> 0.31936112E+02</totfact>
</mgrwt>
</event>
<event>
 4    1  0.5387657E-008  0.4189566E+03  0.7818608E-02  0.1037406E+00
         -2   -1    0    0    0  501 -0.00000000000E+00  0.00000000000E+00  0.22805699034E+03  0.22805699036E+03  0.25500000000E-02 0.  1.
          2   -1    0    0  501    0  0.00000000000E+00 -0.00000000000E+00 -0.84201785063E+03  0.84201785063E+03  0.25500000000E-02 0. -1.
    8880022    1    1    2    0    0 -0.19743791015E+03 -0.33637964565E+03 -0.15012893914E+03  0.44504308303E+03  0.15294330000E+03 0.  0.
    8880022    1    1    2    0    0  0.19743791015E+03  0.33637964565E+03 -0.46383192115E+03  0.62503175796E+03  0.15294330000E+03 0.  0.
<mgrwt>
<rscale>  0 0.41895662E+03</rscale>
<asrwt>0</asrwt>
<pdfrwt beam="1">  1        2 0.12954121E+00 0.41895662E+03</pdfrwt>
<pdfrwt beam="2">  1       -2 0.35085691E-01 0.41895662E+03</pdfrwt>
<totfact> 0.25238934E+02</totfact>
</mgrwt>
</event>
<event>
 4    1  0.5387657E-008  0.3858134E+03  0.7818608E-02  0.1048806E+00
          2   -1    0    0  501    0  0.00000000000E+00  0.00000000000E+00  0.28040570011E+04  0.28040570011E+04  0.25500000000E-02 0. -1.
         -2   -1    0    0    0  501 -0.00000000000E+00 -0.00000000000E+00 -0.27926933429E+03  0.27926933430E+03  0.25500000000E-02 0.  1.
    8880022    1    1    2    0    0 -0.12001142748E+03  0.33325297814E+03  0.26498191661E+04  0.26777590549E+04  0.15294330000E+03 0. -1.
    8880022    1    1    2    0    0  0.12001142748E+03 -0.33325297814E+03 -0.12503149929E+03  0.40556728048E+03  0.15294330000E+03 0.  0.
<mgrwt>
<rscale>  0 0.38581335E+03</rscale>
<asrwt>0</asrwt>
<pdfrwt beam="1">  1        2 0.43139337E+00 0.38581335E+03</pdfrwt>
<pdfrwt beam="2">  1       -2 0.42964515E-01 0.38581335E+03</pdfrwt>
<totfact> 0.13600468E+01</totfact>
</mgrwt>
</event>
<event>
 4    1  0.5387657E-008  0.5222521E+03  0.7818608E-02  0.1008129E+00
          2   -1    0    0  501    0  0.00000000000E+00  0.00000000000E+00  0.10959499930E+04  0.10959499930E+04  0.25500000000E-02 0. -1.
         -2   -1    0    0    0  501 -0.00000000000E+00 -0.00000000000E+00 -0.28228514923E+03  0.28228514924E+03  0.25500000000E-02 0.  1.
    8880022    1    1    2    0    0  0.21248249310E+02 -0.49890296067E+03  0.64393239392E+03  0.82909362151E+03  0.15294330000E+03 0.  0.
    8880022    1    1    2    0    0 -0.21248249310E+02  0.49890296067E+03  0.16973244987E+03  0.54914152076E+03  0.15294330000E+03 0.  0.
<mgrwt>
<rscale>  0 0.52225215E+03</rscale>
<asrwt>0</asrwt>
<pdfrwt beam="1">  1        2 0.16860769E+00 0.52225215E+03</pdfrwt>
<pdfrwt beam="2">  1       -2 0.43428485E-01 0.52225215E+03</pdfrwt>
<totfact> 0.11395386E+02</totfact>
</mgrwt>
</event>
<event>
 4    1  0.5387657E-008  0.3883576E+03  0.7818608E-02  0.1047887E+00
          2   -1    0    0  501    0  0.00000000000E+00  0.00000000000E+00  0.64990762323E+03  0.64990762324E+03  0.25500000000E-02 0. -1.
         -2   -1    0    0    0  501 -0.00000000000E+00 -0.00000000000E+00 -0.76718838278E+03  0.76718838278E+03  0.25500000000E-02 0.  1.
    8880022    1    1    2    0    0 -0.23553321866E+03 -0.26824262992E+03  0.53311839343E+03  0.65957325600E+03  0.15294330000E+03 0.  0.
    8880022    1    1    2    0    0  0.23553321866E+03  0.26824262992E+03 -0.65039915297E+03  0.75752275002E+03  0.15294330000E+03 0.  0.
<mgrwt>
<rscale>  0 0.38835764E+03</rscale>
<asrwt>0</asrwt>
<pdfrwt beam="1">  1        2 0.99985789E-01 0.38835764E+03</pdfrwt>
<pdfrwt beam="2">  1       -2 0.11802898E+00 0.38835764E+03</pdfrwt>
<totfact> 0.26310779E+01</totfact>
</mgrwt>
</event>
<event>
 4    1  0.5387657E-008  0.3888684E+03  0.7818608E-02  0.1047704E+00
          2   -1    0    0  501    0  0.00000000000E+00  0.00000000000E+00  0.26740154287E+04  0.26740154287E+04  0.25500000000E-02 0. -1.
         -2   -1    0    0    0  501 -0.00000000000E+00 -0.00000000000E+00 -0.19099208335E+03  0.19099208337E+03  0.25500000000E-02 0.  1.
    8880022    1    1    2    0    0 -0.27893751088E+03 -0.22365345989E+03  0.24433715568E+04  0.24741227178E+04  0.15294330000E+03 0.  0.
    8880022    1    1    2    0    0  0.27893751088E+03  0.22365345989E+03  0.39651788617E+02  0.39088479434E+03  0.15294330000E+03 0.  0.
<mgrwt>
<rscale>  0 0.38886843E+03</rscale>
<asrwt>0</asrwt>
<pdfrwt beam="1">  1        2 0.41138699E+00 0.38886843E+03</pdfrwt>
<pdfrwt beam="2">  1       -2 0.29383397E-01 0.38886843E+03</pdfrwt>
<totfact> 0.33080233E+01</totfact>
</mgrwt>
</event>
<event>
 4    1  0.5387657E-008  0.7844320E+03  0.7818608E-02  0.9582829E-01
         -2   -1    0    0    0  501 -0.00000000000E+00  0.00000000000E+00  0.41096477113E+03  0.41096477114E+03  0.25500000000E-02 0.  1.
          2   -1    0    0  501    0  0.00000000000E+00 -0.00000000000E+00 -0.15997732761E+04  0.15997732761E+04  0.25500000000E-02 0. -1.
    8880022    1    1    2    0    0 -0.63855138831E+03 -0.42917833341E+03 -0.33994273067E+03  0.85492375714E+03  0.15294330000E+03 0.  0.
    8880022    1    1    2    0    0  0.63855138831E+03  0.42917833341E+03 -0.84886577426E+03  0.11558142901E+04  0.15294330000E+03 0.  0.
<mgrwt>
<rscale>  0 0.78443200E+03</rscale>
<asrwt>0</asrwt>
<pdfrwt beam="1">  1        2 0.24611896E+00 0.78443200E+03</pdfrwt>
<pdfrwt beam="2">  1       -2 0.63225350E-01 0.78443200E+03</pdfrwt>
<totfact> 0.26390734E+01</totfact>
</mgrwt>
</event>
<event>
 4    1  0.5387657E-008  0.2297191E+03  0.7818608E-02  0.1126838E+00
         -2   -1    0    0    0  501 -0.00000000000E+00  0.00000000000E+00  0.19752300882E+04  0.19752300882E+04  0.25500000000E-02 0.  1.
          2   -1    0    0  501    0  0.00000000000E+00 -0.00000000000E+00 -0.39843144053E+03  0.39843144054E+03  0.25500000000E-02 0. -1.
    8880022    1    1    2    0    0 -0.13030802607E+03  0.11135083141E+03 -0.35795036965E+03  0.42532259458E+03  0.15294330000E+03 0.  0.
    8880022    1    1    2    0    0  0.13030802607E+03 -0.11135083141E+03  0.19347490173E+04  0.19483389341E+04  0.15294330000E+03 0.  1.
<mgrwt>
<rscale>  0 0.22971905E+03</rscale>
<asrwt>0</asrwt>
<pdfrwt beam="1">  1        2 0.61297144E-01 0.22971905E+03</pdfrwt>
<pdfrwt beam="2">  1       -2 0.30388155E+00 0.22971905E+03</pdfrwt>
<totfact> 0.28666242E+00</totfact>
</mgrwt>
</event>
<event>
 4    1  0.5387657E-008  0.4437395E+03  0.7818608E-02  0.1029606E+00
          2   -1    0    0  501    0  0.00000000000E+00  0.00000000000E+00  0.17793915256E+04  0.17793915256E+04  0.25500000000E-02 0. -1.
         -2   -1    0    0    0  501 -0.00000000000E+00 -0.00000000000E+00 -0.11769777833E+03  0.11769777836E+03  0.25500000000E-02 0.  1.
    8880022    1    1    2    0    0 -0.41539649100E+03 -0.30965180001E+02  0.10628205497E+04  0.11517344577E+04  0.15294330000E+03 0.  0.
    8880022    1    1    2    0    0  0.41539649100E+03  0.30965180001E+02  0.59887319754E+03  0.74535484627E+03  0.15294330000E+03 0.  1.
<mgrwt>
<rscale>  0 0.44373950E+03</rscale>
<asrwt>0</asrwt>
<pdfrwt beam="1">  1        2 0.27375255E+00 0.44373950E+03</pdfrwt>
<pdfrwt beam="2">  1       -2 0.18107350E-01 0.44373950E+03</pdfrwt>
<totfact> 0.23640943E+02</totfact>
</mgrwt>
</event>
<event>
 4    1  0.5387657E-008  0.5846264E+03  0.7818608E-02  0.9937825E-01
          2   -1    0    0  501    0  0.00000000000E+00  0.00000000000E+00  0.28765702129E+04  0.28765702129E+04  0.25500000000E-02 0. -1.
         -2   -1    0    0    0  501 -0.00000000000E+00 -0.00000000000E+00 -0.35052533744E+03  0.35052533745E+03  0.25500000000E-02 0.  1.
    8880022    1    1    2    0    0  0.52882264708E+03  0.19683228765E+03  0.25748964233E+04  0.26404317043E+04  0.15294330000E+03 0.  0.
    8880022    1    1    2    0    0 -0.52882264708E+03 -0.19683228765E+03 -0.48851547809E+02  0.58666384605E+03  0.15294330000E+03 0.  0.
<mgrwt>
<rscale>  0 0.58462637E+03</rscale>
<asrwt>0</asrwt>
<pdfrwt beam="1">  1        2 0.44254926E+00 0.58462637E+03</pdfrwt>
<pdfrwt beam="2">  1       -2 0.53926975E-01 0.58462637E+03</pdfrwt>
<totfact> 0.73859527E+00</totfact>
</mgrwt>
</event>
<event>
 4    1  0.5387657E-008  0.7918118E+03  0.7818608E-02  0.9571945E-01
         -2   -1    0    0    0  501 -0.00000000000E+00  0.00000000000E+00  0.11494407945E+04  0.11494407945E+04  0.25500000000E-02 0.  1.
          2   -1    0    0  501    0  0.00000000000E+00 -0.00000000000E+00 -0.69914710451E+03  0.69914710452E+03  0.25500000000E-02 0. -1.
    8880022    1    1    2    0    0  0.32227430065E+00 -0.77690032452E+03  0.65851251512E+03  0.10298565937E+04  0.15294330000E+03 0.  0.
    8880022    1    1    2    0    0 -0.32227430065E+00  0.77690032452E+03 -0.20821882512E+03  0.81873130528E+03  0.15294330000E+03 0.  0.
<mgrwt>
<rscale>  0 0.79181176E+03</rscale>
<asrwt>0</asrwt>
<pdfrwt beam="1">  1        2 0.10756109E+00 0.79181176E+03</pdfrwt>
<pdfrwt beam="2">  1       -2 0.17683704E+00 0.79181176E+03</pdfrwt>
<totfact> 0.79289401E+00</totfact>
</mgrwt>
</event>
<event>
 4    1  0.5387657E-008  0.2676908E+03  0.7818608E-02  0.1102609E+00
          2   -1    0    0  501    0  0.00000000000E+00  0.00000000000E+00  0.18204111472E+04  0.18204111472E+04  0.25500000000E-02 0. -1.
         -2   -1    0    0    0  501 -0.00000000000E+00 -0.00000000000E+00 -0.93250883307E+03  0.93250883307E+03  0.25500000000E-02 0.  1.
    8880022    1    1    2    0    0 -0.56777772541E+02  0.21223333833E+03  0.17910457750E+04  0.18109399014E+04  0.15294330000E+03 0. -1.
    8880022    1    1    2    0    0  0.56777772541E+02 -0.21223333833E+03 -0.90314346079E+03  0.94198007895E+03  0.15294330000E+03 0.  0.
<mgrwt>
<rscale>  0 0.26769079E+03</rscale>
<asrwt>0</asrwt>
<pdfrwt beam="1">  1        2 0.28006325E+00 0.26769079E+03</pdfrwt>
<pdfrwt beam="2">  1       -2 0.14346290E+00 0.26769079E+03</pdfrwt>
<totfact> 0.33545767E+00</totfact>
</mgrwt>
</event>
<event>
 4    1  0.5387657E-008  0.2020495E+03  0.7818608E-02  0.1148021E+00
         -2   -1    0    0    0  501 -0.00000000000E+00  0.00000000000E+00  0.49830560157E+02  0.49830560223E+02  0.25500000000E-02 0.  1.
          2   -1    0    0  501    0  0.00000000000E+00 -0.00000000000E+00 -0.15212047232E+04  0.15212047232E+04  0.25500000000E-02 0. -1.
    8880022    1    1    2    0    0  0.12395243442E+03  0.45476639285E+02 -0.12692858459E+04  0.12852667204E+04  0.15294330000E+03 0. -1.
    8880022    1    1    2    0    0 -0.12395243442E+03 -0.45476639285E+02 -0.20208831711E+03  0.28576856308E+03  0.15294330000E+03 0.  0.
<mgrwt>
<rscale>  0 0.20204946E+03</rscale>
<asrwt>0</asrwt>
<pdfrwt beam="1">  1        2 0.23403146E+00 0.20204946E+03</pdfrwt>
<pdfrwt beam="2">  1       -2 0.76662412E-02 0.20204946E+03</pdfrwt>
<totfact> 0.13506656E+03</totfact>
</mgrwt>
</event>
<event>
 4    1  0.5387657E-008  0.6659516E+03  0.7818608E-02  0.9777299E-01
          2   -1    0    0  501    0  0.00000000000E+00  0.00000000000E+00  0.28220171347E+04  0.28220171347E+04  0.25500000000E-02 0. -1.
         -2   -1    0    0    0  501 -0.00000000000E+00 -0.00000000000E+00 -0.22227800382E+03  0.22227800383E+03  0.25500000000E-02 0.  1.
    8880022    1    1    2    0    0 -0.64526798037E+03  0.61066624410E+02  0.21237776047E+04  0.22257409702E+04  0.15294330000E+03 0.  0.
    8880022    1    1    2    0    0  0.64526798037E+03 -0.61066624410E+02  0.47596152620E+03  0.81855416836E+03  0.15294330000E+03 0.  0.
<mgrwt>
<rscale>  0 0.66595161E+03</rscale>
<asrwt>0</asrwt>
<pdfrwt beam="1">  1        2 0.43415645E+00 0.66595161E+03</pdfrwt>
<pdfrwt beam="2">  1       -2 0.34196618E-01 0.66595161E+03</pdfrwt>
<totfact> 0.19211478E+01</totfact>
</mgrwt>
</event>
<event>
 4    1  0.5387657E-008  0.5014069E+03  0.7818608E-02  0.1013412E+00
          2   -1    0    0  501    0  0.00000000000E+00  0.00000000000E+00  0.20263239289E+04  0.20263239289E+04  0.25500000000E-02 0. -1.
         -2   -1    0    0    0  501 -0.00000000000E+00 -0.00000000000E+00 -0.22017465007E+03  0.22017465008E+03  0.25500000000E-02 0.  1.
    8880022    1    1    2    0    0 -0.46386302268E+03  0.11335040496E+03  0.16451730569E+04  0.17198846643E+04  0.15294330000E+03 0.  0.
    8880022    1    1    2    0    0  0.46386302268E+03 -0.11335040496E+03  0.16097622187E+03  0.52661391468E+03  0.15294330000E+03 0.  0.
<mgrwt>
<rscale>  0 0.50140689E+03</rscale>
<asrwt>0</asrwt>
<pdfrwt beam="1">  1        2 0.31174214E+00 0.50140689E+03</pdfrwt>
<pdfrwt beam="2">  1       -2 0.33873024E-01 0.50140689E+03</pdfrwt>
<totfact> 0.56242143E+01</totfact>
</mgrwt>
</event>
<event>
 4    1  0.5387657E-008  0.8010528E+03  0.7818608E-02  0.9558494E-01
          2   -1    0    0  501    0  0.00000000000E+00  0.00000000000E+00  0.13748281814E+04  0.13748281814E+04  0.25500000000E-02 0. -1.
         -2   -1    0    0    0  501 -0.00000000000E+00 -0.00000000000E+00 -0.10393482322E+04  0.10393482322E+04  0.25500000000E-02 0.  1.
    8880022    1    1    2    0    0 -0.53911077952E+03 -0.57241027700E+03 -0.72821818128E+03  0.10825836367E+04  0.15294330000E+03 0.  0.
    8880022    1    1    2    0    0  0.53911077952E+03  0.57241027700E+03  0.10636981305E+04  0.13315927770E+04  0.15294330000E+03 0.  0.
<mgrwt>
<rscale>  0 0.80105281E+03</rscale>
<asrwt>0</asrwt>
<pdfrwt beam="1">  1        2 0.21151203E+00 0.80105281E+03</pdfrwt>
<pdfrwt beam="2">  1       -2 0.15989973E+00 0.80105281E+03</pdfrwt>
<totfact> 0.38402568E+00</totfact>
</mgrwt>
</event>
<event>
 4    1  0.5387657E-008  0.8808276E+03  0.7818608E-02  0.9449870E-01
         -2   -1    0    0    0  501 -0.00000000000E+00  0.00000000000E+00  0.21726699992E+04  0.21726699992E+04  0.25500000000E-02 0.  1.
          2   -1    0    0  501    0  0.00000000000E+00 -0.00000000000E+00 -0.17231437279E+04  0.17231437279E+04  0.25500000000E-02 0. -1.
    8880022    1    1    2    0    0 -0.41522438491E+03  0.76161299902E+03  0.19591260065E+04  0.21480297978E+04  0.15294330000E+03 0.  0.
    8880022    1    1    2    0    0  0.41522438491E+03 -0.76161299902E+03 -0.15095997351E+04  0.17477839293E+04  0.15294330000E+03 0.  0.
<mgrwt>
<rscale>  0 0.88082762E+03</rscale>
<asrwt>0</asrwt>
<pdfrwt beam="1">  1        2 0.26509903E+00 0.88082762E+03</pdfrwt>
<pdfrwt beam="2">  1       -2 0.33425692E+00 0.88082762E+03</pdfrwt>
<totfact> 0.19272835E-01</totfact>
</mgrwt>
</event>
<event>
 4    1  0.5387657E-008  0.3559292E+03  0.7818608E-02  0.1060207E+00
         -2   -1    0    0    0  501 -0.00000000000E+00  0.00000000000E+00  0.19787555432E+03  0.19787555434E+03  0.25500000000E-02 0.  1.
          2   -1    0    0  501    0  0.00000000000E+00 -0.00000000000E+00 -0.86080058000E+03  0.86080058001E+03  0.25500000000E-02 0. -1.
    8880022    1    1    2    0    0  0.31425674913E+03 -0.67354624545E+02 -0.63510542792E+02  0.36155109166E+03  0.15294330000E+03 0.  0.
    8880022    1    1    2    0    0 -0.31425674913E+03  0.67354624545E+02 -0.59941448289E+03  0.69712504268E+03  0.15294330000E+03 0.  0.
<mgrwt>
<rscale>  0 0.35592921E+03</rscale>
<asrwt>0</asrwt>
<pdfrwt beam="1">  1        2 0.13243086E+00 0.35592921E+03</pdfrwt>
<pdfrwt beam="2">  1       -2 0.30442393E-01 0.35592921E+03</pdfrwt>
<totfact> 0.32091548E+02</totfact>
</mgrwt>
</event>
<event>
 4    1  0.5387657E-008  0.3740379E+03  0.7818608E-02  0.1053160E+00
         -2   -1    0    0    0  501 -0.00000000000E+00  0.00000000000E+00  0.13738724401E+04  0.13738724401E+04  0.25500000000E-02 0.  1.
          2   -1    0    0  501    0  0.00000000000E+00 -0.00000000000E+00 -0.49369728426E+03  0.49369728427E+03  0.25500000000E-02 0. -1.
    8880022    1    1    2    0    0  0.33633602385E+03 -0.58230587520E+02 -0.39183857248E+03  0.54170272489E+03  0.15294330000E+03 0.  0.
    8880022    1    1    2    0    0 -0.33633602385E+03  0.58230587520E+02  0.12720137283E+04  0.13258669995E+04  0.15294330000E+03 0.  0.
<mgrwt>
<rscale>  0 0.37403793E+03</rscale>
<asrwt>0</asrwt>
<pdfrwt beam="1">  1        2 0.75953429E-01 0.37403793E+03</pdfrwt>
<pdfrwt beam="2">  1       -2 0.21136499E+00 0.37403793E+03</pdfrwt>
<totfact> 0.76083818E+00</totfact>
</mgrwt>
</event>
<event>
 4    1  0.5387657E-008  0.1481149E+04  0.7818608E-02  0.8897086E-01
          2   -1    0    0  501    0  0.00000000000E+00  0.00000000000E+00  0.14393054676E+04  0.14393054676E+04  0.25500000000E-02 0. -1.
         -2   -1    0    0    0  501 -0.00000000000E+00 -0.00000000000E+00 -0.18813336878E+04  0.18813336878E+04  0.25500000000E-02 0.  1.
    8880022    1    1    2    0    0  0.14660760806E+04  0.14501943249E+03 -0.94439848816E+03  0.17566131809E+04  0.15294330000E+03 0.  0.
    8880022    1    1    2    0    0 -0.14660760806E+04 -0.14501943249E+03  0.50237026804E+03  0.15640259745E+04  0.15294330000E+03 0.  0.
<mgrwt>
<rscale>  0 0.14811487E+04</rscale>
<asrwt>0</asrwt>
<pdfrwt beam="1">  1        2 0.22143161E+00 0.14811487E+04</pdfrwt>
<pdfrwt beam="2">  1       -2 0.28943595E+00 0.14811487E+04</pdfrwt>
<totfact> 0.47799747E-01</totfact>
</mgrwt>
</event>
<event>
 4    1  0.5387657E-008  0.1971755E+03  0.7818608E-02  0.1152144E+00
         -2   -1    0    0    0  501 -0.00000000000E+00  0.00000000000E+00  0.16767108862E+03  0.16767108864E+03  0.25500000000E-02 0.  1.
          2   -1    0    0  501    0  0.00000000000E+00 -0.00000000000E+00 -0.83501682940E+03  0.83501682941E+03  0.25500000000E-02 0. -1.
    8880022    1    1    2    0    0 -0.70739359504E+02  0.10238393165E+03 -0.75976065768E+03  0.78492957418E+03  0.15294330000E+03 0. -1.
    8880022    1    1    2    0    0  0.70739359504E+02 -0.10238393165E+03  0.92414916897E+02  0.21775834386E+03  0.15294330000E+03 0.  0.
<mgrwt>
<rscale>  0 0.19717550E+03</rscale>
<asrwt>0</asrwt>
<pdfrwt beam="1">  1        2 0.12846412E+00 0.19717550E+03</pdfrwt>
<pdfrwt beam="2">  1       -2 0.25795553E-01 0.19717550E+03</pdfrwt>
<totfact> 0.45667690E+02</totfact>
</mgrwt>
</event>
<event>
 4    1  0.5387657E-008  0.5835336E+03  0.7818608E-02  0.9940170E-01
         -2   -1    0    0    0  501 -0.00000000000E+00  0.00000000000E+00  0.44640323430E+03  0.44640323431E+03  0.25500000000E-02 0.  1.
          2   -1    0    0  501    0  0.00000000000E+00 -0.00000000000E+00 -0.85215035692E+03  0.85215035692E+03  0.25500000000E-02 0. -1.
    8880022    1    1    2    0    0  0.56262306750E+03 -0.23981396503E+02  0.73815902665E+01  0.58358029811E+03  0.15294330000E+03 0.  0.
    8880022    1    1    2    0    0 -0.56262306750E+03  0.23981396503E+02 -0.41312871288E+03  0.71497329312E+03  0.15294330000E+03 0.  0.
<mgrwt>
<rscale>  0 0.58353361E+03</rscale>
<asrwt>0</asrwt>
<pdfrwt beam="1">  1        2 0.13110005E+00 0.58353361E+03</pdfrwt>
<pdfrwt beam="2">  1       -2 0.68677421E-01 0.58353361E+03</pdfrwt>
<totfact> 0.63043744E+01</totfact>
</mgrwt>
</event>
<event>
 4    1  0.5387657E-008  0.6296750E+03  0.7818608E-02  0.9845683E-01
         -2   -1    0    0    0  501 -0.00000000000E+00  0.00000000000E+00  0.12676869659E+04  0.12676869659E+04  0.25500000000E-02 0.  1.
          2   -1    0    0  501    0  0.00000000000E+00 -0.00000000000E+00 -0.98406530433E+03  0.98406530434E+03  0.25500000000E-02 0. -1.
    8880022    1    1    2    0    0  0.60341318114E+03 -0.94823408024E+02 -0.78808958432E+03  0.10087496180E+04  0.15294330000E+03 0. -1.
    8880022    1    1    2    0    0 -0.60341318114E+03  0.94823408024E+02  0.10717112459E+04  0.12430026522E+04  0.15294330000E+03 0.  0.
<mgrwt>
<rscale>  0 0.62967499E+03</rscale>
<asrwt>0</asrwt>
<pdfrwt beam="1">  1        2 0.15139466E+00 0.62967499E+03</pdfrwt>
<pdfrwt beam="2">  1       -2 0.19502876E+00 0.62967499E+03</pdfrwt>
<totfact> 0.38587711E+00</totfact>
</mgrwt>
</event>
<event>
 4    1  0.5387657E-008  0.7286133E+03  0.7818608E-02  0.9669513E-01
          2   -1    0    0  501    0  0.00000000000E+00  0.00000000000E+00  0.12730010486E+04  0.12730010486E+04  0.25500000000E-02 0. -1.
         -2   -1    0    0    0  501 -0.00000000000E+00 -0.00000000000E+00 -0.72500524993E+03  0.72500524994E+03  0.25500000000E-02 0.  1.
    8880022    1    1    2    0    0  0.26681579551E+03  0.66052636971E+03  0.92510947982E+03  0.11775843734E+04  0.15294330000E+03 0.  0.
    8880022    1    1    2    0    0 -0.26681579551E+03 -0.66052636971E+03 -0.37711368111E+03  0.82042192518E+03  0.15294330000E+03 0.  0.
<mgrwt>
<rscale>  0 0.72861335E+03</rscale>
<asrwt>0</asrwt>
<pdfrwt beam="1">  1        2 0.19584631E+00 0.72861335E+03</pdfrwt>
<pdfrwt beam="2">  1       -2 0.11153927E+00 0.72861335E+03</pdfrwt>
<totfact> 0.11147159E+01</totfact>
</mgrwt>
</event>
<event>
 4    1  0.5387657E-008  0.1689376E+03  0.7818608E-02  0.1178960E+00
         -2   -1    0    0    0  501 -0.00000000000E+00  0.00000000000E+00  0.37478961018E+03  0.37478961019E+03  0.25500000000E-02 0.  1.
          2   -1    0    0  501    0  0.00000000000E+00 -0.00000000000E+00 -0.14225338813E+04  0.14225338813E+04  0.25500000000E-02 0. -1.
    8880022    1    1    2    0    0  0.69672820710E+02  0.17145503637E+02  0.35040582165E+03  0.38900406566E+03  0.15294330000E+03 0.  1.
    8880022    1    1    2    0    0 -0.69672820710E+02 -0.17145503637E+02 -0.13981500928E+04  0.14083194258E+04  0.15294330000E+03 0.  0.
<mgrwt>
<rscale>  0 0.16893763E+03</rscale>
<asrwt>0</asrwt>
<pdfrwt beam="1">  1        2 0.21885136E+00 0.16893763E+03</pdfrwt>
<pdfrwt beam="2">  1       -2 0.57659941E-01 0.16893763E+03</pdfrwt>
<totfact> 0.45551217E+01</totfact>
</mgrwt>
</event>
<event>
 4    1  0.5387657E-008  0.5105824E+03  0.7818608E-02  0.1011053E+00
         -2   -1    0    0    0  501 -0.00000000000E+00  0.00000000000E+00  0.94065256094E+03  0.94065256094E+03  0.25500000000E-02 0.  1.
          2   -1    0    0  501    0  0.00000000000E+00 -0.00000000000E+00 -0.91785707386E+03  0.91785707387E+03  0.25500000000E-02 0. -1.
    8880022    1    1    2    0    0 -0.34552235127E+03 -0.34339054390E+03 -0.76499189871E+03  0.91973203650E+03  0.15294330000E+03 0.  0.
    8880022    1    1    2    0    0  0.34552235127E+03  0.34339054390E+03  0.78778738578E+03  0.93877759831E+03  0.15294330000E+03 0.  0.
<mgrwt>
<rscale>  0 0.51058243E+03</rscale>
<asrwt>0</asrwt>
<pdfrwt beam="1">  1        2 0.14120878E+00 0.51058243E+03</pdfrwt>
<pdfrwt beam="2">  1       -2 0.14471578E+00 0.51058243E+03</pdfrwt>
<totfact> 0.98862311E+00</totfact>
</mgrwt>
</event>
<event>
 4    1  0.5387657E-008  0.1897456E+03  0.7818608E-02  0.1158691E+00
          2   -1    0    0  501    0  0.00000000000E+00  0.00000000000E+00  0.19959046140E+04  0.19959046140E+04  0.25500000000E-02 0. -1.
         -2   -1    0    0    0  501 -0.00000000000E+00 -0.00000000000E+00 -0.31372669541E+03  0.31372669542E+03  0.25500000000E-02 0.  1.
    8880022    1    1    2    0    0 -0.14468858239E+02 -0.11136594218E+03 -0.28003549856E+03  0.33826506531E+03  0.15294330000E+03 0.  0.
    8880022    1    1    2    0    0  0.14468858239E+02  0.11136594218E+03  0.19622134172E+04  0.19713662441E+04  0.15294330000E+03 0. -1.
<mgrwt>
<rscale>  0 0.18974555E+03</rscale>
<asrwt>0</asrwt>
<pdfrwt beam="1">  1        2 0.30706226E+00 0.18974555E+03</pdfrwt>
<pdfrwt beam="2">  1       -2 0.48265643E-01 0.18974555E+03</pdfrwt>
<totfact> 0.32402397E+01</totfact>
</mgrwt>
</event>
<event>
 4    1  0.5387657E-008  0.4610182E+03  0.7818608E-02  0.1024486E+00
         -2   -1    0    0    0  501 -0.00000000000E+00  0.00000000000E+00  0.39769650961E+03  0.39769650962E+03  0.25500000000E-02 0.  1.
          2   -1    0    0  501    0  0.00000000000E+00 -0.00000000000E+00 -0.18283778930E+04  0.18283778930E+04  0.25500000000E-02 0. -1.
    8880022    1    1    2    0    0  0.28679265327E+03  0.32694962971E+03 -0.16516868784E+04  0.17148198983E+04  0.15294330000E+03 0.  0.
    8880022    1    1    2    0    0 -0.28679265327E+03 -0.32694962971E+03  0.22100549502E+03  0.51125450431E+03  0.15294330000E+03 0.  0.
<mgrwt>
<rscale>  0 0.46101816E+03</rscale>
<asrwt>0</asrwt>
<pdfrwt beam="1">  1        2 0.28128890E+00 0.46101816E+03</pdfrwt>
<pdfrwt beam="2">  1       -2 0.61184079E-01 0.46101816E+03</pdfrwt>
<totfact> 0.22361221E+01</totfact>
</mgrwt>
</event>
<event>
 4    1  0.5387657E-008  0.3228112E+03  0.7818608E-02  0.1074363E+00
         -2   -1    0    0    0  501 -0.00000000000E+00  0.00000000000E+00  0.24073285036E+03  0.24073285037E+03  0.25500000000E-02 0.  1.
          2   -1    0    0  501    0  0.00000000000E+00 -0.00000000000E+00 -0.10831894193E+04  0.10831894193E+04  0.25500000000E-02 0. -1.
    8880022    1    1    2    0    0 -0.21609187318E+03  0.18471516718E+03  0.91682984833E+02  0.33557832672E+03  0.15294330000E+03 0.  0.
    8880022    1    1    2    0    0  0.21609187318E+03 -0.18471516718E+03 -0.93413955379E+03  0.98834394297E+03  0.15294330000E+03 0.  0.
<mgrwt>
<rscale>  0 0.32281116E+03</rscale>
<asrwt>0</asrwt>
<pdfrwt beam="1">  1        2 0.16664452E+00 0.32281116E+03</pdfrwt>
<pdfrwt beam="2">  1       -2 0.37035824E-01 0.32281116E+03</pdfrwt>
<totfact> 0.16177067E+02</totfact>
</mgrwt>
</event>
<event>
 4    1  0.5387657E-008  0.5454223E+03  0.7818608E-02  0.1002559E+00
         -2   -1    0    0    0  501 -0.00000000000E+00  0.00000000000E+00  0.89840959349E+02  0.89840959385E+02  0.25500000000E-02 0.  1.
          2   -1    0    0  501    0  0.00000000000E+00 -0.00000000000E+00 -0.36109215972E+04  0.36109215972E+04  0.25500000000E-02 0. -1.
    8880022    1    1    2    0    0 -0.36790314212E+03  0.37247968999E+03 -0.22936027439E+04  0.23575620970E+04  0.15294330000E+03 0.  0.
    8880022    1    1    2    0    0  0.36790314212E+03 -0.37247968999E+03 -0.12274778939E+04  0.13432004595E+04  0.15294330000E+03 0.  0.
<mgrwt>
<rscale>  0 0.54542231E+03</rscale>
<asrwt>0</asrwt>
<pdfrwt beam="1">  1        2 0.55552629E+00 0.54542231E+03</pdfrwt>
<pdfrwt beam="2">  1       -2 0.13821689E-01 0.54542231E+03</pdfrwt>
<totfact> 0.30702230E+01</totfact>
</mgrwt>
</event>
<event>
 4    1  0.5387657E-008  0.8472498E+03  0.7818608E-02  0.9494036E-01
         -2   -1    0    0    0  501 -0.00000000000E+00  0.00000000000E+00  0.41106994794E+03  0.41106994795E+03  0.25500000000E-02 0.  1.
          2   -1    0    0  501    0  0.00000000000E+00 -0.00000000000E+00 -0.18596242190E+04  0.18596242190E+04  0.25500000000E-02 0. -1.
    8880022    1    1    2    0    0  0.79206339955E+03  0.25899066517E+03 -0.44394885314E+03  0.95651598563E+03  0.15294330000E+03 0.  0.
    8880022    1    1    2    0    0 -0.79206339955E+03 -0.25899066517E+03 -0.10046054179E+04  0.13141781813E+04  0.15294330000E+03 0.  0.
<mgrwt>
<rscale>  0 0.84724981E+03</rscale>
<asrwt>0</asrwt>
<pdfrwt beam="1">  1        2 0.28609603E+00 0.84724981E+03</pdfrwt>
<pdfrwt beam="2">  1       -2 0.63241532E-01 0.84724981E+03</pdfrwt>
<totfact> 0.18856319E+01</totfact>
</mgrwt>
</event>
<event>
 4    1  0.5387657E-008  0.3855965E+03  0.7818608E-02  0.1048884E+00
          2   -1    0    0  501    0  0.00000000000E+00  0.00000000000E+00  0.16991838575E+04  0.16991838575E+04  0.25500000000E-02 0. -1.
         -2   -1    0    0    0  501 -0.00000000000E+00 -0.00000000000E+00 -0.34182207607E+03  0.34182207608E+03  0.25500000000E-02 0.  1.
    8880022    1    1    2    0    0 -0.20229005052E+03  0.29046821062E+03  0.15589251005E+04  0.16059054044E+04  0.15294330000E+03 0.  0.
    8880022    1    1    2    0    0  0.20229005052E+03 -0.29046821062E+03 -0.20156331903E+03  0.43510052921E+03  0.15294330000E+03 0.  0.
<mgrwt>
<rscale>  0 0.38559655E+03</rscale>
<asrwt>0</asrwt>
<pdfrwt beam="1">  1        2 0.26141290E+00 0.38559655E+03</pdfrwt>
<pdfrwt beam="2">  1       -2 0.52588011E-01 0.38559655E+03</pdfrwt>
<totfact> 0.36487159E+01</totfact>
</mgrwt>
</event>
<event>
 4    1  0.5387657E-008  0.4394210E+03  0.7818608E-02  0.1030925E+00
          2   -1    0    0  501    0  0.00000000000E+00  0.00000000000E+00  0.22107389970E+04  0.22107389970E+04  0.25500000000E-02 0. -1.
         -2   -1    0    0    0  501 -0.00000000000E+00 -0.00000000000E+00 -0.18415428112E+03  0.18415428113E+03  0.25500000000E-02 0.  1.
    8880022    1    1    2    0    0  0.13334870913E+03  0.38976567285E+03  0.14507186144E+03  0.46274902048E+03  0.15294330000E+03 0.  1.
    8880022    1    1    2    0    0 -0.13334870913E+03 -0.38976567285E+03  0.18815128545E+04  0.19321442577E+04  0.15294330000E+03 0.  0.
<mgrwt>
<rscale>  0 0.43942100E+03</rscale>
<asrwt>0</asrwt>
<pdfrwt beam="1">  1        2 0.34011367E+00 0.43942100E+03</pdfrwt>
<pdfrwt beam="2">  1       -2 0.28331430E-01 0.43942100E+03</pdfrwt>
<totfact> 0.63002725E+01</totfact>
</mgrwt>
</event>
<event>
 4    1  0.5387657E-008  0.3958569E+03  0.7818608E-02  0.1045224E+00
         -2   -1    0    0    0  501 -0.00000000000E+00  0.00000000000E+00  0.27275910042E+03  0.27275910043E+03  0.25500000000E-02 0.  1.
          2   -1    0    0  501    0  0.00000000000E+00 -0.00000000000E+00 -0.41036945280E+04  0.41036945280E+04  0.25500000000E-02 0. -1.
    8880022    1    1    2    0    0  0.35250005451E+03 -0.95156560404E+02 -0.39447479840E+04  0.39645604257E+04  0.15294330000E+03 0.  0.
    8880022    1    1    2    0    0 -0.35250005451E+03  0.95156560404E+02  0.11381255638E+03  0.41189320269E+03  0.15294330000E+03 0.  1.
<mgrwt>
<rscale>  0 0.39585693E+03</rscale>
<asrwt>0</asrwt>
<pdfrwt beam="1">  1        2 0.63133757E+00 0.39585693E+03</pdfrwt>
<pdfrwt beam="2">  1       -2 0.41962942E-01 0.39585693E+03</pdfrwt>
<totfact> 0.19007653E+00</totfact>
</mgrwt>
</event>
<event>
 4    1  0.5387657E-008  0.9219331E+03  0.7818608E-02  0.9398572E-01
          2   -1    0    0  501    0  0.00000000000E+00  0.00000000000E+00  0.16440881643E+04  0.16440881643E+04  0.25500000000E-02 0. -1.
         -2   -1    0    0    0  501 -0.00000000000E+00 -0.00000000000E+00 -0.56728799805E+03  0.56728799806E+03  0.25500000000E-02 0.  1.
    8880022    1    1    2    0    0 -0.24657761192E+03 -0.87508199568E+03  0.86766800474E+03  0.12660207097E+04  0.15294330000E+03 0.  0.
    8880022    1    1    2    0    0  0.24657761192E+03  0.87508199568E+03  0.20913216147E+03  0.94535545264E+03  0.15294330000E+03 0.  0.
<mgrwt>
<rscale>  0 0.92193312E+03</rscale>
<asrwt>0</asrwt>
<pdfrwt beam="1">  1        2 0.25293664E+00 0.92193312E+03</pdfrwt>
<pdfrwt beam="2">  1       -2 0.87275075E-01 0.92193312E+03</pdfrwt>
<totfact> 0.12021954E+01</totfact>
</mgrwt>
</event>
<event>
 4    1  0.5387657E-008  0.3299667E+03  0.7818608E-02  0.1071152E+00
         -2   -1    0    0    0  501 -0.00000000000E+00  0.00000000000E+00  0.48462111998E+03  0.48462111999E+03  0.25500000000E-02 0.  1.
          2   -1    0    0  501    0  0.00000000000E+00 -0.00000000000E+00 -0.66823633225E+03  0.66823633225E+03  0.25500000000E-02 0. -1.
    8880022    1    1    2    0    0 -0.17900815682E+03  0.23117620177E+03  0.37782873582E+03  0.50162990650E+03  0.15294330000E+03 0.  0.
    8880022    1    1    2    0    0  0.17900815682E+03 -0.23117620177E+03 -0.56144394809E+03  0.65122754574E+03  0.15294330000E+03 0.  0.
<mgrwt>
<rscale>  0 0.32996668E+03</rscale>
<asrwt>0</asrwt>
<pdfrwt beam="1">  1        2 0.10280559E+00 0.32996668E+03</pdfrwt>
<pdfrwt beam="2">  1       -2 0.74557095E-01 0.32996668E+03</pdfrwt>
<totfact> 0.74089708E+01</totfact>
</mgrwt>
</event>
<event>
 4    1  0.5387657E-008  0.2165226E+03  0.7818608E-02  0.1136502E+00
          2   -1    0    0  501    0  0.00000000000E+00  0.00000000000E+00  0.41517869471E+03  0.41517869472E+03  0.25500000000E-02 0. -1.
         -2   -1    0    0    0  501 -0.00000000000E+00 -0.00000000000E+00 -0.28509637158E+03  0.28509637159E+03  0.25500000000E-02 0.  1.
    8880022    1    1    2    0    0  0.14205495392E+03  0.57539466804E+02 -0.20705935766E+03  0.29959244113E+03  0.15294330000E+03 0.  0.
    8880022    1    1    2    0    0 -0.14205495392E+03 -0.57539466804E+02  0.33714168079E+03  0.40068262517E+03  0.15294330000E+03 0.  0.
<mgrwt>
<rscale>  0 0.21652264E+03</rscale>
<asrwt>0</asrwt>
<pdfrwt beam="1">  1        2 0.63873645E-01 0.21652264E+03</pdfrwt>
<pdfrwt beam="2">  1       -2 0.43860980E-01 0.21652264E+03</pdfrwt>
<totfact> 0.38484725E+02</totfact>
</mgrwt>
</event>
<event>
 4    1  0.5387657E-008  0.4287591E+03  0.7818608E-02  0.1034253E+00
         -2   -1    0    0    0  501 -0.00000000000E+00  0.00000000000E+00  0.44060583967E+03  0.44060583967E+03  0.25500000000E-02 0.  1.
          2   -1    0    0  501    0  0.00000000000E+00 -0.00000000000E+00 -0.27878866698E+04  0.27878866698E+04  0.25500000000E-02 0. -1.
    8880022    1    1    2    0    0  0.39972837257E+03  0.25689411392E+02  0.31492004334E+03  0.53198590621E+03  0.15294330000E+03 0.  0.
    8880022    1    1    2    0    0 -0.39972837257E+03 -0.25689411392E+02 -0.26622008735E+04  0.26965066033E+04  0.15294330000E+03 0.  0.
<mgrwt>
<rscale>  0 0.42875911E+03</rscale>
<asrwt>0</asrwt>
<pdfrwt beam="1">  1        2 0.42890563E+00 0.42875911E+03</pdfrwt>
<pdfrwt beam="2">  1       -2 0.67785515E-01 0.42875911E+03</pdfrwt>
<totfact> 0.53797162E+00</totfact>
</mgrwt>
</event>
<event>
 4    1  0.5387657E-008  0.3438929E+03  0.7818608E-02  0.1065150E+00
         -2   -1    0    0    0  501 -0.00000000000E+00  0.00000000000E+00  0.10797021782E+03  0.10797021785E+03  0.25500000000E-02 0.  1.
          2   -1    0    0  501    0  0.00000000000E+00 -0.00000000000E+00 -0.17165211345E+04  0.17165211345E+04  0.25500000000E-02 0. -1.
    8880022    1    1    2    0    0 -0.18688547194E+03  0.24483567799E+03 -0.13530602305E+04  0.13960781959E+04  0.15294330000E+03 0.  0.
    8880022    1    1    2    0    0  0.18688547194E+03 -0.24483567799E+03 -0.25549068618E+03  0.42841315640E+03  0.15294330000E+03 0.  0.
<mgrwt>
<rscale>  0 0.34389292E+03</rscale>
<asrwt>0</asrwt>
<pdfrwt beam="1">  1        2 0.26408015E+00 0.34389292E+03</pdfrwt>
<pdfrwt beam="2">  1       -2 0.16610804E-01 0.34389292E+03</pdfrwt>
<totfact> 0.29997110E+02</totfact>
</mgrwt>
</event>
<event>
 4    1  0.5387657E-008  0.2845313E+03  0.7818608E-02  0.1093239E+00
         -2   -1    0    0    0  501 -0.00000000000E+00  0.00000000000E+00  0.99157978628E+02  0.99157978660E+02  0.25500000000E-02 0.  1.
          2   -1    0    0  501    0  0.00000000000E+00 -0.00000000000E+00 -0.17797200656E+04  0.17797200656E+04  0.25500000000E-02 0. -1.
    8880022    1    1    2    0    0 -0.96973436335E+02 -0.21945966977E+03 -0.14914171304E+03  0.32124958770E+03  0.15294330000E+03 0.  1.
    8880022    1    1    2    0    0  0.96973436335E+02  0.21945966977E+03 -0.15314203740E+04  0.15576284566E+04  0.15294330000E+03 0.  0.
<mgrwt>
<rscale>  0 0.28453128E+03</rscale>
<asrwt>0</asrwt>
<pdfrwt beam="1">  1        2 0.27380306E+00 0.28453128E+03</pdfrwt>
<pdfrwt beam="2">  1       -2 0.15255075E-01 0.28453128E+03</pdfrwt>
<totfact> 0.32351068E+02</totfact>
</mgrwt>
</event>
<event>
 4    1  0.5387657E-008  0.8057232E+03  0.7818608E-02  0.9551770E-01
          2   -1    0    0  501    0  0.00000000000E+00  0.00000000000E+00  0.24790794969E+04  0.24790794969E+04  0.25500000000E-02 0. -1.
         -2   -1    0    0    0  501 -0.00000000000E+00 -0.00000000000E+00 -0.36155424713E+03  0.36155424714E+03  0.25500000000E-02 0.  1.
    8880022    1    1    2    0    0 -0.54976127131E+03  0.56882407888E+03  0.31297085898E+03  0.86437300960E+03  0.15294330000E+03 0.  0.
    8880022    1    1    2    0    0  0.54976127131E+03 -0.56882407888E+03  0.18045543908E+04  0.19762607345E+04  0.15294330000E+03 0.  0.
<mgrwt>
<rscale>  0 0.80572324E+03</rscale>
<asrwt>0</asrwt>
<pdfrwt beam="1">  1        2 0.38139686E+00 0.80572324E+03</pdfrwt>
<pdfrwt beam="2">  1       -2 0.55623728E-01 0.80572324E+03</pdfrwt>
<totfact> 0.11288626E+01</totfact>
</mgrwt>
</event>
<event>
 4    1  0.5387657E-008  0.2386872E+03  0.7818608E-02  0.1120670E+00
          2   -1    0    0  501    0  0.00000000000E+00  0.00000000000E+00  0.40880749513E+03  0.40880749514E+03  0.25500000000E-02 0. -1.
         -2   -1    0    0    0  501 -0.00000000000E+00 -0.00000000000E+00 -0.14967319567E+03  0.14967319569E+03  0.25500000000E-02 0.  1.
    8880022    1    1    2    0    0 -0.63103737946E+02  0.17204023693E+03  0.20286551064E+03  0.31325068761E+03  0.15294330000E+03 0. -1.
    8880022    1    1    2    0    0  0.63103737946E+02 -0.17204023693E+03  0.56268788830E+02  0.24523000322E+03  0.15294330000E+03 0.  0.
<mgrwt>
<rscale>  0 0.23868720E+03</rscale>
<asrwt>0</asrwt>
<pdfrwt beam="1">  1        2 0.62893461E-01 0.23868720E+03</pdfrwt>
<pdfrwt beam="2">  1       -2 0.23026645E-01 0.23868720E+03</pdfrwt>
<totfact> 0.12796575E+03</totfact>
</mgrwt>
</event>
<event>
 4    1  0.5387657E-008  0.3621223E+03  0.7818608E-02  0.1057747E+00
          2   -1    0    0  501    0  0.00000000000E+00  0.00000000000E+00  0.54598066507E+03  0.54598066508E+03  0.25500000000E-02 0. -1.
         -2   -1    0    0    0  501 -0.00000000000E+00 -0.00000000000E+00 -0.63551902949E+03  0.63551902950E+03  0.25500000000E-02 0.  1.
    8880022    1    1    2    0    0  0.20007490163E+03  0.26021322853E+03  0.42116576257E+03  0.55543959450E+03  0.15294330000E+03 0. -1.
    8880022    1    1    2    0    0 -0.20007490163E+03 -0.26021322853E+03 -0.51070412699E+03  0.62606010008E+03  0.15294330000E+03 0.  0.
<mgrwt>
<rscale>  0 0.36212228E+03</rscale>
<asrwt>0</asrwt>
<pdfrwt beam="1">  1        2 0.83997025E-01 0.36212228E+03</pdfrwt>
<pdfrwt beam="2">  1       -2 0.97772158E-01 0.36212228E+03</pdfrwt>
<totfact> 0.50811662E+01</totfact>
</mgrwt>
</event>
<event>
 4    1  0.5387657E-008  0.4086435E+03  0.7818608E-02  0.1040827E+00
         -2   -1    0    0    0  501 -0.00000000000E+00  0.00000000000E+00  0.17757144140E+03  0.17757144142E+03  0.25500000000E-02 0.  1.
          2   -1    0    0  501    0  0.00000000000E+00 -0.00000000000E+00 -0.29850380181E+04  0.29850380181E+04  0.25500000000E-02 0. -1.
    8880022    1    1    2    0    0 -0.25980865139E+03 -0.27585746240E+03 -0.27124572329E+04  0.27430664899E+04  0.15294330000E+03 0.  0.
    8880022    1    1    2    0    0  0.25980865139E+03  0.27585746240E+03 -0.95009343783E+02  0.41954296957E+03  0.15294330000E+03 0.  0.
<mgrwt>
<rscale>  0 0.40864352E+03</rscale>
<asrwt>0</asrwt>
<pdfrwt beam="1">  1        2 0.45923658E+00 0.40864352E+03</pdfrwt>
<pdfrwt beam="2">  1       -2 0.27318685E-01 0.40864352E+03</pdfrwt>
<totfact> 0.24732384E+01</totfact>
</mgrwt>
</event>
<event>
 4    1  0.5387657E-008  0.1194972E+04  0.7818608E-02  0.9117269E-01
          2   -1    0    0  501    0  0.00000000000E+00  0.00000000000E+00  0.96957865748E+03  0.96957865748E+03  0.25500000000E-02 0. -1.
         -2   -1    0    0    0  501 -0.00000000000E+00 -0.00000000000E+00 -0.19470900996E+04  0.19470900996E+04  0.25500000000E-02 0.  1.
    8880022    1    1    2    0    0  0.77491641252E+03 -0.89669978804E+03 -0.12085426992E+04  0.16995684938E+04  0.15294330000E+03 0.  0.
    8880022    1    1    2    0    0 -0.77491641252E+03  0.89669978804E+03  0.23103125704E+03  0.12171002633E+04  0.15294330000E+03 0.  0.
<mgrwt>
<rscale>  0 0.11949718E+04</rscale>
<asrwt>0</asrwt>
<pdfrwt beam="1">  1        2 0.14916595E+00 0.11949718E+04</pdfrwt>
<pdfrwt beam="2">  1       -2 0.29955232E+00 0.11949718E+04</pdfrwt>
<totfact> 0.82539596E-01</totfact>
</mgrwt>
</event>
<event>
 4    1  0.5387657E-008  0.1726167E+03  0.7818608E-02  0.1175146E+00
          2   -1    0    0  501    0  0.00000000000E+00  0.00000000000E+00  0.33616379636E+03  0.33616379637E+03  0.25500000000E-02 0. -1.
         -2   -1    0    0    0  501 -0.00000000000E+00 -0.00000000000E+00 -0.13508291839E+04  0.13508291839E+04  0.25500000000E-02 0.  1.
    8880022    1    1    2    0    0  0.53152506416E+01  0.79853771552E+02  0.30802057426E+03  0.35309092866E+03  0.15294330000E+03 0. -1.
    8880022    1    1    2    0    0 -0.53152506416E+01 -0.79853771552E+02 -0.13226859618E+04  0.13339020516E+04  0.15294330000E+03 0.  0.
<mgrwt>
<rscale>  0 0.17261671E+03</rscale>
<asrwt>0</asrwt>
<pdfrwt beam="1">  1        2 0.51717508E-01 0.17261671E+03</pdfrwt>
<pdfrwt beam="2">  1       -2 0.20781987E+00 0.17261671E+03</pdfrwt>
<totfact> 0.12971766E+01</totfact>
</mgrwt>
</event>
<event>
 4    1  0.5387657E-008  0.1902359E+03  0.7818608E-02  0.1158249E+00
          2   -1    0    0  501    0  0.00000000000E+00  0.00000000000E+00  0.12298968944E+04  0.12298968944E+04  0.25500000000E-02 0. -1.
         -2   -1    0    0    0  501 -0.00000000000E+00 -0.00000000000E+00 -0.32737323552E+02  0.32737323652E+02  0.25500000000E-02 0.  1.
    8880022    1    1    2    0    0  0.10007408432E+03 -0.52756193905E+02  0.39776593073E+03  0.44091657602E+03  0.15294330000E+03 0. -1.
    8880022    1    1    2    0    0 -0.10007408432E+03  0.52756193905E+02  0.79939364012E+03  0.82171764203E+03  0.15294330000E+03 0.  0.
<mgrwt>
<rscale>  0 0.19023588E+03</rscale>
<asrwt>0</asrwt>
<pdfrwt beam="1">  1        2 0.18921488E+00 0.19023588E+03</pdfrwt>
<pdfrwt beam="2">  1       -2 0.50365120E-02 0.19023588E+03</pdfrwt>
<totfact> 0.36960185E+03</totfact>
</mgrwt>
</event>
<event>
 4    1  0.5387657E-008  0.8523057E+03  0.7818608E-02  0.9487248E-01
         -2   -1    0    0    0  501 -0.00000000000E+00  0.00000000000E+00  0.40755835912E+03  0.40755835913E+03  0.25500000000E-02 0.  1.
          2   -1    0    0  501    0  0.00000000000E+00 -0.00000000000E+00 -0.19948354621E+04  0.19948354621E+04  0.25500000000E-02 0. -1.
    8880022    1    1    2    0    0 -0.53722959028E+03 -0.64375284163E+03 -0.11856436914E+04  0.14601972366E+04  0.15294330000E+03 0.  0.
    8880022    1    1    2    0    0  0.53722959028E+03  0.64375284163E+03 -0.40163341156E+03  0.94219658462E+03  0.15294330000E+03 0.  0.
<mgrwt>
<rscale>  0 0.85230570E+03</rscale>
<asrwt>0</asrwt>
<pdfrwt beam="1">  1        2 0.30689776E+00 0.85230570E+03</pdfrwt>
<pdfrwt beam="2">  1       -2 0.62701287E-01 0.85230570E+03</pdfrwt>
<totfact> 0.16185983E+01</totfact>
</mgrwt>
</event>
<event>
 4    1  0.5387657E-008  0.1108183E+04  0.7818608E-02  0.9197253E-01
         -2   -1    0    0    0  501 -0.00000000000E+00  0.00000000000E+00  0.14894609623E+04  0.14894609623E+04  0.25500000000E-02 0.  1.
          2   -1    0    0  501    0  0.00000000000E+00 -0.00000000000E+00 -0.10902805630E+04  0.10902805630E+04  0.25500000000E-02 0. -1.
    8880022    1    1    2    0    0  0.62806719263E+03  0.90011607905E+03 -0.43725523620E+03  0.11913274734E+04  0.15294330000E+03 0.  1.
    8880022    1    1    2    0    0 -0.62806719263E+03 -0.90011607905E+03  0.83643563547E+03  0.13884140519E+04  0.15294330000E+03 0.  0.
<mgrwt>
<rscale>  0 0.11081827E+04</rscale>
<asrwt>0</asrwt>
<pdfrwt beam="1">  1        2 0.16773547E+00 0.11081827E+04</pdfrwt>
<pdfrwt beam="2">  1       -2 0.22914784E+00 0.11081827E+04</pdfrwt>
<totfact> 0.18775177E+00</totfact>
</mgrwt>
</event>
<event>
 4    1  0.5387657E-008  0.4986446E+03  0.7818608E-02  0.1014133E+00
         -2   -1    0    0    0  501 -0.00000000000E+00  0.00000000000E+00  0.76227651277E+03  0.76227651277E+03  0.25500000000E-02 0.  1.
          2   -1    0    0  501    0  0.00000000000E+00 -0.00000000000E+00 -0.10536540726E+04  0.10536540726E+04  0.25500000000E-02 0. -1.
    8880022    1    1    2    0    0 -0.31408334628E+03 -0.35581803412E+03 -0.90013136347E+03  0.10290203819E+04  0.15294330000E+03 0.  0.
    8880022    1    1    2    0    0  0.31408334628E+03  0.35581803412E+03  0.60875380367E+03  0.78691020346E+03  0.15294330000E+03 0.  0.
<mgrwt>
<rscale>  0 0.49864464E+03</rscale>
<asrwt>0</asrwt>
<pdfrwt beam="1">  1        2 0.16210063E+00 0.49864464E+03</pdfrwt>
<pdfrwt beam="2">  1       -2 0.11727331E+00 0.49864464E+03</pdfrwt>
<totfact> 0.13796183E+01</totfact>
</mgrwt>
</event>
<event>
 4    1  0.5387657E-008  0.8857666E+03  0.7818608E-02  0.9443551E-01
          2   -1    0    0  501    0  0.00000000000E+00  0.00000000000E+00  0.17290996188E+04  0.17290996188E+04  0.25500000000E-02 0. -1.
         -2   -1    0    0    0  501 -0.00000000000E+00 -0.00000000000E+00 -0.74290213896E+03  0.74290213897E+03  0.25500000000E-02 0.  1.
    8880022    1    1    2    0    0 -0.14652531272E+03 -0.86007044089E+03 -0.27800826079E+03  0.92837011835E+03  0.15294330000E+03 0.  0.
    8880022    1    1    2    0    0  0.14652531272E+03  0.86007044089E+03  0.12642057406E+04  0.15436316394E+04  0.15294330000E+03 0.  0.
<mgrwt>
<rscale>  0 0.88576661E+03</rscale>
<asrwt>0</asrwt>
<pdfrwt beam="1">  1        2 0.26601533E+00 0.88576661E+03</pdfrwt>
<pdfrwt beam="2">  1       -2 0.11429264E+00 0.88576661E+03</pdfrwt>
<totfact> 0.57133223E+00</totfact>
</mgrwt>
</event>
<event>
 4    1  0.5387657E-008  0.5353765E+03  0.7818608E-02  0.1004937E+00
          2   -1    0    0  501    0  0.00000000000E+00  0.00000000000E+00  0.18744287302E+04  0.18744287302E+04  0.25500000000E-02 0. -1.
         -2   -1    0    0    0  501 -0.00000000000E+00 -0.00000000000E+00 -0.37178030487E+03  0.37178030488E+03  0.25500000000E-02 0.  1.
    8880022    1    1    2    0    0 -0.47806708146E+03 -0.18624771099E+03  0.16130430548E+04  0.16995693260E+04  0.15294330000E+03 0.  0.
    8880022    1    1    2    0    0  0.47806708146E+03  0.18624771099E+03 -0.11039462954E+03  0.54663970901E+03  0.15294330000E+03 0.  0.
<mgrwt>
<rscale>  0 0.53537650E+03</rscale>
<asrwt>0</asrwt>
<pdfrwt beam="1">  1        2 0.28837365E+00 0.53537650E+03</pdfrwt>
<pdfrwt beam="2">  1       -2 0.57196971E-01 0.53537650E+03</pdfrwt>
<totfact> 0.23959667E+01</totfact>
</mgrwt>
</event>
<event>
 4    1  0.5387657E-008  0.3331438E+03  0.7818608E-02  0.1069754E+00
         -2   -1    0    0    0  501 -0.00000000000E+00  0.00000000000E+00  0.13033161781E+03  0.13033161783E+03  0.25500000000E-02 0.  1.
          2   -1    0    0  501    0  0.00000000000E+00 -0.00000000000E+00 -0.11508473642E+04  0.11508473642E+04  0.25500000000E-02 0. -1.
    8880022    1    1    2    0    0 -0.19255119182E+03 -0.22476028042E+03 -0.83693395054E+03  0.90080144078E+03  0.15294330000E+03 0.  0.
    8880022    1    1    2    0    0  0.19255119182E+03  0.22476028042E+03 -0.18358179589E+03  0.38037754129E+03  0.15294330000E+03 0.  0.
<mgrwt>
<rscale>  0 0.33314381E+03</rscale>
<asrwt>0</asrwt>
<pdfrwt beam="1">  1        2 0.17705343E+00 0.33314381E+03</pdfrwt>
<pdfrwt beam="2">  1       -2 0.20051019E-01 0.33314381E+03</pdfrwt>
<totfact> 0.44604373E+02</totfact>
</mgrwt>
</event>
<event>
 4    1  0.5387657E-008  0.4833563E+03  0.7818608E-02  0.1018217E+00
          2   -1    0    0  501    0  0.00000000000E+00  0.00000000000E+00  0.40463079892E+03  0.40463079893E+03  0.25500000000E-02 0. -1.
         -2   -1    0    0    0  501 -0.00000000000E+00 -0.00000000000E+00 -0.12692439386E+04  0.12692439386E+04  0.25500000000E-02 0.  1.
    8880022    1    1    2    0    0  0.14379590446E+02  0.45829558090E+03  0.18560298866E+03  0.51776610019E+03  0.15294330000E+03 0.  0.
    8880022    1    1    2    0    0 -0.14379590446E+02 -0.45829558090E+03 -0.10502161284E+04  0.11561086374E+04  0.15294330000E+03 0.  0.
<mgrwt>
<rscale>  0 0.48335625E+03</rscale>
<asrwt>0</asrwt>
<pdfrwt beam="1">  1        2 0.62250893E-01 0.48335625E+03</pdfrwt>
<pdfrwt beam="2">  1       -2 0.19526830E+00 0.48335625E+03</pdfrwt>
<totfact> 0.11800288E+01</totfact>
</mgrwt>
</event>
<event>
 4    1  0.5387657E-008  0.4629577E+03  0.7818608E-02  0.1023927E+00
         -2   -1    0    0    0  501 -0.00000000000E+00  0.00000000000E+00  0.19684200994E+03  0.19684200996E+03  0.25500000000E-02 0.  1.
          2   -1    0    0  501    0  0.00000000000E+00 -0.00000000000E+00 -0.15836303801E+04  0.15836303801E+04  0.25500000000E-02 0. -1.
    8880022    1    1    2    0    0 -0.12161504537E+03 -0.41969987257E+03 -0.11910029994E+04  0.12778176709E+04  0.15294330000E+03 0.  0.
    8880022    1    1    2    0    0  0.12161504537E+03  0.41969987257E+03 -0.19578537069E+03  0.50265471916E+03  0.15294330000E+03 0.  1.
<mgrwt>
<rscale>  0 0.46295773E+03</rscale>
<asrwt>0</asrwt>
<pdfrwt beam="1">  1        2 0.24363543E+00 0.46295773E+03</pdfrwt>
<pdfrwt beam="2">  1       -2 0.30283387E-01 0.46295773E+03</pdfrwt>
<totfact> 0.12069919E+02</totfact>
</mgrwt>
</event>
<event>
 4    1  0.5387657E-008  0.2769516E+03  0.7818608E-02  0.1097366E+00
         -2   -1    0    0    0  501 -0.00000000000E+00  0.00000000000E+00  0.68414853552E+03  0.68414853552E+03  0.25500000000E-02 0.  1.
          2   -1    0    0  501    0  0.00000000000E+00 -0.00000000000E+00 -0.26263098358E+03  0.26263098359E+03  0.25500000000E-02 0. -1.
    8880022    1    1    2    0    0  0.20526452588E+02  0.22997655350E+03  0.56913528055E+03  0.63294326049E+03  0.15294330000E+03 0.  0.
    8880022    1    1    2    0    0 -0.20526452588E+02 -0.22997655350E+03 -0.14761772861E+03  0.31383625863E+03  0.15294330000E+03 0.  0.
<mgrwt>
<rscale>  0 0.27695163E+03</rscale>
<asrwt>0</asrwt>
<pdfrwt beam="1">  1        2 0.40404767E-01 0.27695163E+03</pdfrwt>
<pdfrwt beam="2">  1       -2 0.10525362E+00 0.27695163E+03</pdfrwt>
<totfact> 0.96828303E+01</totfact>
</mgrwt>
</event>
<event>
 4    1  0.5387657E-008  0.1409385E+04  0.7818608E-02  0.8947053E-01
         -2   -1    0    0    0  501 -0.00000000000E+00  0.00000000000E+00  0.47990817637E+04  0.47990817637E+04  0.25500000000E-02 0.  1.
          2   -1    0    0  501    0  0.00000000000E+00 -0.00000000000E+00 -0.46921604641E+03  0.46921604642E+03  0.25500000000E-02 0. -1.
    8880022    1    1    2    0    0 -0.13985891879E+04  0.83197371060E+02  0.30693292504E+04  0.33774468492E+04  0.15294330000E+03 0.  0.
    8880022    1    1    2    0    0  0.13985891879E+04 -0.83197371060E+02  0.12605364669E+04  0.18908509609E+04  0.15294330000E+03 0.  0.
<mgrwt>
<rscale>  0 0.14093847E+04</rscale>
<asrwt>0</asrwt>
<pdfrwt beam="1">  1        2 0.72187086E-01 0.14093847E+04</pdfrwt>
<pdfrwt beam="2">  1       -2 0.73832025E+00 0.14093847E+04</pdfrwt>
<totfact> 0.10412920E-02</totfact>
</mgrwt>
</event>
<event>
 4    1  0.5387657E-008  0.6260072E+03  0.7818608E-02  0.9852872E-01
          2   -1    0    0  501    0  0.00000000000E+00  0.00000000000E+00  0.17814392742E+04  0.17814392742E+04  0.25500000000E-02 0. -1.
         -2   -1    0    0    0  501 -0.00000000000E+00 -0.00000000000E+00 -0.28673051367E+03  0.28673051368E+03  0.25500000000E-02 0.  1.
    8880022    1    1    2    0    0 -0.41626463899E+03 -0.44183375745E+03  0.24842473281E+03  0.67349819583E+03  0.15294330000E+03 0.  0.
    8880022    1    1    2    0    0  0.41626463899E+03  0.44183375745E+03  0.12462840278E+04  0.13946715921E+04  0.15294330000E+03 0.  0.
<mgrwt>
<rscale>  0 0.62600717E+03</rscale>
<asrwt>0</asrwt>
<pdfrwt beam="1">  1        2 0.27406758E+00 0.62600717E+03</pdfrwt>
<pdfrwt beam="2">  1       -2 0.44112387E-01 0.62600717E+03</pdfrwt>
<totfact> 0.44913628E+01</totfact>
</mgrwt>
</event>
<event>
 4    1  0.1297495E-007  0.7505921E+03  0.7818608E-02  0.9634422E-01
          2   -1    0    0  501    0  0.00000000000E+00  0.00000000000E+00  0.37169501873E+04  0.37169501873E+04  0.25500000000E-02 0. -1.
         -2   -1    0    0    0  501 -0.00000000000E+00 -0.00000000000E+00 -0.13583430238E+04  0.13583430238E+04  0.25500000000E-02 0.  1.
    8880022    1    1    2    0    0  0.45402611905E+03 -0.57780375352E+03 -0.12125726672E+04  0.14260859093E+04  0.15294330000E+03 0.  0.
    8880022    1    1    2    0    0 -0.45402611905E+03  0.57780375352E+03  0.35711798308E+04  0.36492073018E+04  0.15294330000E+03 0.  0.
<mgrwt>
<rscale>  0 0.75059213E+03</rscale>
<asrwt>0</asrwt>
<pdfrwt beam="1">  1        2 0.57183848E+00 0.75059213E+03</pdfrwt>
<pdfrwt beam="2">  1       -2 0.20897585E+00 0.75059213E+03</pdfrwt>
<totfact> 0.73112389E-02</totfact>
</mgrwt>
</event>
<event>
 4    1  0.5387657E-008  0.1945550E+03  0.7818608E-02  0.1154416E+00
          2   -1    0    0  501    0  0.00000000000E+00  0.00000000000E+00  0.28154758672E+04  0.28154758672E+04  0.25500000000E-02 0. -1.
         -2   -1    0    0    0  501 -0.00000000000E+00 -0.00000000000E+00 -0.15424965862E+03  0.15424965864E+03  0.25500000000E-02 0.  1.
    8880022    1    1    2    0    0 -0.10081525682E+03  0.65546069291E+02  0.27492917977E+04  0.27561670931E+04  0.15294330000E+03 0.  0.
    8880022    1    1    2    0    0  0.10081525682E+03 -0.65546069291E+02 -0.88065589094E+02  0.21355843277E+03  0.15294330000E+03 0.  1.
<mgrwt>
<rscale>  0 0.19455502E+03</rscale>
<asrwt>0</asrwt>
<pdfrwt beam="1">  1        2 0.43315011E+00 0.19455502E+03</pdfrwt>
<pdfrwt beam="2">  1       -2 0.23730718E-01 0.19455502E+03</pdfrwt>
<totfact> 0.43628991E+01</totfact>
</mgrwt>
</event>
<event>
 4    1  0.5387657E-008  0.6538950E+03  0.7818608E-02  0.9799498E-01
         -2   -1    0    0    0  501 -0.00000000000E+00  0.00000000000E+00  0.13635715589E+04  0.13635715589E+04  0.25500000000E-02 0.  1.
          2   -1    0    0  501    0  0.00000000000E+00 -0.00000000000E+00 -0.13277371159E+04  0.13277371159E+04  0.25500000000E-02 0. -1.
    8880022    1    1    2    0    0 -0.12770244270E+03  0.62279942831E+03 -0.11581487137E+04  0.13299951646E+04  0.15294330000E+03 0.  0.
    8880022    1    1    2    0    0  0.12770244270E+03 -0.62279942831E+03  0.11939831566E+04  0.13613135102E+04  0.15294330000E+03 0.  0.
<mgrwt>
<rscale>  0 0.65389502E+03</rscale>
<asrwt>0</asrwt>
<pdfrwt beam="1">  1        2 0.20426725E+00 0.65389502E+03</pdfrwt>
<pdfrwt beam="2">  1       -2 0.20978024E+00 0.65389502E+03</pdfrwt>
<totfact> 0.19202736E+00</totfact>
</mgrwt>
</event>
<event>
 4    1  0.5387657E-008  0.6949488E+03  0.7818608E-02  0.9725910E-01
         -2   -1    0    0    0  501 -0.00000000000E+00  0.00000000000E+00  0.25875412672E+03  0.25875412673E+03  0.25500000000E-02 0.  1.
          2   -1    0    0  501    0  0.00000000000E+00 -0.00000000000E+00 -0.29151633067E+04  0.29151633067E+04  0.25500000000E-02 0. -1.
    8880022    1    1    2    0    0  0.67741796866E+03 -0.25828927951E+02 -0.37637155700E+03  0.79032236443E+03  0.15294330000E+03 0.  1.
    8880022    1    1    2    0    0 -0.67741796866E+03  0.25828927951E+02 -0.22800376230E+04  0.23835950690E+04  0.15294330000E+03 0.  0.
<mgrwt>
<rscale>  0 0.69494884E+03</rscale>
<asrwt>0</asrwt>
<pdfrwt beam="1">  1        2 0.44848664E+00 0.69494884E+03</pdfrwt>
<pdfrwt beam="2">  1       -2 0.39808329E-01 0.69494884E+03</pdfrwt>
<totfact> 0.12561232E+01</totfact>
</mgrwt>
</event>
<event>
 4    1  0.5387657E-008  0.3713442E+03  0.7818608E-02  0.1054180E+00
          2   -1    0    0  501    0  0.00000000000E+00  0.00000000000E+00  0.66731607224E+03  0.66731607224E+03  0.25500000000E-02 0. -1.
         -2   -1    0    0    0  501 -0.00000000000E+00 -0.00000000000E+00 -0.34750533972E+03  0.34750533973E+03  0.25500000000E-02 0.  1.
    8880022    1    1    2    0    0 -0.33117153402E+03  0.69500403002E+02  0.48295966777E+03  0.60921801079E+03  0.15294330000E+03 0.  0.
    8880022    1    1    2    0    0  0.33117153402E+03 -0.69500403002E+02 -0.16314893524E+03  0.40560340118E+03  0.15294330000E+03 0.  0.
<mgrwt>
<rscale>  0 0.37134424E+03</rscale>
<asrwt>0</asrwt>
<pdfrwt beam="1">  1        2 0.10266401E+00 0.37134424E+03</pdfrwt>
<pdfrwt beam="2">  1       -2 0.53462361E-01 0.37134424E+03</pdfrwt>
<totfact> 0.14902606E+02</totfact>
</mgrwt>
</event>
<event>
 4    1  0.5387657E-008  0.4393228E+03  0.7818608E-02  0.1030955E+00
          2   -1    0    0  501    0  0.00000000000E+00  0.00000000000E+00  0.71621225377E+03  0.71621225378E+03  0.25500000000E-02 0. -1.
         -2   -1    0    0    0  501 -0.00000000000E+00 -0.00000000000E+00 -0.15498562296E+04  0.15498562296E+04  0.25500000000E-02 0.  1.
    8880022    1    1    2    0    0 -0.31213662708E+03  0.26867011317E+03 -0.14466535690E+04  0.15118899118E+04  0.15294330000E+03 0.  0.
    8880022    1    1    2    0    0  0.31213662708E+03 -0.26867011317E+03  0.61300959311E+03  0.75417857165E+03  0.15294330000E+03 0. -1.
<mgrwt>
<rscale>  0 0.43932284E+03</rscale>
<asrwt>0</asrwt>
<pdfrwt beam="1">  1        2 0.11018650E+00 0.43932284E+03</pdfrwt>
<pdfrwt beam="2">  1       -2 0.23843942E+00 0.43932284E+03</pdfrwt>
<totfact> 0.32886129E+00</totfact>
</mgrwt>
</event>
<event>
 4    1  0.5387657E-008  0.5654353E+03  0.7818608E-02  0.9979831E-01
         -2   -1    0    0    0  501 -0.00000000000E+00  0.00000000000E+00  0.25966108490E+03  0.25966108491E+03  0.25500000000E-02 0.  1.
          2   -1    0    0  501    0  0.00000000000E+00 -0.00000000000E+00 -0.18998489262E+04  0.18998489262E+04  0.25500000000E-02 0. -1.
    8880022    1    1    2    0    0 -0.35792812540E+03  0.41013767058E+03 -0.14606199446E+04  0.15662463814E+04  0.15294330000E+03 0.  0.
    8880022    1    1    2    0    0  0.35792812540E+03 -0.41013767058E+03 -0.17956789674E+03  0.59326362971E+03  0.15294330000E+03 0.  0.
<mgrwt>
<rscale>  0 0.56543532E+03</rscale>
<asrwt>0</asrwt>
<pdfrwt beam="1">  1        2 0.29228444E+00 0.56543532E+03</pdfrwt>
<pdfrwt beam="2">  1       -2 0.39947860E-01 0.56543532E+03</pdfrwt>
<totfact> 0.47500266E+01</totfact>
</mgrwt>
</event>
<event>
 4    1  0.5387657E-008  0.1130202E+04  0.7818608E-02  0.9176245E-01
         -2   -1    0    0    0  501 -0.00000000000E+00  0.00000000000E+00  0.71225647333E+03  0.71225647333E+03  0.25500000000E-02 0.  1.
          2   -1    0    0  501    0  0.00000000000E+00 -0.00000000000E+00 -0.24539021556E+04  0.24539021556E+04  0.25500000000E-02 0. -1.
    8880022    1    1    2    0    0 -0.11192252404E+04  0.36043313639E+02 -0.16921447541E+04  0.20348734066E+04  0.15294330000E+03 0.  0.
    8880022    1    1    2    0    0  0.11192252404E+04 -0.36043313639E+02 -0.49500928222E+02  0.11312852223E+04  0.15294330000E+03 0.  0.
<mgrwt>
<rscale>  0 0.11302017E+04</rscale>
<asrwt>0</asrwt>
<pdfrwt beam="1">  1        2 0.37752340E+00 0.11302017E+04</pdfrwt>
<pdfrwt beam="2">  1       -2 0.10957792E+00 0.11302017E+04</pdfrwt>
<totfact> 0.24298095E+00</totfact>
</mgrwt>
</event>
<event>
 4    1  0.5387657E-008  0.2591535E+03  0.7818608E-02  0.1107653E+00
          2   -1    0    0  501    0  0.00000000000E+00  0.00000000000E+00  0.21673331780E+03  0.21673331782E+03  0.25500000000E-02 0. -1.
         -2   -1    0    0    0  501 -0.00000000000E+00 -0.00000000000E+00 -0.40649267038E+03  0.40649267039E+03  0.25500000000E-02 0.  1.
    8880022    1    1    2    0    0 -0.50561108587E+02  0.20300857114E+03  0.57040040942E+02  0.26535659958E+03  0.15294330000E+03 0.  1.
    8880022    1    1    2    0    0  0.50561108587E+02 -0.20300857114E+03 -0.24679939353E+03  0.35786938863E+03  0.15294330000E+03 0.  1.
<mgrwt>
<rscale>  0 0.25915354E+03</rscale>
<asrwt>0</asrwt>
<pdfrwt beam="1">  1        2 0.33343587E-01 0.25915354E+03</pdfrwt>
<pdfrwt beam="2">  1       -2 0.62537334E-01 0.25915354E+03</pdfrwt>
<totfact> 0.38003430E+02</totfact>
</mgrwt>
</event>
<event>
 4    1  0.5387657E-008  0.2268968E+03  0.7818608E-02  0.1128843E+00
         -2   -1    0    0    0  501 -0.00000000000E+00  0.00000000000E+00  0.25518509101E+02  0.25518509229E+02  0.25500000000E-02 0.  1.
          2   -1    0    0  501    0  0.00000000000E+00 -0.00000000000E+00 -0.27167718763E+04  0.27167718763E+04  0.25500000000E-02 0. -1.
    8880022    1    1    2    0    0  0.86567577707E+02 -0.14351498153E+03 -0.64996600088E+03  0.68843151493E+03  0.15294330000E+03 0. -1.
    8880022    1    1    2    0    0 -0.86567577707E+02  0.14351498153E+03 -0.20412873664E+04  0.20538588706E+04  0.15294330000E+03 0. -1.
<mgrwt>
<rscale>  0 0.22689678E+03</rscale>
<asrwt>0</asrwt>
<pdfrwt beam="1">  1        2 0.41796467E+00 0.22689678E+03</pdfrwt>
<pdfrwt beam="2">  1       -2 0.39259266E-02 0.22689678E+03</pdfrwt>
<totfact> 0.86621348E+02</totfact>
</mgrwt>
</event>
<event>
 4    1  0.5387657E-008  0.5234783E+03  0.7818608E-02  0.1007826E+00
         -2   -1    0    0    0  501 -0.00000000000E+00  0.00000000000E+00  0.49223571873E+03  0.49223571874E+03  0.25500000000E-02 0.  1.
          2   -1    0    0  501    0  0.00000000000E+00 -0.00000000000E+00 -0.24507424098E+04  0.24507424098E+04  0.25500000000E-02 0. -1.
    8880022    1    1    2    0    0 -0.19606015069E+03  0.46064987738E+03 -0.22728610932E+04  0.23323651288E+04  0.15294330000E+03 0.  0.
    8880022    1    1    2    0    0  0.19606015069E+03 -0.46064987738E+03  0.31435440215E+03  0.61061299968E+03  0.15294330000E+03 0.  0.
<mgrwt>
<rscale>  0 0.52347831E+03</rscale>
<asrwt>0</asrwt>
<pdfrwt beam="1">  1        2 0.37703729E+00 0.52347831E+03</pdfrwt>
<pdfrwt beam="2">  1       -2 0.75728574E-01 0.52347831E+03</pdfrwt>
<totfact> 0.63856328E+00</totfact>
</mgrwt>
</event>
<event>
 4    1  0.5387657E-008  0.8476298E+03  0.7818608E-02  0.9493524E-01
          2   -1    0    0  501    0  0.00000000000E+00  0.00000000000E+00  0.75391788555E+03  0.75391788555E+03  0.25500000000E-02 0. -1.
         -2   -1    0    0    0  501 -0.00000000000E+00 -0.00000000000E+00 -0.18173509422E+04  0.18173509422E+04  0.25500000000E-02 0.  1.
    8880022    1    1    2    0    0  0.76450116212E+03 -0.33259963713E+03 -0.14183531356E+04  0.16523322353E+04  0.15294330000E+03 0.  0.
    8880022    1    1    2    0    0 -0.76450116212E+03  0.33259963713E+03  0.35492007895E+03  0.91893659246E+03  0.15294330000E+03 0.  0.
<mgrwt>
<rscale>  0 0.84762975E+03</rscale>
<asrwt>0</asrwt>
<pdfrwt beam="1">  1        2 0.11598737E+00 0.84762975E+03</pdfrwt>
<pdfrwt beam="2">  1       -2 0.27959245E+00 0.84762975E+03</pdfrwt>
<totfact> 0.16131848E+00</totfact>
</mgrwt>
</event>
<event>
 4    1  0.5387657E-008  0.1129848E+04  0.7818608E-02  0.9176579E-01
         -2   -1    0    0    0  501 -0.00000000000E+00  0.00000000000E+00  0.70397747842E+03  0.70397747842E+03  0.25500000000E-02 0.  1.
          2   -1    0    0  501    0  0.00000000000E+00 -0.00000000000E+00 -0.28959629381E+04  0.28959629381E+04  0.25500000000E-02 0. -1.
    8880022    1    1    2    0    0  0.25463891671E+03 -0.10901023073E+04  0.45475997762E+01  0.11298567838E+04  0.15294330000E+03 0.  0.
    8880022    1    1    2    0    0 -0.25463891671E+03  0.10901023073E+04 -0.21965330595E+04  0.24700836327E+04  0.15294330000E+03 0.  0.
<mgrwt>
<rscale>  0 0.11298476E+04</rscale>
<asrwt>0</asrwt>
<pdfrwt beam="1">  1        2 0.44553275E+00 0.11298476E+04</pdfrwt>
<pdfrwt beam="2">  1       -2 0.10830423E+00 0.11298476E+04</pdfrwt>
<totfact> 0.13744232E+00</totfact>
</mgrwt>
</event>
<event>
 4    1  0.5387657E-008  0.3015253E+03  0.7818608E-02  0.1084481E+00
          2   -1    0    0  501    0  0.00000000000E+00  0.00000000000E+00  0.75432305393E+03  0.75432305394E+03  0.25500000000E-02 0. -1.
         -2   -1    0    0    0  501 -0.00000000000E+00 -0.00000000000E+00 -0.45472599939E+03  0.45472599940E+03  0.25500000000E-02 0.  1.
    8880022    1    1    2    0    0 -0.12995884755E+02 -0.25953222351E+03 -0.36845295022E+03  0.47610408274E+03  0.15294330000E+03 0.  1.
    8880022    1    1    2    0    0  0.12995884755E+02  0.25953222351E+03  0.66805000476E+03  0.73294497060E+03  0.15294330000E+03 0.  0.
<mgrwt>
<rscale>  0 0.30152532E+03</rscale>
<asrwt>0</asrwt>
<pdfrwt beam="1">  1        2 0.11604970E+00 0.30152532E+03</pdfrwt>
<pdfrwt beam="2">  1       -2 0.69957846E-01 0.30152532E+03</pdfrwt>
<totfact> 0.73590967E+01</totfact>
</mgrwt>
</event>
<event>
 4    1  0.5387657E-008  0.7899838E+03  0.7818608E-02  0.9574629E-01
          2   -1    0    0  501    0  0.00000000000E+00  0.00000000000E+00  0.35446513624E+04  0.35446513624E+04  0.25500000000E-02 0. -1.
         -2   -1    0    0    0  501 -0.00000000000E+00 -0.00000000000E+00 -0.23637859590E+03  0.23637859591E+03  0.25500000000E-02 0.  1.
    8880022    1    1    2    0    0  0.64440867713E+03 -0.43060447767E+03  0.26091257113E+04  0.27260981988E+04  0.15294330000E+03 0.  0.
    8880022    1    1    2    0    0 -0.64440867713E+03  0.43060447767E+03  0.69914705524E+03  0.10549317595E+04  0.15294330000E+03 0.  1.
<mgrwt>
<rscale>  0 0.78998381E+03</rscale>
<asrwt>0</asrwt>
<pdfrwt beam="1">  1        2 0.54533095E+00 0.78998381E+03</pdfrwt>
<pdfrwt beam="2">  1       -2 0.36365940E-01 0.78998381E+03</pdfrwt>
<totfact> 0.57911193E+00</totfact>
</mgrwt>
</event>
<event>
 4    1  0.5387657E-008  0.2724143E+03  0.7818608E-02  0.1099906E+00
         -2   -1    0    0    0  501 -0.00000000000E+00  0.00000000000E+00  0.36795702807E+03  0.36795702808E+03  0.25500000000E-02 0.  1.
          2   -1    0    0  501    0  0.00000000000E+00 -0.00000000000E+00 -0.59411045246E+03  0.59411045247E+03  0.25500000000E-02 0. -1.
    8880022    1    1    2    0    0  0.34213175617E+02 -0.22281690829E+03  0.27787516246E+03  0.38913259300E+03  0.15294330000E+03 0.  1.
    8880022    1    1    2    0    0 -0.34213175617E+02  0.22281690829E+03 -0.50402858684E+03  0.57293488755E+03  0.15294330000E+03 0.  0.
<mgrwt>
<rscale>  0 0.27241433E+03</rscale>
<asrwt>0</asrwt>
<pdfrwt beam="1">  1        2 0.91401608E-01 0.27241433E+03</pdfrwt>
<pdfrwt beam="2">  1       -2 0.56608773E-01 0.27241433E+03</pdfrwt>
<totfact> 0.15387575E+02</totfact>
</mgrwt>
</event>
<event>
 4    1  0.5387657E-008  0.8365852E+03  0.7818608E-02  0.9508521E-01
         -2   -1    0    0    0  501 -0.00000000000E+00  0.00000000000E+00  0.66080081622E+03  0.66080081622E+03  0.25500000000E-02 0.  1.
          2   -1    0    0  501    0  0.00000000000E+00 -0.00000000000E+00 -0.19128061805E+04  0.19128061805E+04  0.25500000000E-02 0. -1.
    8880022    1    1    2    0    0  0.69997194997E+03  0.43188244986E+03 -0.14856553164E+04  0.17050063207E+04  0.15294330000E+03 0.  0.
    8880022    1    1    2    0    0 -0.69997194997E+03 -0.43188244986E+03  0.23364995217E+03  0.86860067604E+03  0.15294330000E+03 0.  0.
<mgrwt>
<rscale>  0 0.83658522E+03</rscale>
<asrwt>0</asrwt>
<pdfrwt beam="1">  1        2 0.29427787E+00 0.83658522E+03</pdfrwt>
<pdfrwt beam="2">  1       -2 0.10166167E+00 0.83658522E+03</pdfrwt>
<totfact> 0.60544556E+00</totfact>
</mgrwt>
</event>
<event>
 4    1  0.5387657E-008  0.6402240E+03  0.7818608E-02  0.9825298E-01
         -2   -1    0    0    0  501 -0.00000000000E+00  0.00000000000E+00  0.37191698439E+03  0.37191698440E+03  0.25500000000E-02 0.  1.
          2   -1    0    0  501    0  0.00000000000E+00 -0.00000000000E+00 -0.16554067393E+04  0.16554067393E+04  0.25500000000E-02 0. -1.
    8880022    1    1    2    0    0 -0.55567853250E+03  0.27877683814E+03 -0.12277842382E+04  0.13846808100E+04  0.15294330000E+03 0.  0.
    8880022    1    1    2    0    0  0.55567853250E+03 -0.27877683814E+03 -0.55705516733E+02  0.64264291373E+03  0.15294330000E+03 0.  0.
<mgrwt>
<rscale>  0 0.64022403E+03</rscale>
<asrwt>0</asrwt>
<pdfrwt beam="1">  1        2 0.25467796E+00 0.64022403E+03</pdfrwt>
<pdfrwt beam="2">  1       -2 0.57217998E-01 0.64022403E+03</pdfrwt>
<totfact> 0.30931299E+01</totfact>
</mgrwt>
</event>
<event>
 4    1  0.5387657E-008  0.6987910E+03  0.7818608E-02  0.9719302E-01
         -2   -1    0    0    0  501 -0.00000000000E+00  0.00000000000E+00  0.82214907806E+03  0.82214907807E+03  0.25500000000E-02 0.  1.
          2   -1    0    0  501    0  0.00000000000E+00 -0.00000000000E+00 -0.94457310733E+03  0.94457310733E+03  0.25500000000E-02 0. -1.
    8880022    1    1    2    0    0  0.42405255184E+03  0.53394436688E+03 -0.59941455862E+03  0.92065553805E+03  0.15294330000E+03 0.  0.
    8880022    1    1    2    0    0 -0.42405255184E+03 -0.53394436688E+03  0.47699052935E+03  0.84606664735E+03  0.15294330000E+03 0.  0.
<mgrwt>
<rscale>  0 0.69879096E+03</rscale>
<asrwt>0</asrwt>
<pdfrwt beam="1">  1        2 0.14531894E+00 0.69879096E+03</pdfrwt>
<pdfrwt beam="2">  1       -2 0.12648447E+00 0.69879096E+03</pdfrwt>
<totfact> 0.13028870E+01</totfact>
</mgrwt>
</event>
<event>
 4    1  0.5387657E-008  0.5357645E+03  0.7818608E-02  0.1004844E+00
         -2   -1    0    0    0  501 -0.00000000000E+00  0.00000000000E+00  0.22241113953E+03  0.22241113954E+03  0.25500000000E-02 0.  1.
          2   -1    0    0  501    0  0.00000000000E+00 -0.00000000000E+00 -0.17166069982E+04  0.17166069982E+04  0.25500000000E-02 0. -1.
    8880022    1    1    2    0    0  0.43546207221E+03 -0.27207481701E+03 -0.26412214523E+03  0.59733079864E+03  0.15294330000E+03 0.  0.
    8880022    1    1    2    0    0 -0.43546207221E+03  0.27207481701E+03 -0.12300737135E+04  0.13416873391E+04  0.15294330000E+03 0.  0.
<mgrwt>
<rscale>  0 0.53576448E+03</rscale>
<asrwt>0</asrwt>
<pdfrwt beam="1">  1        2 0.26409338E+00 0.53576448E+03</pdfrwt>
<pdfrwt beam="2">  1       -2 0.34217100E-01 0.53576448E+03</pdfrwt>
<totfact> 0.80580515E+01</totfact>
</mgrwt>
</event>
<event>
 4    1  0.5387657E-008  0.4274267E+03  0.7818608E-02  0.1034676E+00
          2   -1    0    0  501    0  0.00000000000E+00  0.00000000000E+00  0.11349413764E+04  0.11349413764E+04  0.25500000000E-02 0. -1.
         -2   -1    0    0    0  501 -0.00000000000E+00 -0.00000000000E+00 -0.27533252652E+03  0.27533252653E+03  0.25500000000E-02 0.  1.
    8880022    1    1    2    0    0  0.21458638264E+03  0.33653317960E+03 -0.24642509035E+02  0.42813643019E+03  0.15294330000E+03 0.  0.
    8880022    1    1    2    0    0 -0.21458638264E+03 -0.33653317960E+03  0.88425135890E+03  0.98213747272E+03  0.15294330000E+03 0. -1.
<mgrwt>
<rscale>  0 0.42742666E+03</rscale>
<asrwt>0</asrwt>
<pdfrwt beam="1">  1        2 0.17460637E+00 0.42742666E+03</pdfrwt>
<pdfrwt beam="2">  1       -2 0.42358850E-01 0.42742666E+03</pdfrwt>
<totfact> 0.11468025E+02</totfact>
</mgrwt>
</event>
<event>
 4    1  0.5387657E-008  0.7858412E+03  0.7818608E-02  0.9580740E-01
         -2   -1    0    0    0  501 -0.00000000000E+00  0.00000000000E+00  0.22151013538E+03  0.22151013539E+03  0.25500000000E-02 0.  1.
          2   -1    0    0  501    0  0.00000000000E+00 -0.00000000000E+00 -0.33310887490E+04  0.33310887490E+04  0.25500000000E-02 0. -1.
    8880022    1    1    2    0    0  0.19653954655E+03 -0.74533685122E+03 -0.83748833839E+03  0.11484481639E+04  0.15294330000E+03 0.  0.
    8880022    1    1    2    0    0 -0.19653954655E+03  0.74533685122E+03 -0.22720902753E+04  0.24041507206E+04  0.15294330000E+03 0.  0.
<mgrwt>
<rscale>  0 0.78584125E+03</rscale>
<asrwt>0</asrwt>
<pdfrwt beam="1">  1        2 0.51247516E+00 0.78584125E+03</pdfrwt>
<pdfrwt beam="2">  1       -2 0.34078485E-01 0.78584125E+03</pdfrwt>
<totfact> 0.91338933E+00</totfact>
</mgrwt>
</event>
<event>
 4    1  0.5387657E-008  0.9199617E+03  0.7818608E-02  0.9400967E-01
          2   -1    0    0  501    0  0.00000000000E+00  0.00000000000E+00  0.26406070800E+04  0.26406070800E+04  0.25500000000E-02 0. -1.
         -2   -1    0    0    0  501 -0.00000000000E+00 -0.00000000000E+00 -0.41086791343E+03  0.41086791344E+03  0.25500000000E-02 0.  1.
    8880022    1    1    2    0    0  0.44742050646E+03 -0.78914688247E+03  0.18303902587E+04  0.20485746420E+04  0.15294330000E+03 0.  0.
    8880022    1    1    2    0    0 -0.44742050646E+03  0.78914688247E+03  0.39934890791E+03  0.10029003515E+04  0.15294330000E+03 0.  0.
<mgrwt>
<rscale>  0 0.91996172E+03</rscale>
<asrwt>0</asrwt>
<pdfrwt beam="1">  1        2 0.40624724E+00 0.91996172E+03</pdfrwt>
<pdfrwt beam="2">  1       -2 0.63210449E-01 0.91996172E+03</pdfrwt>
<totfact> 0.68462776E+00</totfact>
</mgrwt>
</event>
<event>
 4    1  0.5387657E-008  0.6302447E+03  0.7818608E-02  0.9844571E-01
          2   -1    0    0  501    0  0.00000000000E+00  0.00000000000E+00  0.46059747598E+03  0.46059747599E+03  0.25500000000E-02 0. -1.
         -2   -1    0    0    0  501 -0.00000000000E+00 -0.00000000000E+00 -0.13045906571E+04  0.13045906571E+04  0.25500000000E-02 0.  1.
    8880022    1    1    2    0    0 -0.52323318516E+03  0.31629703516E+03  0.91857950219E+02  0.63690369487E+03  0.15294330000E+03 0.  0.
    8880022    1    1    2    0    0  0.52323318516E+03 -0.31629703516E+03 -0.93585113138E+03  0.11282844383E+04  0.15294330000E+03 0.  0.
<mgrwt>
<rscale>  0 0.63024474E+03</rscale>
<asrwt>0</asrwt>
<pdfrwt beam="1">  1        2 0.70861151E-01 0.63024474E+03</pdfrwt>
<pdfrwt beam="2">  1       -2 0.20070625E+00 0.63024474E+03</pdfrwt>
<totfact> 0.92097569E+00</totfact>
</mgrwt>
</event>
<event>
 4    1  0.5387657E-008  0.7493263E+03  0.7818608E-02  0.9636408E-01
         -2   -1    0    0    0  501 -0.00000000000E+00  0.00000000000E+00  0.52794744256E+03  0.52794744257E+03  0.25500000000E-02 0.  1.
          2   -1    0    0  501    0  0.00000000000E+00 -0.00000000000E+00 -0.21026916626E+04  0.21026916626E+04  0.25500000000E-02 0. -1.
    8880022    1    1    2    0    0 -0.39367285233E+03 -0.61896683999E+03 -0.17120367642E+04  0.18688391581E+04  0.15294330000E+03 0. -1.
    8880022    1    1    2    0    0  0.39367285233E+03  0.61896683999E+03  0.13729254420E+03  0.76179994709E+03  0.15294330000E+03 0.  0.
<mgrwt>
<rscale>  0 0.74932631E+03</rscale>
<asrwt>0</asrwt>
<pdfrwt beam="1">  1        2 0.32349102E+00 0.74932631E+03</pdfrwt>
<pdfrwt beam="2">  1       -2 0.81222685E-01 0.74932631E+03</pdfrwt>
<totfact> 0.81215291E+00</totfact>
</mgrwt>
</event>
<event>
 4    1  0.5387657E-008  0.3307931E+03  0.7818608E-02  0.1070786E+00
          2   -1    0    0  501    0  0.00000000000E+00  0.00000000000E+00  0.34655485582E+04  0.34655485582E+04  0.25500000000E-02 0. -1.
         -2   -1    0    0    0  501 -0.00000000000E+00 -0.00000000000E+00 -0.11242116068E+03  0.11242116071E+03  0.25500000000E-02 0.  1.
    8880022    1    1    2    0    0  0.39927948155E+02  0.29058253119E+03  0.15946864140E+03  0.36722520214E+03  0.15294330000E+03 0.  0.
    8880022    1    1    2    0    0 -0.39927948155E+02 -0.29058253119E+03  0.31936587561E+04  0.32107445168E+04  0.15294330000E+03 0.  0.
<mgrwt>
<rscale>  0 0.33079314E+03</rscale>
<asrwt>0</asrwt>
<pdfrwt beam="1">  1        2 0.53316133E+00 0.33079314E+03</pdfrwt>
<pdfrwt beam="2">  1       -2 0.17295563E-01 0.33079314E+03</pdfrwt>
<totfact> 0.28220175E+01</totfact>
</mgrwt>
</event>
<event>
 4    1  0.5387657E-008  0.3344679E+03  0.7818608E-02  0.1069177E+00
          2   -1    0    0  501    0  0.00000000000E+00  0.00000000000E+00  0.73419950709E+03  0.73419950710E+03  0.25500000000E-02 0. -1.
         -2   -1    0    0    0  501 -0.00000000000E+00 -0.00000000000E+00 -0.22092561723E+03  0.22092561724E+03  0.25500000000E-02 0.  1.
    8880022    1    1    2    0    0  0.13029072333E+03 -0.26739760958E+03  0.52266890394E+03  0.62052525360E+03  0.15294330000E+03 0. -1.
    8880022    1    1    2    0    0 -0.13029072333E+03  0.26739760958E+03 -0.93950140745E+01  0.33459987074E+03  0.15294330000E+03 0.  0.
<mgrwt>
<rscale>  0 0.33446795E+03</rscale>
<asrwt>0</asrwt>
<pdfrwt beam="1">  1        2 0.11295377E+00 0.33446795E+03</pdfrwt>
<pdfrwt beam="2">  1       -2 0.33988556E-01 0.33446795E+03</pdfrwt>
<totfact> 0.32171973E+02</totfact>
</mgrwt>
</event>
<event>
 4    1  0.5387657E-008  0.7340130E+03  0.7818608E-02  0.9660771E-01
          2   -1    0    0  501    0  0.00000000000E+00  0.00000000000E+00  0.37166115372E+04  0.37166115372E+04  0.25500000000E-02 0. -1.
         -2   -1    0    0    0  501 -0.00000000000E+00 -0.00000000000E+00 -0.18011237152E+03  0.18011237154E+03  0.25500000000E-02 0.  1.
    8880022    1    1    2    0    0  0.60271357798E+03  0.39002532439E+03  0.26289463237E+04  0.27294933296E+04  0.15294330000E+03 0.  0.
    8880022    1    1    2    0    0 -0.60271357798E+03 -0.39002532439E+03  0.90755284200E+03  0.11672305791E+04  0.15294330000E+03 0.  1.
<mgrwt>
<rscale>  0 0.73401299E+03</rscale>
<asrwt>0</asrwt>
<pdfrwt beam="1">  1        2 0.57178638E+00 0.73401299E+03</pdfrwt>
<pdfrwt beam="2">  1       -2 0.27709596E-01 0.73401299E+03</pdfrwt>
<totfact> 0.73692243E+00</totfact>
</mgrwt>
</event>
<event>
 4    1  0.5387657E-008  0.2679786E+03  0.7818608E-02  0.1102442E+00
         -2   -1    0    0    0  501 -0.00000000000E+00  0.00000000000E+00  0.30114145625E+03  0.30114145627E+03  0.25500000000E-02 0.  1.
          2   -1    0    0  501    0  0.00000000000E+00 -0.00000000000E+00 -0.42513242647E+03  0.42513242647E+03  0.25500000000E-02 0. -1.
    8880022    1    1    2    0    0 -0.17180584318E+03 -0.13749052464E+03 -0.30261968938E+03  0.40421680016E+03  0.15294330000E+03 0.  0.
    8880022    1    1    2    0    0  0.17180584318E+03  0.13749052464E+03  0.17862871916E+03  0.32205708258E+03  0.15294330000E+03 0.  0.
<mgrwt>
<rscale>  0 0.26797863E+03</rscale>
<asrwt>0</asrwt>
<pdfrwt beam="1">  1        2 0.65404988E-01 0.26797863E+03</pdfrwt>
<pdfrwt beam="2">  1       -2 0.46329455E-01 0.26797863E+03</pdfrwt>
<totfact> 0.33610758E+02</totfact>
</mgrwt>
</event>
<event>
 4    1  0.5387657E-008  0.2676154E+03  0.7818608E-02  0.1102652E+00
         -2   -1    0    0    0  501 -0.00000000000E+00  0.00000000000E+00  0.19528762269E+03  0.19528762271E+03  0.25500000000E-02 0.  1.
          2   -1    0    0  501    0  0.00000000000E+00 -0.00000000000E+00 -0.53458187974E+03  0.53458187975E+03  0.25500000000E-02 0. -1.
    8880022    1    1    2    0    0 -0.19925729278E+03 -0.92319512216E+02 -0.37413614629E+03  0.45999551089E+03  0.15294330000E+03 0.  0.
    8880022    1    1    2    0    0  0.19925729278E+03  0.92319512216E+02  0.34841889246E+02  0.26987399157E+03  0.15294330000E+03 0.  0.
<mgrwt>
<rscale>  0 0.26761542E+03</rscale>
<asrwt>0</asrwt>
<pdfrwt beam="1">  1        2 0.82243365E-01 0.26761542E+03</pdfrwt>
<pdfrwt beam="2">  1       -2 0.30044250E-01 0.26761542E+03</pdfrwt>
<totfact> 0.59104244E+02</totfact>
</mgrwt>
</event>
<event>
 4    1  0.5387657E-008  0.5995916E+03  0.7818608E-02  0.9906254E-01
          2   -1    0    0  501    0  0.00000000000E+00  0.00000000000E+00  0.19152308808E+04  0.19152308808E+04  0.25500000000E-02 0. -1.
         -2   -1    0    0    0  501 -0.00000000000E+00 -0.00000000000E+00 -0.76106307845E+03  0.76106307845E+03  0.25500000000E-02 0.  1.
    8880022    1    1    2    0    0  0.70333298468E+02  0.57547520348E+03 -0.58437578763E+03  0.83726053107E+03  0.15294330000E+03 0.  0.
    8880022    1    1    2    0    0 -0.70333298468E+02 -0.57547520348E+03  0.17385435900E+04  0.18390334282E+04  0.15294330000E+03 0.  0.
<mgrwt>
<rscale>  0 0.59959164E+03</rscale>
<asrwt>0</asrwt>
<pdfrwt beam="1">  1        2 0.29465090E+00 0.59959164E+03</pdfrwt>
<pdfrwt beam="2">  1       -2 0.11708663E+00 0.59959164E+03</pdfrwt>
<totfact> 0.44689215E+00</totfact>
</mgrwt>
</event>
<event>
 4    1  0.5387657E-008  0.2842431E+03  0.7818608E-02  0.1093394E+00
          2   -1    0    0  501    0  0.00000000000E+00  0.00000000000E+00  0.21207558151E+04  0.21207558151E+04  0.25500000000E-02 0. -1.
         -2   -1    0    0    0  501 -0.00000000000E+00 -0.00000000000E+00 -0.18501517391E+03  0.18501517393E+03  0.25500000000E-02 0.  1.
    8880022    1    1    2    0    0 -0.20385824043E+03 -0.12587424026E+03 -0.59484476539E+02  0.29040069303E+03  0.15294330000E+03 0.  1.
    8880022    1    1    2    0    0  0.20385824043E+03  0.12587424026E+03  0.19952251177E+04  0.20153702960E+04  0.15294330000E+03 0.  0.
<mgrwt>
<rscale>  0 0.28424313E+03</rscale>
<asrwt>0</asrwt>
<pdfrwt beam="1">  1        2 0.32627015E+00 0.28424313E+03</pdfrwt>
<pdfrwt beam="2">  1       -2 0.28463871E-01 0.28424313E+03</pdfrwt>
<totfact> 0.72635686E+01</totfact>
</mgrwt>
</event>
<event>
 4    1  0.5387657E-008  0.2444874E+03  0.7818608E-02  0.1116839E+00
          2   -1    0    0  501    0  0.00000000000E+00  0.00000000000E+00  0.65197126407E+03  0.65197126408E+03  0.25500000000E-02 0. -1.
         -2   -1    0    0    0  501 -0.00000000000E+00 -0.00000000000E+00 -0.33283223691E+03  0.33283223692E+03  0.25500000000E-02 0.  1.
    8880022    1    1    2    0    0  0.14182192837E+03  0.12754998788E+03 -0.25956230234E+03  0.35657636011E+03  0.15294330000E+03 0.  1.
    8880022    1    1    2    0    0 -0.14182192837E+03 -0.12754998788E+03  0.57870132950E+03  0.62822714089E+03  0.15294330000E+03 0.  0.
<mgrwt>
<rscale>  0 0.24448745E+03</rscale>
<asrwt>0</asrwt>
<pdfrwt beam="1">  1        2 0.10030327E+00 0.24448745E+03</pdfrwt>
<pdfrwt beam="2">  1       -2 0.51204960E-01 0.24448745E+03</pdfrwt>
<totfact> 0.16971408E+02</totfact>
</mgrwt>
</event>
<event>
 4    1  0.5387657E-008  0.6939003E+03  0.7818608E-02  0.9727721E-01
         -2   -1    0    0    0  501 -0.00000000000E+00  0.00000000000E+00  0.35923018241E+03  0.35923018242E+03  0.25500000000E-02 0.  1.
          2   -1    0    0  501    0  0.00000000000E+00 -0.00000000000E+00 -0.14405911633E+04  0.14405911633E+04  0.25500000000E-02 0. -1.
    8880022    1    1    2    0    0  0.42232952711E+03  0.52890813131E+03 -0.30330774235E+03  0.75729339124E+03  0.15294330000E+03 0.  0.
    8880022    1    1    2    0    0 -0.42232952711E+03 -0.52890813131E+03 -0.77805323852E+03  0.10425279545E+04  0.15294330000E+03 0.  1.
<mgrwt>
<rscale>  0 0.69390035E+03</rscale>
<asrwt>0</asrwt>
<pdfrwt beam="1">  1        2 0.22162941E+00 0.69390035E+03</pdfrwt>
<pdfrwt beam="2">  1       -2 0.55266183E-01 0.69390035E+03</pdfrwt>
<totfact> 0.43391116E+01</totfact>
</mgrwt>
</event>
<event>
 4    1  0.5387657E-008  0.6209027E+03  0.7818608E-02  0.9862964E-01
         -2   -1    0    0    0  501 -0.00000000000E+00  0.00000000000E+00  0.11721990163E+04  0.11721990163E+04  0.25500000000E-02 0.  1.
          2   -1    0    0  501    0  0.00000000000E+00 -0.00000000000E+00 -0.12581510081E+04  0.12581510081E+04  0.25500000000E-02 0. -1.
    8880022    1    1    2    0    0  0.56261081126E+03 -0.21353599574E+03 -0.10873166077E+04  0.12521092624E+04  0.15294330000E+03 0.  0.
    8880022    1    1    2    0    0 -0.56261081126E+03  0.21353599574E+03  0.10013646159E+04  0.11782407621E+04  0.15294330000E+03 0.  0.
<mgrwt>
<rscale>  0 0.62090273E+03</rscale>
<asrwt>0</asrwt>
<pdfrwt beam="1">  1        2 0.19356169E+00 0.62090273E+03</pdfrwt>
<pdfrwt beam="2">  1       -2 0.18033831E+00 0.62090273E+03</pdfrwt>
<totfact> 0.33068285E+00</totfact>
</mgrwt>
</event>
<event>
 4    1  0.5387657E-008  0.5742529E+03  0.7818608E-02  0.9960312E-01
         -2   -1    0    0    0  501 -0.00000000000E+00  0.00000000000E+00  0.71933636169E+03  0.71933636169E+03  0.25500000000E-02 0.  1.
          2   -1    0    0  501    0  0.00000000000E+00 -0.00000000000E+00 -0.12591061941E+04  0.12591061941E+04  0.25500000000E-02 0. -1.
    8880022    1    1    2    0    0  0.28300053817E+03  0.47569467254E+03  0.51895766613E+03  0.77400480511E+03  0.15294330000E+03 0.  0.
    8880022    1    1    2    0    0 -0.28300053817E+03 -0.47569467254E+03 -0.10587274985E+04  0.12044377506E+04  0.15294330000E+03 0.  0.
<mgrwt>
<rscale>  0 0.57425289E+03</rscale>
<asrwt>0</asrwt>
<pdfrwt beam="1">  1        2 0.19370865E+00 0.57425289E+03</pdfrwt>
<pdfrwt beam="2">  1       -2 0.11066713E+00 0.57425289E+03</pdfrwt>
<totfact> 0.11836985E+01</totfact>
</mgrwt>
</event>
<event>
 4    1  0.5387657E-008  0.3319319E+03  0.7818608E-02  0.1070285E+00
         -2   -1    0    0    0  501 -0.00000000000E+00  0.00000000000E+00  0.37271860197E+03  0.37271860198E+03  0.25500000000E-02 0.  1.
          2   -1    0    0  501    0  0.00000000000E+00 -0.00000000000E+00 -0.59935049181E+03  0.59935049182E+03  0.25500000000E-02 0. -1.
    8880022    1    1    2    0    0 -0.15866264295E+03  0.24822025412E+03  0.23268647362E+03  0.40536622558E+03  0.15294330000E+03 0.  0.
    8880022    1    1    2    0    0  0.15866264295E+03 -0.24822025412E+03 -0.45931836346E+03  0.56670286822E+03  0.15294330000E+03 0. -1.
<mgrwt>
<rscale>  0 0.33193189E+03</rscale>
<asrwt>0</asrwt>
<pdfrwt beam="1">  1        2 0.92207768E-01 0.33193189E+03</pdfrwt>
<pdfrwt beam="2">  1       -2 0.57341324E-01 0.33193189E+03</pdfrwt>
<totfact> 0.14733250E+02</totfact>
</mgrwt>
</event>
<event>
 4    1  0.5387657E-008  0.3338495E+03  0.7818608E-02  0.1069446E+00
         -2   -1    0    0    0  501 -0.00000000000E+00  0.00000000000E+00  0.91267905633E+03  0.91267905633E+03  0.25500000000E-02 0.  1.
          2   -1    0    0  501    0  0.00000000000E+00 -0.00000000000E+00 -0.19427792254E+03  0.19427792256E+03  0.25500000000E-02 0. -1.
    8880022    1    1    2    0    0 -0.62030019320E+02  0.29020009478E+03  0.69651426915E+03  0.77239083271E+03  0.15294330000E+03 0.  0.
    8880022    1    1    2    0    0  0.62030019320E+02 -0.29020009478E+03  0.21886864632E+02  0.33456614618E+03  0.15294330000E+03 0.  0.
<mgrwt>
<rscale>  0 0.33384947E+03</rscale>
<asrwt>0</asrwt>
<pdfrwt beam="1">  1        2 0.29888911E-01 0.33384947E+03</pdfrwt>
<pdfrwt beam="2">  1       -2 0.14041216E+00 0.33384947E+03</pdfrwt>
<totfact> 0.66178219E+01</totfact>
</mgrwt>
</event>
<event>
 4    1  0.5387657E-008  0.5363260E+03  0.7818608E-02  0.1004709E+00
          2   -1    0    0  501    0  0.00000000000E+00  0.00000000000E+00  0.15558929013E+04  0.15558929013E+04  0.25500000000E-02 0. -1.
         -2   -1    0    0    0  501 -0.00000000000E+00 -0.00000000000E+00 -0.25509243642E+03  0.25509243643E+03  0.25500000000E-02 0.  1.
    8880022    1    1    2    0    0  0.48780740211E+03 -0.16216629644E+03  0.17532894056E+03  0.56425690927E+03  0.15294330000E+03 0.  0.
    8880022    1    1    2    0    0 -0.48780740211E+03  0.16216629644E+03  0.11254715243E+04  0.12467284284E+04  0.15294330000E+03 0.  0.
<mgrwt>
<rscale>  0 0.53632604E+03</rscale>
<asrwt>0</asrwt>
<pdfrwt beam="1">  1        2 0.23936814E+00 0.53632604E+03</pdfrwt>
<pdfrwt beam="2">  1       -2 0.39244989E-01 0.53632604E+03</pdfrwt>
<totfact> 0.75827975E+01</totfact>
</mgrwt>
</event>
<event>
 4    1  0.5387657E-008  0.1037104E+04  0.7818608E-02  0.9268760E-01
         -2   -1    0    0    0  501 -0.00000000000E+00  0.00000000000E+00  0.74452406161E+03  0.74452406162E+03  0.25500000000E-02 0.  1.
          2   -1    0    0  501    0  0.00000000000E+00 -0.00000000000E+00 -0.26638818200E+04  0.26638818200E+04  0.25500000000E-02 0. -1.
    8880022    1    1    2    0    0  0.58491412751E+03 -0.84265567156E+03  0.19325670560E+03  0.10549563615E+04  0.15294330000E+03 0.  0.
    8880022    1    1    2    0    0 -0.58491412751E+03  0.84265567156E+03 -0.21126144639E+04  0.23534495201E+04  0.15294330000E+03 0. -1.
<mgrwt>
<rscale>  0 0.10371040E+04</rscale>
<asrwt>0</asrwt>
<pdfrwt beam="1">  1        2 0.40982797E+00 0.10371040E+04</pdfrwt>
<pdfrwt beam="2">  1       -2 0.11454216E+00 0.10371040E+04</pdfrwt>
<totfact> 0.16699232E+00</totfact>
</mgrwt>
</event>
<event>
 4    1  0.5387657E-008  0.2425563E+03  0.7818608E-02  0.1118102E+00
          2   -1    0    0  501    0  0.00000000000E+00  0.00000000000E+00  0.20937523974E+04  0.20937523974E+04  0.25500000000E-02 0. -1.
         -2   -1    0    0    0  501 -0.00000000000E+00 -0.00000000000E+00 -0.28316702274E+03  0.28316702275E+03  0.25500000000E-02 0.  1.
    8880022    1    1    2    0    0 -0.92623724165E+01 -0.18803224205E+03  0.20332447370E+04  0.20476615270E+04  0.15294330000E+03 0.  0.
    8880022    1    1    2    0    0  0.92623724165E+01  0.18803224205E+03 -0.22265936230E+03  0.32925789319E+03  0.15294330000E+03 0.  0.
<mgrwt>
<rscale>  0 0.24255632E+03</rscale>
<asrwt>0</asrwt>
<pdfrwt beam="1">  1        2 0.32211574E+00 0.24255632E+03</pdfrwt>
<pdfrwt beam="2">  1       -2 0.43564159E-01 0.24255632E+03</pdfrwt>
<totfact> 0.34329857E+01</totfact>
</mgrwt>
</event>
<event>
 4    1  0.5387657E-008  0.2385894E+03  0.7818608E-02  0.1120736E+00
          2   -1    0    0  501    0  0.00000000000E+00  0.00000000000E+00  0.19224124515E+04  0.19224124515E+04  0.25500000000E-02 0. -1.
         -2   -1    0    0    0  501 -0.00000000000E+00 -0.00000000000E+00 -0.20960490486E+03  0.20960490487E+03  0.25500000000E-02 0.  1.
    8880022    1    1    2    0    0  0.13884914659E+03 -0.11939072942E+03  0.18442485599E+04  0.18596176046E+04  0.15294330000E+03 0. -1.
    8880022    1    1    2    0    0 -0.13884914659E+03  0.11939072942E+03 -0.13144101324E+03  0.27239975175E+03  0.15294330000E+03 0.  0.
<mgrwt>
<rscale>  0 0.23858936E+03</rscale>
<asrwt>0</asrwt>
<pdfrwt beam="1">  1        2 0.29575575E+00 0.23858936E+03</pdfrwt>
<pdfrwt beam="2">  1       -2 0.32246910E-01 0.23858936E+03</pdfrwt>
<totfact> 0.74691187E+01</totfact>
</mgrwt>
</event>
<event>
 4    1  0.5387657E-008  0.7218072E+03  0.7818608E-02  0.9680649E-01
         -2   -1    0    0    0  501 -0.00000000000E+00  0.00000000000E+00  0.18739646845E+04  0.18739646845E+04  0.25500000000E-02 0.  1.
          2   -1    0    0  501    0  0.00000000000E+00 -0.00000000000E+00 -0.31410175286E+03  0.31410175287E+03  0.25500000000E-02 0. -1.
    8880022    1    1    2    0    0  0.28032638909E+03  0.64732611372E+03  0.11507145892E+04  0.13583628752E+04  0.15294330000E+03 0.  0.
    8880022    1    1    2    0    0 -0.28032638909E+03 -0.64732611372E+03  0.40914834244E+03  0.82970356216E+03  0.15294330000E+03 0.  0.
<mgrwt>
<rscale>  0 0.72180720E+03</rscale>
<asrwt>0</asrwt>
<pdfrwt beam="1">  1        2 0.48323347E-01 0.72180720E+03</pdfrwt>
<pdfrwt beam="2">  1       -2 0.28830225E+00 0.72180720E+03</pdfrwt>
<totfact> 0.40676938E+00</totfact>
</mgrwt>
</event>
<event>
 4    1  0.5387657E-008  0.2711608E+03  0.7818608E-02  0.1100617E+00
         -2   -1    0    0    0  501 -0.00000000000E+00  0.00000000000E+00  0.19147263255E+03  0.19147263256E+03  0.25500000000E-02 0.  1.
          2   -1    0    0  501    0  0.00000000000E+00 -0.00000000000E+00 -0.19601536201E+04  0.19601536201E+04  0.25500000000E-02 0. -1.
    8880022    1    1    2    0    0  0.13815847882E+00 -0.22391179812E+03 -0.18490335042E+04  0.18688106018E+04  0.15294330000E+03 0.  0.
    8880022    1    1    2    0    0 -0.13815847882E+00  0.22391179812E+03  0.80352516718E+02  0.28281565088E+03  0.15294330000E+03 0.  0.
<mgrwt>
<rscale>  0 0.27116077E+03</rscale>
<asrwt>0</asrwt>
<pdfrwt beam="1">  1        2 0.30156208E+00 0.27116077E+03</pdfrwt>
<pdfrwt beam="2">  1       -2 0.29457329E-01 0.27116077E+03</pdfrwt>
<totfact> 0.83308562E+01</totfact>
</mgrwt>
</event>
<event>
 4    1  0.5387657E-008  0.2584463E+03  0.7818608E-02  0.1108080E+00
          2   -1    0    0  501    0  0.00000000000E+00  0.00000000000E+00  0.52185137135E+03  0.52185137136E+03  0.25500000000E-02 0. -1.
         -2   -1    0    0    0  501 -0.00000000000E+00 -0.00000000000E+00 -0.17830687240E+03  0.17830687242E+03  0.25500000000E-02 0.  1.
    8880022    1    1    2    0    0  0.96031310871E+02 -0.18488063463E+03  0.35773081274E+03  0.44132284002E+03  0.15294330000E+03 0.  0.
    8880022    1    1    2    0    0 -0.96031310871E+02  0.18488063463E+03 -0.14186313787E+02  0.25883540376E+03  0.15294330000E+03 0.  0.
<mgrwt>
<rscale>  0 0.25844635E+03</rscale>
<asrwt>0</asrwt>
<pdfrwt beam="1">  1        2 0.80284825E-01 0.25844635E+03</pdfrwt>
<pdfrwt beam="2">  1       -2 0.27431827E-01 0.25844635E+03</pdfrwt>
<totfact> 0.71623163E+02</totfact>
</mgrwt>
</event>
<event>
 4    1  0.5387657E-008  0.1242956E+04  0.7818608E-02  0.9076067E-01
          2   -1    0    0  501    0  0.00000000000E+00  0.00000000000E+00  0.21220175415E+04  0.21220175415E+04  0.25500000000E-02 0. -1.
         -2   -1    0    0    0  501 -0.00000000000E+00 -0.00000000000E+00 -0.16384351596E+04  0.16384351596E+04  0.25500000000E-02 0.  1.
    8880022    1    1    2    0    0 -0.92592135630E+02  0.12300301847E+04 -0.11597556026E+04  0.16999918440E+04  0.15294330000E+03 0.  0.
    8880022    1    1    2    0    0  0.92592135630E+02 -0.12300301847E+04  0.16433379846E+04  0.20604608571E+04  0.15294330000E+03 0.  0.
<mgrwt>
<rscale>  0 0.12429558E+04</rscale>
<asrwt>0</asrwt>
<pdfrwt beam="1">  1        2 0.32646424E+00 0.12429558E+04</pdfrwt>
<pdfrwt beam="2">  1       -2 0.25206695E+00 0.12429558E+04</pdfrwt>
<totfact> 0.34502913E-01</totfact>
</mgrwt>
</event>
<event>
 4    1  0.5387657E-008  0.1193089E+04  0.7818608E-02  0.9118927E-01
         -2   -1    0    0    0  501 -0.00000000000E+00  0.00000000000E+00  0.98513333812E+03  0.98513333813E+03  0.25500000000E-02 0.  1.
          2   -1    0    0  501    0  0.00000000000E+00 -0.00000000000E+00 -0.15450352761E+04  0.15450352762E+04  0.25500000000E-02 0. -1.
    8880022    1    1    2    0    0 -0.11253300124E+04 -0.36565291771E+03 -0.60194730993E+03  0.13363389952E+04  0.15294330000E+03 0.  0.
    8880022    1    1    2    0    0  0.11253300124E+04  0.36565291771E+03  0.42045371902E+02  0.11938296191E+04  0.15294330000E+03 0.  0.
<mgrwt>
<rscale>  0 0.11930890E+04</rscale>
<asrwt>0</asrwt>
<pdfrwt beam="1">  1        2 0.23769774E+00 0.11930890E+04</pdfrwt>
<pdfrwt beam="2">  1       -2 0.15155897E+00 0.11930890E+04</pdfrwt>
<totfact> 0.33942634E+00</totfact>
</mgrwt>
</event>
<event>
 4    1  0.5387657E-008  0.2032218E+03  0.7818608E-02  0.1147049E+00
          2   -1    0    0  501    0  0.00000000000E+00  0.00000000000E+00  0.76437953705E+03  0.76437953705E+03  0.25500000000E-02 0. -1.
         -2   -1    0    0    0  501 -0.00000000000E+00 -0.00000000000E+00 -0.63899313120E+02  0.63899313171E+02  0.25500000000E-02 0.  1.
    8880022    1    1    2    0    0  0.90328095689E+02  0.98733292487E+02  0.51300168909E+03  0.55178783418E+03  0.15294330000E+03 0.  0.
    8880022    1    1    2    0    0 -0.90328095689E+02 -0.98733292487E+02  0.18747853483E+03  0.27649101605E+03  0.15294330000E+03 0.  0.
<mgrwt>
<rscale>  0 0.20322175E+03</rscale>
<asrwt>0</asrwt>
<pdfrwt beam="1">  1        2 0.11759686E+00 0.20322175E+03</pdfrwt>
<pdfrwt beam="2">  1       -2 0.98306630E-02 0.20322175E+03</pdfrwt>
<totfact> 0.25451758E+03</totfact>
</mgrwt>
</event>
<event>
 4    1  0.6489471E-008  0.6731042E+03  0.7818608E-02  0.9764366E-01
         -2   -1    0    0    0  501 -0.00000000000E+00  0.00000000000E+00  0.86390556129E+03  0.86390556129E+03  0.25500000000E-02 0.  1.
          2   -1    0    0  501    0  0.00000000000E+00 -0.00000000000E+00 -0.23909770561E+04  0.23909770561E+04  0.25500000000E-02 0. -1.
    8880022    1    1    2    0    0  0.91681221676E+02  0.64905483885E+03  0.67438709297E+03  0.95282067275E+03  0.15294330000E+03 0.  1.
    8880022    1    1    2    0    0 -0.91681221676E+02 -0.64905483885E+03 -0.22014585878E+04  0.23020619446E+04  0.15294330000E+03 0.  0.
<mgrwt>
<rscale>  0 0.67310421E+03</rscale>
<asrwt>0</asrwt>
<pdfrwt beam="1">  1        2 0.36784262E+00 0.67310421E+03</pdfrwt>
<pdfrwt beam="2">  1       -2 0.13290855E+00 0.67310421E+03</pdfrwt>
<totfact> 0.17591669E+00</totfact>
</mgrwt>
</event>
<event>
 4    1  0.5387657E-008  0.4881773E+03  0.7818608E-02  0.1016912E+00
          2   -1    0    0  501    0  0.00000000000E+00  0.00000000000E+00  0.30140643943E+04  0.30140643943E+04  0.25500000000E-02 0. -1.
         -2   -1    0    0    0  501 -0.00000000000E+00 -0.00000000000E+00 -0.22423774052E+03  0.22423774053E+03  0.25500000000E-02 0.  1.
    8880022    1    1    2    0    0  0.31539298230E+03 -0.33978334401E+03  0.92134959340E+02  0.49679569030E+03  0.15294330000E+03 0.  0.
    8880022    1    1    2    0    0 -0.31539298230E+03  0.33978334401E+03  0.26976916945E+04  0.27415064446E+04  0.15294330000E+03 0.  0.
<mgrwt>
<rscale>  0 0.48817733E+03</rscale>
<asrwt>0</asrwt>
<pdfrwt beam="1">  1        2 0.46370220E+00 0.48817733E+03</pdfrwt>
<pdfrwt beam="2">  1       -2 0.34498115E-01 0.48817733E+03</pdfrwt>
<totfact> 0.15088016E+01</totfact>
</mgrwt>
</event>
<event>
 4    1  0.5387657E-008  0.6558449E+03  0.7818608E-02  0.9795873E-01
         -2   -1    0    0    0  501 -0.00000000000E+00  0.00000000000E+00  0.20850588349E+04  0.20850588349E+04  0.25500000000E-02 0.  1.
          2   -1    0    0  501    0  0.00000000000E+00 -0.00000000000E+00 -0.37310997229E+03  0.37310997230E+03  0.25500000000E-02 0. -1.
    8880022    1    1    2    0    0  0.60984328464E+03  0.18663330993E+03  0.16778077594E+04  0.18014359146E+04  0.15294330000E+03 0.  0.
    8880022    1    1    2    0    0 -0.60984328464E+03 -0.18663330993E+03  0.34141103236E+02  0.65673289254E+03  0.15294330000E+03 0. -1.
<mgrwt>
<rscale>  0 0.65584486E+03</rscale>
<asrwt>0</asrwt>
<pdfrwt beam="1">  1        2 0.57401535E-01 0.65584486E+03</pdfrwt>
<pdfrwt beam="2">  1       -2 0.32077828E+00 0.65584486E+03</pdfrwt>
<totfact> 0.21632328E+00</totfact>
</mgrwt>
</event>
<event>
 4    1  0.5387657E-008  0.2200665E+03  0.7818608E-02  0.1133833E+00
          2   -1    0    0  501    0  0.00000000000E+00  0.00000000000E+00  0.24466951120E+04  0.24466951120E+04  0.25500000000E-02 0. -1.
         -2   -1    0    0    0  501 -0.00000000000E+00 -0.00000000000E+00 -0.25902149566E+02  0.25902149692E+02  0.25500000000E-02 0.  1.
    8880022    1    1    2    0    0 -0.15574571700E+03 -0.27944300333E+02  0.61002605142E+03  0.64850678386E+03  0.15294330000E+03 0.  0.
    8880022    1    1    2    0    0  0.15574571700E+03  0.27944300333E+02  0.18107669110E+04  0.18240904778E+04  0.15294330000E+03 0. -1.
<mgrwt>
<rscale>  0 0.22006650E+03</rscale>
<asrwt>0</asrwt>
<pdfrwt beam="1">  1        2 0.37641454E+00 0.22006650E+03</pdfrwt>
<pdfrwt beam="2">  1       -2 0.39849471E-02 0.22006650E+03</pdfrwt>
<totfact> 0.11942206E+03</totfact>
</mgrwt>
</event>
<event>
 4    1  0.5387657E-008  0.5277718E+03  0.7818608E-02  0.1006774E+00
         -2   -1    0    0    0  501 -0.00000000000E+00  0.00000000000E+00  0.14544563639E+03  0.14544563641E+03  0.25500000000E-02 0.  1.
          2   -1    0    0  501    0  0.00000000000E+00 -0.00000000000E+00 -0.21421407751E+04  0.21421407751E+04  0.25500000000E-02 0. -1.
    8880022    1    1    2    0    0  0.50088806124E+03  0.65288368858E+02 -0.13707174506E+04  0.14688122424E+04  0.15294330000E+03 0.  0.
    8880022    1    1    2    0    0 -0.50088806124E+03 -0.65288368858E+02 -0.62597768814E+03  0.81877416915E+03  0.15294330000E+03 0.  0.
<mgrwt>
<rscale>  0 0.52777180E+03</rscale>
<asrwt>0</asrwt>
<pdfrwt beam="1">  1        2 0.32956010E+00 0.52777180E+03</pdfrwt>
<pdfrwt beam="2">  1       -2 0.22376253E-01 0.52777180E+03</pdfrwt>
<totfact> 0.10312909E+02</totfact>
</mgrwt>
</event>
<event>
 4    1  0.5387657E-008  0.2873002E+03  0.7818608E-02  0.1091767E+00
         -2   -1    0    0    0  501 -0.00000000000E+00  0.00000000000E+00  0.14036082834E+03  0.14036082836E+03  0.25500000000E-02 0.  1.
          2   -1    0    0  501    0  0.00000000000E+00 -0.00000000000E+00 -0.23687687415E+04  0.23687687415E+04  0.25500000000E-02 0. -1.
    8880022    1    1    2    0    0 -0.60833473991E+01  0.24313107860E+03 -0.26457899375E+02  0.28851586083E+03  0.15294330000E+03 0.  0.
    8880022    1    1    2    0    0  0.60833473991E+01 -0.24313107860E+03 -0.22019500137E+04  0.22206137090E+04  0.15294330000E+03 0.  0.
<mgrwt>
<rscale>  0 0.28730016E+03</rscale>
<asrwt>0</asrwt>
<pdfrwt beam="1">  1        2 0.36442593E+00 0.28730016E+03</pdfrwt>
<pdfrwt beam="2">  1       -2 0.21593975E-01 0.28730016E+03</pdfrwt>
<totfact> 0.87201343E+01</totfact>
</mgrwt>
</event>
<event>
 4    1  0.5387657E-008  0.4389848E+03  0.7818608E-02  0.1031059E+00
          2   -1    0    0  501    0  0.00000000000E+00  0.00000000000E+00  0.35403255356E+03  0.35403255357E+03  0.25500000000E-02 0. -1.
         -2   -1    0    0    0  501 -0.00000000000E+00 -0.00000000000E+00 -0.11155309464E+04  0.11155309464E+04  0.25500000000E-02 0.  1.
    8880022    1    1    2    0    0  0.24648039600E+03 -0.32948965130E+03 -0.90654254952E+03  0.10072373420E+04  0.15294330000E+03 0.  0.
    8880022    1    1    2    0    0 -0.24648039600E+03  0.32948965130E+03  0.14504415673E+03  0.46232615797E+03  0.15294330000E+03 0. -1.
<mgrwt>
<rscale>  0 0.43898482E+03</rscale>
<asrwt>0</asrwt>
<pdfrwt beam="1">  1        2 0.54466547E-01 0.43898482E+03</pdfrwt>
<pdfrwt beam="2">  1       -2 0.17162014E+00 0.43898482E+03</pdfrwt>
<totfact> 0.19861289E+01</totfact>
</mgrwt>
</event>
<event>
 4    1  0.5387657E-008  0.3708175E+03  0.7818608E-02  0.1054381E+00
         -2   -1    0    0    0  501 -0.00000000000E+00  0.00000000000E+00  0.89951778449E+03  0.89951778449E+03  0.25500000000E-02 0.  1.
          2   -1    0    0  501    0  0.00000000000E+00 -0.00000000000E+00 -0.30219411942E+03  0.30219411943E+03  0.25500000000E-02 0. -1.
    8880022    1    1    2    0    0  0.32476374120E+03 -0.92964969382E+02  0.72103688352E+03  0.81080195705E+03  0.15294330000E+03 0.  0.
    8880022    1    1    2    0    0 -0.32476374120E+03  0.92964969382E+02 -0.12371321846E+03  0.39090994688E+03  0.15294330000E+03 0.  0.
<mgrwt>
<rscale>  0 0.37081751E+03</rscale>
<asrwt>0</asrwt>
<pdfrwt beam="1">  1        2 0.46491403E-01 0.37081751E+03</pdfrwt>
<pdfrwt beam="2">  1       -2 0.13838735E+00 0.37081751E+03</pdfrwt>
<totfact> 0.42106599E+01</totfact>
</mgrwt>
</event>
<event>
 4    1  0.5387657E-008  0.9450494E+03  0.7818608E-02  0.9370956E-01
         -2   -1    0    0    0  501 -0.00000000000E+00  0.00000000000E+00  0.63704116742E+03  0.63704116743E+03  0.25500000000E-02 0.  1.
          2   -1    0    0  501    0  0.00000000000E+00 -0.00000000000E+00 -0.24761596890E+04  0.24761596890E+04  0.25500000000E-02 0. -1.
    8880022    1    1    2    0    0  0.79062954309E+02 -0.92923394539E+03 -0.19448015093E+04  0.21622606780E+04  0.15294330000E+03 0. -1.
    8880022    1    1    2    0    0 -0.79062954309E+02  0.92923394539E+03  0.10568298775E+03  0.95094017841E+03  0.15294330000E+03 0.  0.
<mgrwt>
<rscale>  0 0.94504938E+03</rscale>
<asrwt>0</asrwt>
<pdfrwt beam="1">  1        2 0.38094764E+00 0.94504938E+03</pdfrwt>
<pdfrwt beam="2">  1       -2 0.98006335E-01 0.94504938E+03</pdfrwt>
<totfact> 0.31636129E+00</totfact>
</mgrwt>
</event>
<event>
 4    1  0.5387657E-008  0.5693146E+03  0.7818608E-02  0.9971197E-01
         -2   -1    0    0    0  501 -0.00000000000E+00  0.00000000000E+00  0.35723623188E+03  0.35723623189E+03  0.25500000000E-02 0.  1.
          2   -1    0    0  501    0  0.00000000000E+00 -0.00000000000E+00 -0.12615205039E+04  0.12615205039E+04  0.25500000000E-02 0. -1.
    8880022    1    1    2    0    0  0.19143320804E+03  0.51388786704E+03 -0.23254397440E+02  0.56978928828E+03  0.15294330000E+03 0.  0.
    8880022    1    1    2    0    0 -0.19143320804E+03 -0.51388786704E+03 -0.88102987463E+03  0.10489674476E+04  0.15294330000E+03 0.  0.
<mgrwt>
<rscale>  0 0.56931456E+03</rscale>
<asrwt>0</asrwt>
<pdfrwt beam="1">  1        2 0.19408008E+00 0.56931456E+03</pdfrwt>
<pdfrwt beam="2">  1       -2 0.54959421E-01 0.56931456E+03</pdfrwt>
<totfact> 0.56295463E+01</totfact>
</mgrwt>
</event>
<event>
 4    1  0.8694424E-008  0.1446276E+04  0.7818608E-02  0.8920986E-01
         -2   -1    0    0    0  501 -0.00000000000E+00  0.00000000000E+00  0.14237346383E+04  0.14237346383E+04  0.25500000000E-02 0.  1.
          2   -1    0    0  501    0  0.00000000000E+00 -0.00000000000E+00 -0.29202132095E+04  0.29202132095E+04  0.25500000000E-02 0. -1.
    8880022    1    1    2    0    0  0.29680234179E+03  0.14072066171E+04  0.78280205643E+03  0.16445342216E+04  0.15294330000E+03 0.  0.
    8880022    1    1    2    0    0 -0.29680234179E+03 -0.14072066171E+04 -0.22792806276E+04  0.26994136262E+04  0.15294330000E+03 0.  0.
<mgrwt>
<rscale>  0 0.14462758E+04</rscale>
<asrwt>0</asrwt>
<pdfrwt beam="1">  1        2 0.44926357E+00 0.14462758E+04</pdfrwt>
<pdfrwt beam="2">  1       -2 0.21903610E+00 0.14462758E+04</pdfrwt>
<totfact> 0.18539871E-01</totfact>
</mgrwt>
</event>
<event>
 4    1  0.5387657E-008  0.4662021E+03  0.7818608E-02  0.1022998E+00
         -2   -1    0    0    0  501 -0.00000000000E+00  0.00000000000E+00  0.36545017777E+03  0.36545017778E+03  0.25500000000E-02 0.  1.
          2   -1    0    0  501    0  0.00000000000E+00 -0.00000000000E+00 -0.16062477571E+04  0.16062477571E+04  0.25500000000E-02 0. -1.
    8880022    1    1    2    0    0 -0.14195515594E+03  0.41689508816E+03  0.16193254928E+03  0.49352465426E+03  0.15294330000E+03 0.  0.
    8880022    1    1    2    0    0  0.14195515594E+03 -0.41689508816E+03 -0.14027301286E+04  0.14781732806E+04  0.15294330000E+03 0.  0.
<mgrwt>
<rscale>  0 0.46620214E+03</rscale>
<asrwt>0</asrwt>
<pdfrwt beam="1">  1        2 0.24711503E+00 0.46620214E+03</pdfrwt>
<pdfrwt beam="2">  1       -2 0.56223105E-01 0.46620214E+03</pdfrwt>
<totfact> 0.35092461E+01</totfact>
</mgrwt>
</event>
<event>
 4    1  0.5387657E-008  0.3006580E+03  0.7818608E-02  0.1084912E+00
         -2   -1    0    0    0  501 -0.00000000000E+00  0.00000000000E+00  0.67783232981E+02  0.67783233029E+02  0.25500000000E-02 0.  1.
          2   -1    0    0  501    0  0.00000000000E+00 -0.00000000000E+00 -0.15501652756E+04  0.15501652756E+04  0.25500000000E-02 0. -1.
    8880022    1    1    2    0    0 -0.16674322668E+03  0.19799064363E+03 -0.10435668217E+04  0.10860142554E+04  0.15294330000E+03 0. -1.
    8880022    1    1    2    0    0  0.16674322668E+03 -0.19799064363E+03 -0.43881522088E+03  0.53193425317E+03  0.15294330000E+03 0.  1.
<mgrwt>
<rscale>  0 0.30065803E+03</rscale>
<asrwt>0</asrwt>
<pdfrwt beam="1">  1        2 0.23848694E+00 0.30065803E+03</pdfrwt>
<pdfrwt beam="2">  1       -2 0.10428191E-01 0.30065803E+03</pdfrwt>
<totfact> 0.79520559E+02</totfact>
</mgrwt>
</event>
<event>
 4    1  0.5387657E-008  0.5826794E+03  0.7818608E-02  0.9942007E-01
         -2   -1    0    0    0  501 -0.00000000000E+00  0.00000000000E+00  0.39766874673E+03  0.39766874674E+03  0.25500000000E-02 0.  1.
          2   -1    0    0  501    0  0.00000000000E+00 -0.00000000000E+00 -0.11934573999E+04  0.11934573999E+04  0.25500000000E-02 0. -1.
    8880022    1    1    2    0    0  0.13445411538E+03  0.54593568582E+03 -0.82233264904E+03  0.10078424088E+04  0.15294330000E+03 0.  0.
    8880022    1    1    2    0    0 -0.13445411538E+03 -0.54593568582E+03  0.26543995832E+02  0.58328373792E+03  0.15294330000E+03 0.  0.
<mgrwt>
<rscale>  0 0.58267944E+03</rscale>
<asrwt>0</asrwt>
<pdfrwt beam="1">  1        2 0.18360883E+00 0.58267944E+03</pdfrwt>
<pdfrwt beam="2">  1       -2 0.61179808E-01 0.58267944E+03</pdfrwt>
<totfact> 0.49213401E+01</totfact>
</mgrwt>
</event>
<event>
 4    1  0.5387657E-008  0.1799109E+03  0.7818608E-02  0.1167889E+00
          2   -1    0    0  501    0  0.00000000000E+00  0.00000000000E+00  0.68507554997E+03  0.68507554998E+03  0.25500000000E-02 0. -1.
         -2   -1    0    0    0  501 -0.00000000000E+00 -0.00000000000E+00 -0.15170844969E+03  0.15170844971E+03  0.25500000000E-02 0.  1.
    8880022    1    1    2    0    0  0.53078047386E+01  0.94594510422E+02  0.61386455554E+03  0.63968557882E+03  0.15294330000E+03 0. -1.
    8880022    1    1    2    0    0 -0.53078047386E+01 -0.94594510422E+02 -0.80497455253E+02  0.19709842087E+03  0.15294330000E+03 0.  0.
<mgrwt>
<rscale>  0 0.17991094E+03</rscale>
<asrwt>0</asrwt>
<pdfrwt beam="1">  1        2 0.10539624E+00 0.17991094E+03</pdfrwt>
<pdfrwt beam="2">  1       -2 0.23339762E-01 0.17991094E+03</pdfrwt>
<totfact> 0.69581534E+02</totfact>
</mgrwt>
</event>
<event>
 4    1  0.5387657E-008  0.5272182E+03  0.7818608E-02  0.1006909E+00
         -2   -1    0    0    0  501 -0.00000000000E+00  0.00000000000E+00  0.60366759330E+03  0.60366759330E+03  0.25500000000E-02 0.  1.
          2   -1    0    0  501    0  0.00000000000E+00 -0.00000000000E+00 -0.61756032012E+03  0.61756032012E+03  0.25500000000E-02 0. -1.
    8880022    1    1    2    0    0  0.42388851862E+03 -0.27365287223E+03  0.30103805820E+03  0.60711031633E+03  0.15294330000E+03 0.  0.
    8880022    1    1    2    0    0 -0.42388851862E+03  0.27365287223E+03 -0.31493078502E+03  0.61411759709E+03  0.15294330000E+03 0.  0.
<mgrwt>
<rscale>  0 0.52721819E+03</rscale>
<asrwt>0</asrwt>
<pdfrwt beam="1">  1        2 0.95009280E-01 0.52721819E+03</pdfrwt>
<pdfrwt beam="2">  1       -2 0.92871937E-01 0.52721819E+03</pdfrwt>
<totfact> 0.48556253E+01</totfact>
</mgrwt>
</event>
<event>
 4    1  0.5387657E-008  0.7413083E+03  0.7818608E-02  0.9649086E-01
         -2   -1    0    0    0  501 -0.00000000000E+00  0.00000000000E+00  0.11011435511E+04  0.11011435511E+04  0.25500000000E-02 0.  1.
          2   -1    0    0  501    0  0.00000000000E+00 -0.00000000000E+00 -0.63105716560E+03  0.63105716561E+03  0.25500000000E-02 0. -1.
    8880022    1    1    2    0    0 -0.71496665154E+02 -0.72182724613E+03  0.63115175434E+03  0.97359670111E+03  0.15294330000E+03 0.  0.
    8880022    1    1    2    0    0  0.71496665154E+02  0.72182724613E+03 -0.16106536887E+03  0.75860401558E+03  0.15294330000E+03 0.  0.
<mgrwt>
<rscale>  0 0.74130830E+03</rscale>
<asrwt>0</asrwt>
<pdfrwt beam="1">  1        2 0.97085718E-01 0.74130830E+03</pdfrwt>
<pdfrwt beam="2">  1       -2 0.16940670E+00 0.74130830E+03</pdfrwt>
<totfact> 0.10210547E+01</totfact>
</mgrwt>
</event>
<event>
 4    1  0.5387657E-008  0.8617632E+03  0.7818608E-02  0.9474683E-01
          2   -1    0    0  501    0  0.00000000000E+00  0.00000000000E+00  0.11521997214E+04  0.11521997214E+04  0.25500000000E-02 0. -1.
         -2   -1    0    0    0  501 -0.00000000000E+00 -0.00000000000E+00 -0.79083498973E+03  0.79083498973E+03  0.25500000000E-02 0.  1.
    8880022    1    1    2    0    0  0.38449390914E+03 -0.75591574253E+03  0.59853793043E+03  0.10492299477E+04  0.15294330000E+03 0.  0.
    8880022    1    1    2    0    0 -0.38449390914E+03  0.75591574253E+03 -0.23717319873E+03  0.89380476346E+03  0.15294330000E+03 0.  0.
<mgrwt>
<rscale>  0 0.86176321E+03</rscale>
<asrwt>0</asrwt>
<pdfrwt beam="1">  1        2 0.17726150E+00 0.86176321E+03</pdfrwt>
<pdfrwt beam="2">  1       -2 0.12166692E+00 0.86176321E+03</pdfrwt>
<totfact> 0.10447943E+01</totfact>
</mgrwt>
</event>
<event>
 4    1  0.5387657E-008  0.5229391E+03  0.7818608E-02  0.1007959E+00
         -2   -1    0    0    0  501 -0.00000000000E+00  0.00000000000E+00  0.55858115084E+03  0.55858115085E+03  0.25500000000E-02 0.  1.
          2   -1    0    0  501    0  0.00000000000E+00 -0.00000000000E+00 -0.11102996167E+04  0.11102996167E+04  0.25500000000E-02 0. -1.
    8880022    1    1    2    0    0  0.49983659870E+03 -0.15395838524E+02 -0.89977504430E+03  0.10407018980E+04  0.15294330000E+03 0.  0.
    8880022    1    1    2    0    0 -0.49983659870E+03  0.15395838524E+02  0.34805657846E+03  0.62817886949E+03  0.15294330000E+03 0.  0.
<mgrwt>
<rscale>  0 0.52293911E+03</rscale>
<asrwt>0</asrwt>
<pdfrwt beam="1">  1        2 0.17081533E+00 0.52293911E+03</pdfrwt>
<pdfrwt beam="2">  1       -2 0.85935562E-01 0.52293911E+03</pdfrwt>
<totfact> 0.26408815E+01</totfact>
</mgrwt>
</event>
<event>
 4    1  0.5387657E-008  0.3810257E+03  0.7818608E-02  0.1050555E+00
         -2   -1    0    0    0  501 -0.00000000000E+00  0.00000000000E+00  0.13504906222E+03  0.13504906225E+03  0.25500000000E-02 0.  1.
          2   -1    0    0  501    0  0.00000000000E+00 -0.00000000000E+00 -0.26569071926E+04  0.26569071926E+04  0.25500000000E-02 0. -1.
    8880022    1    1    2    0    0 -0.87266882389E+02 -0.33789556527E+03 -0.23380836698E+04  0.23689271457E+04  0.15294330000E+03 0.  0.
    8880022    1    1    2    0    0  0.87266882389E+02  0.33789556527E+03 -0.18377446059E+03  0.42302910913E+03  0.15294330000E+03 0.  1.
<mgrwt>
<rscale>  0 0.38102569E+03</rscale>
<asrwt>0</asrwt>
<pdfrwt beam="1">  1        2 0.40875491E+00 0.38102569E+03</pdfrwt>
<pdfrwt beam="2">  1       -2 0.20776781E-01 0.38102569E+03</pdfrwt>
<totfact> 0.62861335E+01</totfact>
</mgrwt>
</event>
<event>
 4    1  0.5387657E-008  0.6345328E+03  0.7818608E-02  0.9836243E-01
         -2   -1    0    0    0  501 -0.00000000000E+00  0.00000000000E+00  0.27841777192E+03  0.27841777193E+03  0.25500000000E-02 0.  1.
          2   -1    0    0  501    0  0.00000000000E+00 -0.00000000000E+00 -0.19063944088E+04  0.19063944088E+04  0.25500000000E-02 0. -1.
    8880022    1    1    2    0    0 -0.11081444487E+03  0.60577255470E+03 -0.13507423913E+04  0.14923595043E+04  0.15294330000E+03 0.  0.
    8880022    1    1    2    0    0  0.11081444487E+03 -0.60577255470E+03 -0.27723424554E+03  0.69245267646E+03  0.15294330000E+03 0.  0.
<mgrwt>
<rscale>  0 0.63453281E+03</rscale>
<asrwt>0</asrwt>
<pdfrwt beam="1">  1        2 0.29329144E+00 0.63453281E+03</pdfrwt>
<pdfrwt beam="2">  1       -2 0.42833505E-01 0.63453281E+03</pdfrwt>
<totfact> 0.40680008E+01</totfact>
</mgrwt>
</event>
<event>
 4    1  0.5387657E-008  0.2090782E+03  0.7818608E-02  0.1142298E+00
          2   -1    0    0  501    0  0.00000000000E+00  0.00000000000E+00  0.25534028234E+03  0.25534028236E+03  0.25500000000E-02 0. -1.
         -2   -1    0    0    0  501 -0.00000000000E+00 -0.00000000000E+00 -0.29837460379E+03  0.29837460380E+03  0.25500000000E-02 0.  1.
    8880022    1    1    2    0    0 -0.96125488758E+02 -0.10527072493E+03 -0.20226756288E+03  0.29090523392E+03  0.15294330000E+03 0.  0.
    8880022    1    1    2    0    0  0.96125488758E+02  0.10527072493E+03  0.15923324143E+03  0.26280965224E+03  0.15294330000E+03 0.  0.
<mgrwt>
<rscale>  0 0.20907819E+03</rscale>
<asrwt>0</asrwt>
<pdfrwt beam="1">  1        2 0.39283120E-01 0.20907819E+03</pdfrwt>
<pdfrwt beam="2">  1       -2 0.45903785E-01 0.20907819E+03</pdfrwt>
<totfact> 0.59474915E+02</totfact>
</mgrwt>
</event>
<event>
 4    1  0.5387657E-008  0.6726969E+03  0.7818608E-02  0.9765098E-01
         -2   -1    0    0    0  501 -0.00000000000E+00  0.00000000000E+00  0.58552584880E+03  0.58552584881E+03  0.25500000000E-02 0.  1.
          2   -1    0    0  501    0  0.00000000000E+00 -0.00000000000E+00 -0.27446875413E+04  0.27446875413E+04  0.25500000000E-02 0. -1.
    8880022    1    1    2    0    0  0.58472347272E+02  0.65246487522E+03 -0.24909208786E+04  0.25801565661E+04  0.15294330000E+03 0. -1.
    8880022    1    1    2    0    0 -0.58472347272E+02 -0.65246487522E+03  0.33175918609E+03  0.75005682409E+03  0.15294330000E+03 0.  0.
<mgrwt>
<rscale>  0 0.67269687E+03</rscale>
<asrwt>0</asrwt>
<pdfrwt beam="1">  1        2 0.42225962E+00 0.67269687E+03</pdfrwt>
<pdfrwt beam="2">  1       -2 0.90080901E-01 0.67269687E+03</pdfrwt>
<totfact> 0.28323520E+00</totfact>
</mgrwt>
</event>
<event>
 4    1  0.5387657E-008  0.1230387E+04  0.7818608E-02  0.9086667E-01
          2   -1    0    0  501    0  0.00000000000E+00  0.00000000000E+00  0.11913340896E+04  0.11913340896E+04  0.25500000000E-02 0. -1.
         -2   -1    0    0    0  501 -0.00000000000E+00 -0.00000000000E+00 -0.19691102108E+04  0.19691102108E+04  0.25500000000E-02 0.  1.
    8880022    1    1    2    0    0 -0.63649509530E+03 -0.10417944398E+04  0.55220349354E+03  0.13486222645E+04  0.15294330000E+03 0.  0.
    8880022    1    1    2    0    0  0.63649509530E+03  0.10417944398E+04 -0.13299796147E+04  0.18118220359E+04  0.15294330000E+03 0.  0.
<mgrwt>
<rscale>  0 0.12303875E+04</rscale>
<asrwt>0</asrwt>
<pdfrwt beam="1">  1        2 0.18328217E+00 0.12303875E+04</pdfrwt>
<pdfrwt beam="2">  1       -2 0.30294003E+00 0.12303875E+04</pdfrwt>
<totfact> 0.56885643E-01</totfact>
</mgrwt>
</event>
<event>
 4    1  0.5387657E-008  0.3467217E+03  0.7818608E-02  0.1063969E+00
         -2   -1    0    0    0  501 -0.00000000000E+00  0.00000000000E+00  0.23309228928E+03  0.23309228929E+03  0.25500000000E-02 0.  1.
          2   -1    0    0  501    0  0.00000000000E+00 -0.00000000000E+00 -0.17456519784E+04  0.17456519784E+04  0.25500000000E-02 0. -1.
    8880022    1    1    2    0    0  0.30949826671E+03 -0.32173234219E+02 -0.15867368498E+04  0.16241766461E+04  0.15294330000E+03 0. -1.
    8880022    1    1    2    0    0 -0.30949826671E+03  0.32173234219E+02  0.74177160716E+02  0.35456762159E+03  0.15294330000E+03 0.  0.
<mgrwt>
<rscale>  0 0.34672171E+03</rscale>
<asrwt>0</asrwt>
<pdfrwt beam="1">  1        2 0.26856183E+00 0.34672171E+03</pdfrwt>
<pdfrwt beam="2">  1       -2 0.35860353E-01 0.34672171E+03</pdfrwt>
<totfact> 0.73624600E+01</totfact>
</mgrwt>
</event>
<event>
 4    1  0.5387657E-008  0.1704074E+03  0.7818608E-02  0.1177424E+00
         -2   -1    0    0    0  501 -0.00000000000E+00  0.00000000000E+00  0.13661550205E+03  0.13661550208E+03  0.25500000000E-02 0.  1.
          2   -1    0    0  501    0  0.00000000000E+00 -0.00000000000E+00 -0.97993254522E+03  0.97993254523E+03  0.25500000000E-02 0. -1.
    8880022    1    1    2    0    0  0.75066011497E+02  0.34805577013E+01  0.72371244468E+02  0.18513851680E+03  0.15294330000E+03 0.  0.
    8880022    1    1    2    0    0 -0.75066011497E+02 -0.34805577013E+01 -0.91568828764E+03  0.93140953050E+03  0.15294330000E+03 0. -1.
<mgrwt>
<rscale>  0 0.17040737E+03</rscale>
<asrwt>0</asrwt>
<pdfrwt beam="1">  1        2 0.15075885E+00 0.17040737E+03</pdfrwt>
<pdfrwt beam="2">  1       -2 0.21017770E-01 0.17040737E+03</pdfrwt>
<totfact> 0.52875842E+02</totfact>
</mgrwt>
</event>
<event>
 4    1  0.5387657E-008  0.5095043E+03  0.7818608E-02  0.1011327E+00
          2   -1    0    0  501    0  0.00000000000E+00  0.00000000000E+00  0.13591668055E+04  0.13591668055E+04  0.25500000000E-02 0. -1.
         -2   -1    0    0    0  501 -0.00000000000E+00 -0.00000000000E+00 -0.29145348925E+03  0.29145348926E+03  0.25500000000E-02 0.  1.
    8880022    1    1    2    0    0 -0.64883363956E+02 -0.48165670125E+03  0.10183913690E+04  0.11387342369E+04  0.15294330000E+03 0.  0.
    8880022    1    1    2    0    0  0.64883363956E+02  0.48165670125E+03  0.49321947260E+02  0.51188605790E+03  0.15294330000E+03 0.  0.
<mgrwt>
<rscale>  0 0.50950435E+03</rscale>
<asrwt>0</asrwt>
<pdfrwt beam="1">  1        2 0.20910259E+00 0.50950435E+03</pdfrwt>
<pdfrwt beam="2">  1       -2 0.44838998E-01 0.50950435E+03</pdfrwt>
<totfact> 0.75350343E+01</totfact>
</mgrwt>
</event>
<event>
 4    1  0.5387657E-008  0.4913879E+03  0.7818608E-02  0.1016052E+00
          2   -1    0    0  501    0  0.00000000000E+00  0.00000000000E+00  0.10918299818E+04  0.10918299818E+04  0.25500000000E-02 0. -1.
         -2   -1    0    0    0  501 -0.00000000000E+00 -0.00000000000E+00 -0.98508488188E+03  0.98508488189E+03  0.25500000000E-02 0.  1.
    8880022    1    1    2    0    0  0.40342126780E+03 -0.23520554246E+03  0.96786273329E+03  0.10854585621E+04  0.15294330000E+03 0.  0.
    8880022    1    1    2    0    0 -0.40342126780E+03  0.23520554246E+03 -0.86111763336E+03  0.99145630161E+03  0.15294330000E+03 0.  0.
<mgrwt>
<rscale>  0 0.49138785E+03</rscale>
<asrwt>0</asrwt>
<pdfrwt beam="1">  1        2 0.16797384E+00 0.49138785E+03</pdfrwt>
<pdfrwt beam="2">  1       -2 0.15155152E+00 0.49138785E+03</pdfrwt>
<totfact> 0.68359521E+00</totfact>
</mgrwt>
</event>
<event>
 4    1  0.5387657E-008  0.4870246E+03  0.7818608E-02  0.1017222E+00
         -2   -1    0    0    0  501 -0.00000000000E+00  0.00000000000E+00  0.10583237862E+04  0.10583237863E+04  0.25500000000E-02 0.  1.
          2   -1    0    0  501    0  0.00000000000E+00 -0.00000000000E+00 -0.10808026470E+04  0.10808026470E+04  0.25500000000E-02 0. -1.
    8880022    1    1    2    0    0  0.12965808616E+02 -0.46220476193E+03 -0.96347168762E+03  0.10795696828E+04  0.15294330000E+03 0.  0.
    8880022    1    1    2    0    0 -0.12965808616E+02  0.46220476193E+03  0.94099282689E+03  0.10595567504E+04  0.15294330000E+03 0.  0.
<mgrwt>
<rscale>  0 0.48702465E+03</rscale>
<asrwt>0</asrwt>
<pdfrwt beam="1">  1        2 0.16627733E+00 0.48702465E+03</pdfrwt>
<pdfrwt beam="2">  1       -2 0.16281904E+00 0.48702465E+03</pdfrwt>
<totfact> 0.57381385E+00</totfact>
</mgrwt>
</event>
<event>
 4    1  0.5387657E-008  0.9072997E+03  0.7818608E-02  0.9416502E-01
          2   -1    0    0  501    0  0.00000000000E+00  0.00000000000E+00  0.12508913883E+04  0.12508913883E+04  0.25500000000E-02 0. -1.
         -2   -1    0    0    0  501 -0.00000000000E+00 -0.00000000000E+00 -0.13200899808E+04  0.13200899808E+04  0.25500000000E-02 0.  1.
    8880022    1    1    2    0    0  0.88227683757E+03 -0.14624888196E+03  0.87572851025E+03  0.12609889890E+04  0.15294330000E+03 0.  0.
    8880022    1    1    2    0    0 -0.88227683757E+03  0.14624888196E+03 -0.94492710270E+03  0.13099923801E+04  0.15294330000E+03 0.  0.
<mgrwt>
<rscale>  0 0.90729973E+03</rscale>
<asrwt>0</asrwt>
<pdfrwt beam="1">  1        2 0.19244483E+00 0.90729973E+03</pdfrwt>
<pdfrwt beam="2">  1       -2 0.20309077E+00 0.90729973E+03</pdfrwt>
<totfact> 0.22526922E+00</totfact>
</mgrwt>
</event>
<event>
 4    1  0.5387657E-008  0.1072284E+04  0.7818608E-02  0.9232635E-01
         -2   -1    0    0    0  501 -0.00000000000E+00  0.00000000000E+00  0.59846587422E+03  0.59846587422E+03  0.25500000000E-02 0.  1.
          2   -1    0    0  501    0  0.00000000000E+00 -0.00000000000E+00 -0.37580353822E+04  0.37580353822E+04  0.25500000000E-02 0. -1.
    8880022    1    1    2    0    0  0.57084129090E+03  0.89473007362E+03 -0.31026393730E+04  0.32827068733E+04  0.15294330000E+03 0.  0.
    8880022    1    1    2    0    0 -0.57084129090E+03 -0.89473007362E+03 -0.56930135021E+02  0.10737943832E+04  0.15294330000E+03 0.  0.
<mgrwt>
<rscale>  0 0.10722842E+04</rscale>
<asrwt>0</asrwt>
<pdfrwt beam="1">  1        2 0.57815927E+00 0.10722842E+04</pdfrwt>
<pdfrwt beam="2">  1       -2 0.92071675E-01 0.10722842E+04</pdfrwt>
<totfact> 0.54517581E-01</totfact>
</mgrwt>
</event>
<event>
 4    1  0.5387657E-008  0.5252950E+03  0.7818608E-02  0.1007380E+00
         -2   -1    0    0    0  501 -0.00000000000E+00  0.00000000000E+00  0.38567409683E+03  0.38567409684E+03  0.25500000000E-02 0.  1.
          2   -1    0    0  501    0  0.00000000000E+00 -0.00000000000E+00 -0.98047015086E+03  0.98047015087E+03  0.25500000000E-02 0. -1.
    8880022    1    1    2    0    0 -0.41235985489E+03  0.28723254073E+03  0.57725692490E+02  0.52845727450E+03  0.15294330000E+03 0.  0.
    8880022    1    1    2    0    0  0.41235985489E+03 -0.28723254073E+03 -0.65252174653E+03  0.83768697321E+03  0.15294330000E+03 0.  0.
<mgrwt>
<rscale>  0 0.52529500E+03</rscale>
<asrwt>0</asrwt>
<pdfrwt beam="1">  1        2 0.15084156E+00 0.52529500E+03</pdfrwt>
<pdfrwt beam="2">  1       -2 0.59334477E-01 0.52529500E+03</pdfrwt>
<totfact> 0.71263199E+01</totfact>
</mgrwt>
</event>
<event>
 4    1  0.5387657E-008  0.5238757E+03  0.7818608E-02  0.1007728E+00
          2   -1    0    0  501    0  0.00000000000E+00  0.00000000000E+00  0.10319042725E+04  0.10319042726E+04  0.25500000000E-02 0. -1.
         -2   -1    0    0    0  501 -0.00000000000E+00 -0.00000000000E+00 -0.77235174666E+03  0.77235174666E+03  0.25500000000E-02 0.  1.
    8880022    1    1    2    0    0  0.47597437527E+03  0.15653282908E+03 -0.60069593607E+03  0.79704541472E+03  0.15294330000E+03 0.  0.
    8880022    1    1    2    0    0 -0.47597437527E+03 -0.15653282908E+03  0.86024846196E+03  0.10072106045E+04  0.15294330000E+03 0.  0.
<mgrwt>
<rscale>  0 0.52387573E+03</rscale>
<asrwt>0</asrwt>
<pdfrwt beam="1">  1        2 0.15875450E+00 0.52387573E+03</pdfrwt>
<pdfrwt beam="2">  1       -2 0.11882335E+00 0.52387573E+03</pdfrwt>
<totfact> 0.13721462E+01</totfact>
</mgrwt>
</event>
<event>
 4    1  0.5387657E-008  0.6738526E+03  0.7818608E-02  0.9763023E-01
          2   -1    0    0  501    0  0.00000000000E+00  0.00000000000E+00  0.12914669490E+04  0.12914669490E+04  0.25500000000E-02 0. -1.
         -2   -1    0    0    0  501 -0.00000000000E+00 -0.00000000000E+00 -0.49975914707E+03  0.49975914708E+03  0.25500000000E-02 0.  1.
    8880022    1    1    2    0    0 -0.40649960252E+03 -0.51521232119E+03  0.88350259624E+03  0.11111499239E+04  0.15294330000E+03 0.  0.
    8880022    1    1    2    0    0  0.40649960252E+03  0.51521232119E+03 -0.91794794297E+02  0.68007617222E+03  0.15294330000E+03 0.  0.
<mgrwt>
<rscale>  0 0.67385259E+03</rscale>
<asrwt>0</asrwt>
<pdfrwt beam="1">  1        2 0.19868722E+00 0.67385259E+03</pdfrwt>
<pdfrwt beam="2">  1       -2 0.76886024E-01 0.67385259E+03</pdfrwt>
<totfact> 0.26006286E+01</totfact>
</mgrwt>
</event>
<event>
 4    1  0.5387657E-008  0.6672881E+03  0.7818608E-02  0.9774869E-01
          2   -1    0    0  501    0  0.00000000000E+00  0.00000000000E+00  0.26856090263E+04  0.26856090263E+04  0.25500000000E-02 0. -1.
         -2   -1    0    0    0  501 -0.00000000000E+00 -0.00000000000E+00 -0.24838385320E+03  0.24838385322E+03  0.25500000000E-02 0.  1.
    8880022    1    1    2    0    0 -0.64392429345E+03  0.85107424106E+02  0.37271946468E+03  0.76432533760E+03  0.15294330000E+03 0.  0.
    8880022    1    1    2    0    0  0.64392429345E+03 -0.85107424106E+02  0.20645057084E+04  0.21696675419E+04  0.15294330000E+03 0.  0.
<mgrwt>
<rscale>  0 0.66728811E+03</rscale>
<asrwt>0</asrwt>
<pdfrwt beam="1">  1        2 0.41317062E+00 0.66728811E+03</pdfrwt>
<pdfrwt beam="2">  1       -2 0.38212901E-01 0.66728811E+03</pdfrwt>
<totfact> 0.18665417E+01</totfact>
</mgrwt>
</event>
<event>
 4    1  0.5387657E-008  0.8266945E+03  0.7818608E-02  0.9522162E-01
          2   -1    0    0  501    0  0.00000000000E+00  0.00000000000E+00  0.18123391288E+04  0.18123391288E+04  0.25500000000E-02 0. -1.
         -2   -1    0    0    0  501 -0.00000000000E+00 -0.00000000000E+00 -0.11208977269E+04  0.11208977270E+04  0.25500000000E-02 0.  1.
    8880022    1    1    2    0    0  0.75553356354E+03 -0.29866572463E+03 -0.84899083465E+03  0.11849933633E+04  0.15294330000E+03 0.  0.
    8880022    1    1    2    0    0 -0.75553356354E+03  0.29866572463E+03  0.15404322365E+04  0.17482434925E+04  0.15294330000E+03 0.  0.
<mgrwt>
<rscale>  0 0.82669452E+03</rscale>
<asrwt>0</asrwt>
<pdfrwt beam="1">  1        2 0.27882140E+00 0.82669452E+03</pdfrwt>
<pdfrwt beam="2">  1       -2 0.17244581E+00 0.82669452E+03</pdfrwt>
<totfact> 0.17770522E+00</totfact>
</mgrwt>
</event>
<event>
 4    1  0.5387657E-008  0.1365300E+04  0.7818608E-02  0.8979326E-01
         -2   -1    0    0    0  501 -0.00000000000E+00  0.00000000000E+00  0.10220832215E+04  0.10220832215E+04  0.25500000000E-02 0.  1.
          2   -1    0    0  501    0  0.00000000000E+00 -0.00000000000E+00 -0.22337417261E+04  0.22337417261E+04  0.25500000000E-02 0. -1.
    8880022    1    1    2    0    0 -0.37868571246E+03  0.13027852434E+04 -0.13032453101E+04  0.18874565560E+04  0.15294330000E+03 0.  0.
    8880022    1    1    2    0    0  0.37868571246E+03 -0.13027852434E+04  0.91586805441E+02  0.13683683916E+04  0.15294330000E+03 0.  0.
<mgrwt>
<rscale>  0 0.13652999E+04</rscale>
<asrwt>0</asrwt>
<pdfrwt beam="1">  1        2 0.34365257E+00 0.13652999E+04</pdfrwt>
<pdfrwt beam="2">  1       -2 0.15724357E+00 0.13652999E+04</pdfrwt>
<totfact> 0.12482480E+00</totfact>
</mgrwt>
</event>
<event>
 4    1  0.5387657E-008  0.2361054E+03  0.7818608E-02  0.1122415E+00
         -2   -1    0    0    0  501 -0.00000000000E+00  0.00000000000E+00  0.43269103547E+02  0.43269103622E+02  0.25500000000E-02 0.  1.
          2   -1    0    0  501    0  0.00000000000E+00 -0.00000000000E+00 -0.12883585843E+04  0.12883585843E+04  0.25500000000E-02 0. -1.
    8880022    1    1    2    0    0  0.14998834540E+03  0.99285466374E+02 -0.62423775198E+03  0.66739683218E+03  0.15294330000E+03 0.  0.
    8880022    1    1    2    0    0 -0.14998834540E+03 -0.99285466374E+02 -0.62085172874E+03  0.66423085572E+03  0.15294330000E+03 0.  1.
<mgrwt>
<rscale>  0 0.23610540E+03</rscale>
<asrwt>0</asrwt>
<pdfrwt beam="1">  1        2 0.19820898E+00 0.23610540E+03</pdfrwt>
<pdfrwt beam="2">  1       -2 0.66567861E-02 0.23610540E+03</pdfrwt>
<totfact> 0.22435044E+03</totfact>
</mgrwt>
</event>
<event>
 4    1  0.5387657E-008  0.5264168E+03  0.7818608E-02  0.1007105E+00
          2   -1    0    0  501    0  0.00000000000E+00  0.00000000000E+00  0.11464585576E+04  0.11464585576E+04  0.25500000000E-02 0. -1.
         -2   -1    0    0    0  501 -0.00000000000E+00 -0.00000000000E+00 -0.61038364143E+03  0.61038364143E+03  0.25500000000E-02 0.  1.
    8880022    1    1    2    0    0  0.17483505948E+03 -0.47239362488E+03 -0.41464730153E+03  0.67010974663E+03  0.15294330000E+03 0.  0.
    8880022    1    1    2    0    0 -0.17483505948E+03  0.47239362488E+03  0.95072221770E+03  0.10867324524E+04  0.15294330000E+03 0.  0.
<mgrwt>
<rscale>  0 0.52641684E+03</rscale>
<asrwt>0</asrwt>
<pdfrwt beam="1">  1        2 0.17637824E+00 0.52641684E+03</pdfrwt>
<pdfrwt beam="2">  1       -2 0.93905177E-01 0.52641684E+03</pdfrwt>
<totfact> 0.20489005E+01</totfact>
</mgrwt>
</event>
<event>
 4    1  0.5387657E-008  0.2602477E+03  0.7818608E-02  0.1106995E+00
          2   -1    0    0  501    0  0.00000000000E+00  0.00000000000E+00  0.18697161827E+04  0.18697161827E+04  0.25500000000E-02 0. -1.
         -2   -1    0    0    0  501 -0.00000000000E+00 -0.00000000000E+00 -0.52611899329E+03  0.52611899330E+03  0.25500000000E-02 0.  1.
    8880022    1    1    2    0    0  0.90773419728E+02 -0.18999310190E+03  0.18277415250E+04  0.18461765700E+04  0.15294330000E+03 0.  0.
    8880022    1    1    2    0    0 -0.90773419728E+02  0.18999310190E+03 -0.48414433555E+03  0.54965860601E+03  0.15294330000E+03 0.  1.
<mgrwt>
<rscale>  0 0.26024766E+03</rscale>
<asrwt>0</asrwt>
<pdfrwt beam="1">  1        2 0.28764864E+00 0.26024766E+03</pdfrwt>
<pdfrwt beam="2">  1       -2 0.80941385E-01 0.26024766E+03</pdfrwt>
<totfact> 0.12349330E+01</totfact>
</mgrwt>
</event>
<event>
 4    1  0.5387657E-008  0.2469722E+03  0.7818608E-02  0.1115233E+00
          2   -1    0    0  501    0  0.00000000000E+00  0.00000000000E+00  0.11477372433E+04  0.11477372433E+04  0.25500000000E-02 0. -1.
         -2   -1    0    0    0  501 -0.00000000000E+00 -0.00000000000E+00 -0.11359217445E+03  0.11359217448E+03  0.25500000000E-02 0.  1.
    8880022    1    1    2    0    0 -0.17152323278E+03 -0.90462022754E+02  0.97713438754E+03  0.10078625210E+04  0.15294330000E+03 0.  0.
    8880022    1    1    2    0    0  0.17152323278E+03  0.90462022754E+02  0.57010681270E+02  0.25346689673E+03  0.15294330000E+03 0.  0.
<mgrwt>
<rscale>  0 0.24697216E+03</rscale>
<asrwt>0</asrwt>
<pdfrwt beam="1">  1        2 0.17657496E+00 0.24697216E+03</pdfrwt>
<pdfrwt beam="2">  1       -2 0.17475719E-01 0.24697216E+03</pdfrwt>
<totfact> 0.57094614E+02</totfact>
</mgrwt>
</event>
<event>
 4    1  0.5387657E-008  0.7586617E+03  0.7818608E-02  0.9621859E-01
          2   -1    0    0  501    0  0.00000000000E+00  0.00000000000E+00  0.58318204732E+03  0.58318204733E+03  0.25500000000E-02 0. -1.
         -2   -1    0    0    0  501 -0.00000000000E+00 -0.00000000000E+00 -0.17707600654E+04  0.17707600654E+04  0.25500000000E-02 0.  1.
    8880022    1    1    2    0    0 -0.21029482382E+03  0.71270748325E+03 -0.13768457657E+04  0.15720279213E+04  0.15294330000E+03 0.  0.
    8880022    1    1    2    0    0  0.21029482382E+03 -0.71270748325E+03  0.18926774760E+03  0.78191419152E+03  0.15294330000E+03 0.  0.
<mgrwt>
<rscale>  0 0.75866167E+03</rscale>
<asrwt>0</asrwt>
<pdfrwt beam="1">  1        2 0.89720316E-01 0.75866167E+03</pdfrwt>
<pdfrwt beam="2">  1       -2 0.27242462E+00 0.75866167E+03</pdfrwt>
<totfact> 0.24856906E+00</totfact>
</mgrwt>
</event>
<event>
 4    1  0.5799414E-008  0.9544083E+03  0.7818608E-02  0.9360013E-01
         -2   -1    0    0    0  501 -0.00000000000E+00  0.00000000000E+00  0.17404194134E+04  0.17404194134E+04  0.25500000000E-02 0.  1.
          2   -1    0    0  501    0  0.00000000000E+00 -0.00000000000E+00 -0.35149855018E+04  0.35149855018E+04  0.25500000000E-02 0. -1.
    8880022    1    1    2    0    0 -0.29465467545E+03  0.89480848695E+03 -0.33114738921E+04  0.34462667623E+04  0.15294330000E+03 0.  0.
    8880022    1    1    2    0    0  0.29465467545E+03 -0.89480848695E+03  0.15369078037E+04  0.18091381528E+04  0.15294330000E+03 0.  0.
<mgrwt>
<rscale>  0 0.95440833E+03</rscale>
<asrwt>0</asrwt>
<pdfrwt beam="1">  1        2 0.54076700E+00 0.95440833E+03</pdfrwt>
<pdfrwt beam="2">  1       -2 0.26775683E+00 0.95440833E+03</pdfrwt>
<totfact> 0.41709737E-02</totfact>
</mgrwt>
</event>
<event>
 4    1  0.5387657E-008  0.4196150E+03  0.7818608E-02  0.1037192E+00
         -2   -1    0    0    0  501 -0.00000000000E+00  0.00000000000E+00  0.56828824328E+03  0.56828824329E+03  0.25500000000E-02 0.  1.
          2   -1    0    0  501    0  0.00000000000E+00 -0.00000000000E+00 -0.61231118239E+03  0.61231118239E+03  0.25500000000E-02 0. -1.
    8880022    1    1    2    0    0 -0.34139614725E+03 -0.19008878574E+03 -0.43689923359E+03  0.60577031055E+03  0.15294330000E+03 0.  0.
    8880022    1    1    2    0    0  0.34139614725E+03  0.19008878574E+03  0.39287629448E+03  0.57482911513E+03  0.15294330000E+03 0.  0.
<mgrwt>
<rscale>  0 0.41961498E+03</rscale>
<asrwt>0</asrwt>
<pdfrwt beam="1">  1        2 0.94201720E-01 0.41961498E+03</pdfrwt>
<pdfrwt beam="2">  1       -2 0.87428961E-01 0.41961498E+03</pdfrwt>
<totfact> 0.57016392E+01</totfact>
</mgrwt>
</event>
<event>
 4    1  0.5387657E-008  0.9288541E+03  0.7818608E-02  0.9390214E-01
          2   -1    0    0  501    0  0.00000000000E+00  0.00000000000E+00  0.56445462860E+03  0.56445462861E+03  0.25500000000E-02 0. -1.
         -2   -1    0    0    0  501 -0.00000000000E+00 -0.00000000000E+00 -0.18329143371E+04  0.18329143372E+04  0.25500000000E-02 0.  1.
    8880022    1    1    2    0    0  0.46082941636E+02 -0.91501616177E+03 -0.11227304847E+04  0.14571525686E+04  0.15294330000E+03 0.  0.
    8880022    1    1    2    0    0 -0.46082941636E+02  0.91501616177E+03 -0.14572922382E+03  0.94021639717E+03  0.15294330000E+03 0.  0.
<mgrwt>
<rscale>  0 0.92885406E+03</rscale>
<asrwt>0</asrwt>
<pdfrwt beam="1">  1        2 0.86839175E-01 0.92885406E+03</pdfrwt>
<pdfrwt beam="2">  1       -2 0.28198682E+00 0.92885406E+03</pdfrwt>
<totfact> 0.22126794E+00</totfact>
</mgrwt>
</event>
<event>
 4    1  0.5387657E-008  0.3024819E+03  0.7818608E-02  0.1084006E+00
          2   -1    0    0  501    0  0.00000000000E+00  0.00000000000E+00  0.15983773229E+04  0.15983773229E+04  0.25500000000E-02 0. -1.
         -2   -1    0    0    0  501 -0.00000000000E+00 -0.00000000000E+00 -0.86425974178E+02  0.86425974216E+02  0.25500000000E-02 0.  1.
    8880022    1    1    2    0    0  0.55292466690E+02 -0.25504189375E+03  0.12454893180E+04  0.12816937695E+04  0.15294330000E+03 0.  0.
    8880022    1    1    2    0    0 -0.55292466690E+02  0.25504189375E+03  0.26646203071E+03  0.40310952763E+03  0.15294330000E+03 0.  0.
<mgrwt>
<rscale>  0 0.30248186E+03</rscale>
<asrwt>0</asrwt>
<pdfrwt beam="1">  1        2 0.24590418E+00 0.30248186E+03</pdfrwt>
<pdfrwt beam="2">  1       -2 0.13296305E-01 0.30248186E+03</pdfrwt>
<totfact> 0.50508481E+02</totfact>
</mgrwt>
</event>
<event>
 4    1  0.5387657E-008  0.4196226E+03  0.7818608E-02  0.1037189E+00
         -2   -1    0    0    0  501 -0.00000000000E+00  0.00000000000E+00  0.38049211549E+03  0.38049211550E+03  0.25500000000E-02 0.  1.
          2   -1    0    0  501    0  0.00000000000E+00 -0.00000000000E+00 -0.63235196266E+03  0.63235196266E+03  0.25500000000E-02 0. -1.
    8880022    1    1    2    0    0  0.38959007976E+03  0.30183362812E+02 -0.38817879445E+03  0.57163440687E+03  0.15294330000E+03 0.  0.
    8880022    1    1    2    0    0 -0.38959007976E+03 -0.30183362812E+02  0.13631894729E+03  0.44120967129E+03  0.15294330000E+03 0.  0.
<mgrwt>
<rscale>  0 0.41962259E+03</rscale>
<asrwt>0</asrwt>
<pdfrwt beam="1">  1        2 0.97284917E-01 0.41962259E+03</pdfrwt>
<pdfrwt beam="2">  1       -2 0.58537249E-01 0.41962259E+03</pdfrwt>
<totfact> 0.13130857E+02</totfact>
</mgrwt>
</event>
<event>
 4    1  0.5387657E-008  0.6772243E+03  0.7818608E-02  0.9756994E-01
         -2   -1    0    0    0  501 -0.00000000000E+00  0.00000000000E+00  0.72426120532E+03  0.72426120532E+03  0.25500000000E-02 0.  1.
          2   -1    0    0  501    0  0.00000000000E+00 -0.00000000000E+00 -0.20071493845E+04  0.20071493845E+04  0.25500000000E-02 0. -1.
    8880022    1    1    2    0    0  0.57845217449E+03  0.31722884574E+03  0.48847111445E+03  0.83500703075E+03  0.15294330000E+03 0.  1.
    8880022    1    1    2    0    0 -0.57845217449E+03 -0.31722884574E+03 -0.17713592936E+04  0.18964035591E+04  0.15294330000E+03 0.  0.
<mgrwt>
<rscale>  0 0.67722427E+03</rscale>
<asrwt>0</asrwt>
<pdfrwt beam="1">  1        2 0.30879221E+00 0.67722427E+03</pdfrwt>
<pdfrwt beam="2">  1       -2 0.11142480E+00 0.67722427E+03</pdfrwt>
<totfact> 0.44263227E+00</totfact>
</mgrwt>
</event>
<event>
 4    1  0.5387657E-008  0.4403057E+03  0.7818608E-02  0.1030653E+00
          2   -1    0    0  501    0  0.00000000000E+00  0.00000000000E+00  0.31420787258E+03  0.31420787259E+03  0.25500000000E-02 0. -1.
         -2   -1    0    0    0  501 -0.00000000000E+00 -0.00000000000E+00 -0.73506210804E+03  0.73506210804E+03  0.25500000000E-02 0.  1.
    8880022    1    1    2    0    0 -0.14889357070E+03  0.38510798069E+03 -0.17817020670E+00  0.44030573122E+03  0.15294330000E+03 0.  0.
    8880022    1    1    2    0    0  0.14889357070E+03 -0.38510798069E+03 -0.42067606525E+03  0.60896424942E+03  0.15294330000E+03 0.  0.
<mgrwt>
<rscale>  0 0.44030570E+03</rscale>
<asrwt>0</asrwt>
<pdfrwt beam="1">  1        2 0.48339673E-01 0.44030570E+03</pdfrwt>
<pdfrwt beam="2">  1       -2 0.11308648E+00 0.44030570E+03</pdfrwt>
<totfact> 0.66073788E+01</totfact>
</mgrwt>
</event>
<event>
 4    1  0.5387657E-008  0.4932130E+03  0.7818608E-02  0.1015566E+00
         -2   -1    0    0    0  501 -0.00000000000E+00  0.00000000000E+00  0.86307803304E+03  0.86307803305E+03  0.25500000000E-02 0.  1.
          2   -1    0    0  501    0  0.00000000000E+00 -0.00000000000E+00 -0.38949385059E+03  0.38949385060E+03  0.25500000000E-02 0. -1.
    8880022    1    1    2    0    0  0.33832485684E+03  0.32465941071E+03 -0.92450252699E+02  0.50180289354E+03  0.15294330000E+03 0.  0.
    8880022    1    1    2    0    0 -0.33832485684E+03 -0.32465941071E+03  0.56603443515E+03  0.75076899011E+03  0.15294330000E+03 0.  0.
<mgrwt>
<rscale>  0 0.49321303E+03</rscale>
<asrwt>0</asrwt>
<pdfrwt beam="1">  1        2 0.59922131E-01 0.49321303E+03</pdfrwt>
<pdfrwt beam="2">  1       -2 0.13278124E+00 0.49321303E+03</pdfrwt>
<totfact> 0.34879854E+01</totfact>
</mgrwt>
</event>
<event>
 4    1  0.5387657E-008  0.6702169E+03  0.7818608E-02  0.9769566E-01
         -2   -1    0    0    0  501 -0.00000000000E+00  0.00000000000E+00  0.12550508275E+04  0.12550508275E+04  0.25500000000E-02 0.  1.
          2   -1    0    0  501    0  0.00000000000E+00 -0.00000000000E+00 -0.45487406155E+03  0.45487406156E+03  0.25500000000E-02 0. -1.
    8880022    1    1    2    0    0  0.55419964631E+03  0.34447315376E+03  0.53448389803E+01  0.67023818300E+03  0.15294330000E+03 0.  0.
    8880022    1    1    2    0    0 -0.55419964631E+03 -0.34447315376E+03  0.79483192701E+03  0.10396867061E+04  0.15294330000E+03 0.  0.
<mgrwt>
<rscale>  0 0.67021687E+03</rscale>
<asrwt>0</asrwt>
<pdfrwt beam="1">  1        2 0.69980625E-01 0.67021687E+03</pdfrwt>
<pdfrwt beam="2">  1       -2 0.19308474E+00 0.67021687E+03</pdfrwt>
<totfact> 0.10426276E+01</totfact>
</mgrwt>
</event>
<event>
 4    1  0.5387657E-008  0.6239986E+03  0.7818608E-02  0.9856831E-01
         -2   -1    0    0    0  501 -0.00000000000E+00  0.00000000000E+00  0.15543280048E+04  0.15543280048E+04  0.25500000000E-02 0.  1.
          2   -1    0    0  501    0  0.00000000000E+00 -0.00000000000E+00 -0.77496884872E+03  0.77496884872E+03  0.25500000000E-02 0. -1.
    8880022    1    1    2    0    0  0.53842359509E+03  0.27583071503E+03 -0.56841540172E+03  0.84407954189E+03  0.15294330000E+03 0.  0.
    8880022    1    1    2    0    0 -0.53842359509E+03 -0.27583071503E+03  0.13477745578E+04  0.14852173116E+04  0.15294330000E+03 0.  0.
<mgrwt>
<rscale>  0 0.62399856E+03</rscale>
<asrwt>0</asrwt>
<pdfrwt beam="1">  1        2 0.11922598E+00 0.62399856E+03</pdfrwt>
<pdfrwt beam="2">  1       -2 0.23912738E+00 0.62399856E+03</pdfrwt>
<totfact> 0.28314237E+00</totfact>
</mgrwt>
</event>
<event>
 4    1  0.5387657E-008  0.6922008E+03  0.7818608E-02  0.9730664E-01
         -2   -1    0    0    0  501 -0.00000000000E+00  0.00000000000E+00  0.14597295690E+04  0.14597295690E+04  0.25500000000E-02 0.  1.
          2   -1    0    0  501    0  0.00000000000E+00 -0.00000000000E+00 -0.79688637868E+03  0.79688637868E+03  0.25500000000E-02 0. -1.
    8880022    1    1    2    0    0  0.67437212100E+03  0.31185343063E+02 -0.53384909406E+03  0.87414918146E+03  0.15294330000E+03 0.  0.
    8880022    1    1    2    0    0 -0.67437212100E+03 -0.31185343063E+02  0.11966922844E+04  0.13824667662E+04  0.15294330000E+03 0.  0.
<mgrwt>
<rscale>  0 0.69220079E+03</rscale>
<asrwt>0</asrwt>
<pdfrwt beam="1">  1        2 0.12259791E+00 0.69220079E+03</pdfrwt>
<pdfrwt beam="2">  1       -2 0.22457378E+00 0.69220079E+03</pdfrwt>
<totfact> 0.33148952E+00</totfact>
</mgrwt>
</event>
<event>
 4    1  0.5387657E-008  0.7659431E+03  0.7818608E-02  0.9610665E-01
          2   -1    0    0  501    0  0.00000000000E+00  0.00000000000E+00  0.25619768075E+04  0.25619768075E+04  0.25500000000E-02 0. -1.
         -2   -1    0    0    0  501 -0.00000000000E+00 -0.00000000000E+00 -0.25884819180E+03  0.25884819181E+03  0.25500000000E-02 0.  1.
    8880022    1    1    2    0    0  0.60152361023E+03  0.44882799259E+03  0.67254809826E+03  0.10193085000E+04  0.15294330000E+03 0.  0.
    8880022    1    1    2    0    0 -0.60152361023E+03 -0.44882799259E+03  0.16305805174E+04  0.18015164993E+04  0.15294330000E+03 0.  0.
<mgrwt>
<rscale>  0 0.76594313E+03</rscale>
<asrwt>0</asrwt>
<pdfrwt beam="1">  1        2 0.39415028E+00 0.76594313E+03</pdfrwt>
<pdfrwt beam="2">  1       -2 0.39822799E-01 0.76594313E+03</pdfrwt>
<totfact> 0.19967408E+01</totfact>
</mgrwt>
</event>
<event>
 4    1  0.5387657E-008  0.6402585E+03  0.7818608E-02  0.9825232E-01
          2   -1    0    0  501    0  0.00000000000E+00  0.00000000000E+00  0.41295109421E+03  0.41295109422E+03  0.25500000000E-02 0. -1.
         -2   -1    0    0    0  501 -0.00000000000E+00 -0.00000000000E+00 -0.13249890498E+04  0.13249890498E+04  0.25500000000E-02 0.  1.
    8880022    1    1    2    0    0 -0.62171352663E+03 -0.34074186145E+01 -0.89119556042E+03  0.10973424714E+04  0.15294330000E+03 0.  0.
    8880022    1    1    2    0    0  0.62171352663E+03  0.34074186145E+01 -0.20842395203E+02  0.64059767261E+03  0.15294330000E+03 0.  0.
<mgrwt>
<rscale>  0 0.64025852E+03</rscale>
<asrwt>0</asrwt>
<pdfrwt beam="1">  1        2 0.63530938E-01 0.64025852E+03</pdfrwt>
<pdfrwt beam="2">  1       -2 0.20384447E+00 0.64025852E+03</pdfrwt>
<totfact> 0.99354085E+00</totfact>
</mgrwt>
</event>
<event>
 4    1  0.5387657E-008  0.8245244E+03  0.7818608E-02  0.9525182E-01
         -2   -1    0    0    0  501 -0.00000000000E+00  0.00000000000E+00  0.24258099195E+03  0.24258099196E+03  0.25500000000E-02 0.  1.
          2   -1    0    0  501    0  0.00000000000E+00 -0.00000000000E+00 -0.33653112911E+04  0.33653112911E+04  0.25500000000E-02 0. -1.
    8880022    1    1    2    0    0  0.55531937044E+03 -0.58997389125E+03 -0.22990669869E+04  0.24424474321E+04  0.15294330000E+03 0.  0.
    8880022    1    1    2    0    0 -0.55531937044E+03  0.58997389125E+03 -0.82366331225E+03  0.11654448509E+04  0.15294330000E+03 0.  0.
<mgrwt>
<rscale>  0 0.82452438E+03</rscale>
<asrwt>0</asrwt>
<pdfrwt beam="1">  1        2 0.51774016E+00 0.82452438E+03</pdfrwt>
<pdfrwt beam="2">  1       -2 0.37320155E-01 0.82452438E+03</pdfrwt>
<totfact> 0.72378735E+00</totfact>
</mgrwt>
</event>
<event>
 4    1  0.5387657E-008  0.9366092E+03  0.7818608E-02  0.9380941E-01
         -2   -1    0    0    0  501 -0.00000000000E+00  0.00000000000E+00  0.89691005221E+03  0.89691005221E+03  0.25500000000E-02 0.  1.
          2   -1    0    0  501    0  0.00000000000E+00 -0.00000000000E+00 -0.12162645817E+04  0.12162645818E+04  0.25500000000E-02 0. -1.
    8880022    1    1    2    0    0 -0.46410727167E+03  0.79903043986E+03 -0.62726307759E+03  0.11272514471E+04  0.15294330000E+03 0.  0.
    8880022    1    1    2    0    0  0.46410727167E+03 -0.79903043986E+03  0.30790854804E+03  0.98592318687E+03  0.15294330000E+03 0.  0.
<mgrwt>
<rscale>  0 0.93660923E+03</rscale>
<asrwt>0</asrwt>
<pdfrwt beam="1">  1        2 0.18711763E+00 0.93660923E+03</pdfrwt>
<pdfrwt beam="2">  1       -2 0.13798616E+00 0.93660923E+03</pdfrwt>
<totfact> 0.68955075E+00</totfact>
</mgrwt>
</event>
<event>
 4    1  0.5387657E-008  0.3106398E+03  0.7818608E-02  0.1080040E+00
          2   -1    0    0  501    0  0.00000000000E+00  0.00000000000E+00  0.14510971007E+04  0.14510971007E+04  0.25500000000E-02 0. -1.
         -2   -1    0    0    0  501 -0.00000000000E+00 -0.00000000000E+00 -0.86469618719E+02  0.86469618757E+02  0.25500000000E-02 0.  1.
    8880022    1    1    2    0    0 -0.13065537850E+03 -0.23671627832E+03  0.31285692588E+03  0.44088154127E+03  0.15294330000E+03 0.  0.
    8880022    1    1    2    0    0  0.13065537850E+03  0.23671627832E+03  0.10517705561E+04  0.10966851782E+04  0.15294330000E+03 0.  0.
<mgrwt>
<rscale>  0 0.31063979E+03</rscale>
<asrwt>0</asrwt>
<pdfrwt beam="1">  1        2 0.22324570E+00 0.31063979E+03</pdfrwt>
<pdfrwt beam="2">  1       -2 0.13303019E-01 0.31063979E+03</pdfrwt>
<totfact> 0.60502699E+02</totfact>
</mgrwt>
</event>
<event>
 4    1  0.5387657E-008  0.3517574E+03  0.7818608E-02  0.1061896E+00
         -2   -1    0    0    0  501 -0.00000000000E+00  0.00000000000E+00  0.56258358250E+03  0.56258358250E+03  0.25500000000E-02 0.  1.
          2   -1    0    0  501    0  0.00000000000E+00 -0.00000000000E+00 -0.25454548451E+04  0.25454548451E+04  0.25500000000E-02 0. -1.
    8880022    1    1    2    0    0  0.30653753090E+03 -0.79851953746E+02  0.49393035219E+03  0.60638307875E+03  0.15294330000E+03 0.  0.
    8880022    1    1    2    0    0 -0.30653753090E+03  0.79851953746E+02 -0.24768016148E+04  0.25016553488E+04  0.15294330000E+03 0.  0.
<mgrwt>
<rscale>  0 0.35175737E+03</rscale>
<asrwt>0</asrwt>
<pdfrwt beam="1">  1        2 0.39160843E+00 0.35175737E+03</pdfrwt>
<pdfrwt beam="2">  1       -2 0.86551322E-01 0.35175737E+03</pdfrwt>
<totfact> 0.44345424E+00</totfact>
</mgrwt>
</event>
<event>
 4    1  0.5387657E-008  0.4343965E+03  0.7818608E-02  0.1032480E+00
          2   -1    0    0  501    0  0.00000000000E+00  0.00000000000E+00  0.20360171118E+04  0.20360171118E+04  0.25500000000E-02 0. -1.
         -2   -1    0    0    0  501 -0.00000000000E+00 -0.00000000000E+00 -0.12264941932E+03  0.12264941935E+03  0.25500000000E-02 0.  1.
    8880022    1    1    2    0    0  0.98276292675E+02  0.39452559327E+03  0.14902078134E+04  0.15522305413E+04  0.15294330000E+03 0.  0.
    8880022    1    1    2    0    0 -0.98276292675E+02 -0.39452559327E+03  0.42315987916E+03  0.60643598985E+03  0.15294330000E+03 0.  0.
<mgrwt>
<rscale>  0 0.43439651E+03</rscale>
<asrwt>0</asrwt>
<pdfrwt beam="1">  1        2 0.31323341E+00 0.43439651E+03</pdfrwt>
<pdfrwt beam="2">  1       -2 0.18869141E-01 0.43439651E+03</pdfrwt>
<totfact> 0.16075795E+02</totfact>
</mgrwt>
</event>
<event>
 4    1  0.5387657E-008  0.1829401E+03  0.7818608E-02  0.1164988E+00
          2   -1    0    0  501    0  0.00000000000E+00  0.00000000000E+00  0.26998540038E+04  0.26998540038E+04  0.25500000000E-02 0. -1.
         -2   -1    0    0    0  501 -0.00000000000E+00 -0.00000000000E+00 -0.80483559642E+02  0.80483559683E+02  0.25500000000E-02 0.  1.
    8880022    1    1    2    0    0 -0.60265469326E+02  0.80271420674E+02  0.31045496108E+02  0.18555566177E+03  0.15294330000E+03 0.  0.
    8880022    1    1    2    0    0  0.60265469326E+02 -0.80271420674E+02  0.25883249480E+04  0.25947819017E+04  0.15294330000E+03 0. -1.
<mgrwt>
<rscale>  0 0.18294010E+03</rscale>
<asrwt>0</asrwt>
<pdfrwt beam="1">  1        2 0.41536205E+00 0.18294010E+03</pdfrwt>
<pdfrwt beam="2">  1       -2 0.12382089E-01 0.18294010E+03</pdfrwt>
<totfact> 0.15150581E+02</totfact>
</mgrwt>
</event>
<event>
 4    1  0.5387657E-008  0.5165278E+03  0.7818608E-02  0.1009553E+00
         -2   -1    0    0    0  501 -0.00000000000E+00  0.00000000000E+00  0.16987749069E+03  0.16987749070E+03  0.25500000000E-02 0.  1.
          2   -1    0    0  501    0  0.00000000000E+00 -0.00000000000E+00 -0.39214895096E+04  0.39214895096E+04  0.25500000000E-02 0. -1.
    8880022    1    1    2    0    0 -0.21131320100E+03 -0.44582063949E+03 -0.29188430222E+03  0.59329369659E+03  0.15294330000E+03 0.  1.
    8880022    1    1    2    0    0  0.21131320100E+03  0.44582063949E+03 -0.34597277167E+04  0.34980733037E+04  0.15294330000E+03 0.  0.
<mgrwt>
<rscale>  0 0.51652780E+03</rscale>
<asrwt>0</asrwt>
<pdfrwt beam="1">  1        2 0.60330601E+00 0.51652780E+03</pdfrwt>
<pdfrwt beam="2">  1       -2 0.26135002E-01 0.51652780E+03</pdfrwt>
<totfact> 0.61082769E+00</totfact>
</mgrwt>
</event>
<event>
 4    1  0.5387657E-008  0.4154180E+03  0.7818608E-02  0.1038568E+00
          2   -1    0    0  501    0  0.00000000000E+00  0.00000000000E+00  0.30848150767E+04  0.30848150767E+04  0.25500000000E-02 0. -1.
         -2   -1    0    0    0  501 -0.00000000000E+00 -0.00000000000E+00 -0.19805590821E+03  0.19805590822E+03  0.25500000000E-02 0.  1.
    8880022    1    1    2    0    0 -0.25894133674E+03 -0.28658308881E+03  0.28338044036E+04  0.28640913976E+04  0.15294330000E+03 0.  0.
    8880022    1    1    2    0    0  0.25894133674E+03  0.28658308881E+03  0.52954764906E+02  0.41877958738E+03  0.15294330000E+03 0.  0.
<mgrwt>
<rscale>  0 0.41541803E+03</rscale>
<asrwt>0</asrwt>
<pdfrwt beam="1">  1        2 0.47458695E+00 0.41541803E+03</pdfrwt>
<pdfrwt beam="2">  1       -2 0.30470138E-01 0.41541803E+03</pdfrwt>
<totfact> 0.17595942E+01</totfact>
</mgrwt>
</event>
<event>
 4    1  0.5387657E-008  0.3874321E+03  0.7818608E-02  0.1048220E+00
         -2   -1    0    0    0  501 -0.00000000000E+00  0.00000000000E+00  0.12585503033E+04  0.12585503033E+04  0.25500000000E-02 0.  1.
          2   -1    0    0  501    0  0.00000000000E+00 -0.00000000000E+00 -0.35542289290E+03  0.35542289291E+03  0.25500000000E-02 0. -1.
    8880022    1    1    2    0    0 -0.14801768533E+03 -0.32373255922E+03  0.11093622609E+04  0.11750694805E+04  0.15294330000E+03 0.  0.
    8880022    1    1    2    0    0  0.14801768533E+03  0.32373255922E+03 -0.20623485052E+03  0.43890371570E+03  0.15294330000E+03 0.  0.
<mgrwt>
<rscale>  0 0.38743213E+03</rscale>
<asrwt>0</asrwt>
<pdfrwt beam="1">  1        2 0.54680446E-01 0.38743213E+03</pdfrwt>
<pdfrwt beam="2">  1       -2 0.19362312E+00 0.38743213E+03</pdfrwt>
<totfact> 0.14184357E+01</totfact>
</mgrwt>
</event>
<event>
 4    1  0.5387657E-008  0.5601670E+03  0.7818608E-02  0.9991677E-01
         -2   -1    0    0    0  501 -0.00000000000E+00  0.00000000000E+00  0.10631128217E+04  0.10631128217E+04  0.25500000000E-02 0.  1.
          2   -1    0    0  501    0  0.00000000000E+00 -0.00000000000E+00 -0.17805875568E+04  0.17805875568E+04  0.25500000000E-02 0. -1.
    8880022    1    1    2    0    0 -0.43091444352E+03  0.32358633738E+03 -0.16574052415E+04  0.17495082632E+04  0.15294330000E+03 0.  0.
    8880022    1    1    2    0    0  0.43091444352E+03 -0.32358633738E+03  0.93993050637E+03  0.10941921153E+04  0.15294330000E+03 0.  0.
<mgrwt>
<rscale>  0 0.56016696E+03</rscale>
<asrwt>0</asrwt>
<pdfrwt beam="1">  1        2 0.27393655E+00 0.56016696E+03</pdfrwt>
<pdfrwt beam="2">  1       -2 0.16355582E+00 0.56016696E+03</pdfrwt>
<totfact> 0.22561039E+00</totfact>
</mgrwt>
</event>
<event>
 4    1  0.5387657E-008  0.2885943E+03  0.7818608E-02  0.1091085E+00
         -2   -1    0    0    0  501 -0.00000000000E+00  0.00000000000E+00  0.12509682077E+04  0.12509682077E+04  0.25500000000E-02 0.  1.
          2   -1    0    0  501    0  0.00000000000E+00 -0.00000000000E+00 -0.11314638188E+04  0.11314638188E+04  0.25500000000E-02 0. -1.
    8880022    1    1    2    0    0  0.24337871853E+03 -0.25726155210E+02  0.12153900339E+04  0.12491835826E+04  0.15294330000E+03 0.  0.
    8880022    1    1    2    0    0 -0.24337871853E+03  0.25726155210E+02 -0.10958856450E+04  0.11332484439E+04  0.15294330000E+03 0.  0.
<mgrwt>
<rscale>  0 0.28859433E+03</rscale>
<asrwt>0</asrwt>
<pdfrwt beam="1">  1        2 0.17407136E+00 0.28859433E+03</pdfrwt>
<pdfrwt beam="2">  1       -2 0.19245665E+00 0.28859433E+03</pdfrwt>
<totfact> 0.35639493E+00</totfact>
</mgrwt>
</event>
<event>
 4    1  0.5387657E-008  0.8900364E+03  0.7818608E-02  0.9438123E-01
         -2   -1    0    0    0  501 -0.00000000000E+00  0.00000000000E+00  0.50565610291E+03  0.50565610291E+03  0.25500000000E-02 0.  1.
          2   -1    0    0  501    0  0.00000000000E+00 -0.00000000000E+00 -0.18767793481E+04  0.18767793481E+04  0.25500000000E-02 0. -1.
    8880022    1    1    2    0    0  0.24260314400E+03  0.84256563360E+03 -0.20129389126E+03  0.91251521416E+03  0.15294330000E+03 0.  0.
    8880022    1    1    2    0    0 -0.24260314400E+03 -0.84256563360E+03 -0.11698293540E+04  0.14699202369E+04  0.15294330000E+03 0.  0.
<mgrwt>
<rscale>  0 0.89003640E+03</rscale>
<asrwt>0</asrwt>
<pdfrwt beam="1">  1        2 0.28873528E+00 0.89003640E+03</pdfrwt>
<pdfrwt beam="2">  1       -2 0.77793247E-01 0.89003640E+03</pdfrwt>
<totfact> 0.11667129E+01</totfact>
</mgrwt>
</event>
<event>
 4    1  0.5387657E-008  0.3246060E+03  0.7818608E-02  0.1073549E+00
         -2   -1    0    0    0  501 -0.00000000000E+00  0.00000000000E+00  0.44034232064E+03  0.44034232064E+03  0.25500000000E-02 0.  1.
          2   -1    0    0  501    0  0.00000000000E+00 -0.00000000000E+00 -0.73197418073E+03  0.73197418073E+03  0.25500000000E-02 0. -1.
    8880022    1    1    2    0    0 -0.63126428349E+02  0.27927131890E+03  0.33508072481E+03  0.46652777052E+03  0.15294330000E+03 0.  0.
    8880022    1    1    2    0    0  0.63126428349E+02 -0.27927131890E+03 -0.62671258490E+03  0.70578873085E+03  0.15294330000E+03 0. -1.
<mgrwt>
<rscale>  0 0.32460602E+03</rscale>
<asrwt>0</asrwt>
<pdfrwt beam="1">  1        2 0.11261141E+00 0.32460602E+03</pdfrwt>
<pdfrwt beam="2">  1       -2 0.67744973E-01 0.32460602E+03</pdfrwt>
<totfact> 0.81569201E+01</totfact>
</mgrwt>
</event>
<event>
 4    1  0.5387657E-008  0.6209861E+03  0.7818608E-02  0.9862798E-01
          2   -1    0    0  501    0  0.00000000000E+00  0.00000000000E+00  0.36847635626E+04  0.36847635626E+04  0.25500000000E-02 0. -1.
         -2   -1    0    0    0  501 -0.00000000000E+00 -0.00000000000E+00 -0.12695102868E+03  0.12695102871E+03  0.25500000000E-02 0.  1.
    8880022    1    1    2    0    0 -0.16153070832E+03  0.57977570907E+03  0.25776360168E+04  0.26513828713E+04  0.15294330000E+03 0.  0.
    8880022    1    1    2    0    0  0.16153070832E+03 -0.57977570907E+03  0.98017651721E+03  0.11603317200E+04  0.15294330000E+03 0.  0.
<mgrwt>
<rscale>  0 0.62098607E+03</rscale>
<asrwt>0</asrwt>
<pdfrwt beam="1">  1        2 0.56688665E+00 0.62098607E+03</pdfrwt>
<pdfrwt beam="2">  1       -2 0.19530929E-01 0.62098607E+03</pdfrwt>
<totfact> 0.14857935E+01</totfact>
</mgrwt>
</event>
<event>
 4    1  0.5387657E-008  0.9093887E+03  0.7818608E-02  0.9413921E-01
          2   -1    0    0  501    0  0.00000000000E+00  0.00000000000E+00  0.15750880494E+04  0.15750880494E+04  0.25500000000E-02 0. -1.
         -2   -1    0    0    0  501 -0.00000000000E+00 -0.00000000000E+00 -0.83918375582E+03  0.83918375582E+03  0.25500000000E-02 0.  1.
    8880022    1    1    2    0    0  0.17064928751E+03  0.88004257147E+03 -0.37061553364E+03  0.98200999675E+03  0.15294330000E+03 0.  0.
    8880022    1    1    2    0    0 -0.17064928751E+03 -0.88004257147E+03  0.11065198272E+04  0.14322618084E+04  0.15294330000E+03 0.  0.
<mgrwt>
<rscale>  0 0.90938867E+03</rscale>
<asrwt>0</asrwt>
<pdfrwt beam="1">  1        2 0.24232124E+00 0.90938867E+03</pdfrwt>
<pdfrwt beam="2">  1       -2 0.12910519E+00 0.90938867E+03</pdfrwt>
<totfact> 0.51139187E+00</totfact>
</mgrwt>
</event>
<event>
 4    1  0.5387657E-008  0.6810037E+03  0.7818608E-02  0.9750281E-01
         -2   -1    0    0    0  501 -0.00000000000E+00  0.00000000000E+00  0.10878658351E+04  0.10878658351E+04  0.25500000000E-02 0.  1.
          2   -1    0    0  501    0  0.00000000000E+00 -0.00000000000E+00 -0.66171471340E+03  0.66171471341E+03  0.25500000000E-02 0. -1.
    8880022    1    1    2    0    0 -0.84977143557E+02 -0.65814383852E+03  0.73484402510E+03  0.10018791451E+04  0.15294330000E+03 0.  0.
    8880022    1    1    2    0    0  0.84977143557E+02  0.65814383852E+03 -0.30869290339E+03  0.74770140345E+03  0.15294330000E+03 0.  0.
<mgrwt>
<rscale>  0 0.68100373E+03</rscale>
<asrwt>0</asrwt>
<pdfrwt beam="1">  1        2 0.10180227E+00 0.68100373E+03</pdfrwt>
<pdfrwt beam="2">  1       -2 0.16736397E+00 0.68100373E+03</pdfrwt>
<totfact> 0.10028625E+01</totfact>
</mgrwt>
</event>
<event>
 4    1  0.5387657E-008  0.2074475E+03  0.7818608E-02  0.1143603E+00
         -2   -1    0    0    0  501 -0.00000000000E+00  0.00000000000E+00  0.29402207850E+03  0.29402207851E+03  0.25500000000E-02 0.  1.
          2   -1    0    0  501    0  0.00000000000E+00 -0.00000000000E+00 -0.27750323401E+03  0.27750323402E+03  0.25500000000E-02 0. -1.
    8880022    1    1    2    0    0 -0.72385972944E+02  0.12001279937E+03  0.20470244470E+03  0.29144046557E+03  0.15294330000E+03 0.  0.
    8880022    1    1    2    0    0  0.72385972944E+02 -0.12001279937E+03 -0.18818360021E+03  0.28008484696E+03  0.15294330000E+03 0. -1.
<mgrwt>
<rscale>  0 0.20744747E+03</rscale>
<asrwt>0</asrwt>
<pdfrwt beam="1">  1        2 0.42692805E-01 0.20744747E+03</pdfrwt>
<pdfrwt beam="2">  1       -2 0.45234166E-01 0.20744747E+03</pdfrwt>
<totfact> 0.55964653E+02</totfact>
</mgrwt>
</event>
<event>
 4    1  0.5387657E-008  0.3049063E+03  0.7818608E-02  0.1082813E+00
          2   -1    0    0  501    0  0.00000000000E+00  0.00000000000E+00  0.79497238458E+03  0.79497238459E+03  0.25500000000E-02 0. -1.
         -2   -1    0    0    0  501 -0.00000000000E+00 -0.00000000000E+00 -0.24268781152E+03  0.24268781154E+03  0.25500000000E-02 0.  1.
    8880022    1    1    2    0    0  0.21959659014E+03  0.14612849339E+03  0.64960150429E+03  0.71760014379E+03  0.15294330000E+03 0.  0.
    8880022    1    1    2    0    0 -0.21959659014E+03 -0.14612849339E+03 -0.97316931232E+02  0.32006005233E+03  0.15294330000E+03 0.  1.
<mgrwt>
<rscale>  0 0.30490630E+03</rscale>
<asrwt>0</asrwt>
<pdfrwt beam="1">  1        2 0.12230344E+00 0.30490630E+03</pdfrwt>
<pdfrwt beam="2">  1       -2 0.37336586E-01 0.30490630E+03</pdfrwt>
<totfact> 0.24441408E+02</totfact>
</mgrwt>
</event>
<event>
 4    1  0.5387657E-008  0.6761349E+03  0.7818608E-02  0.9758938E-01
         -2   -1    0    0    0  501 -0.00000000000E+00  0.00000000000E+00  0.38959769790E+03  0.38959769791E+03  0.25500000000E-02 0.  1.
          2   -1    0    0  501    0  0.00000000000E+00 -0.00000000000E+00 -0.15489014747E+04  0.15489014747E+04  0.25500000000E-02 0. -1.
    8880022    1    1    2    0    0 -0.65084392595E+03  0.10084101527E+03 -0.10242713764E+03  0.68384917770E+03  0.15294330000E+03 0.  0.
    8880022    1    1    2    0    0  0.65084392595E+03 -0.10084101527E+03 -0.10568766392E+04  0.12546499949E+04  0.15294330000E+03 0. -1.
<mgrwt>
<rscale>  0 0.67613488E+03</rscale>
<asrwt>0</asrwt>
<pdfrwt beam="1">  1        2 0.23829253E+00 0.67613488E+03</pdfrwt>
<pdfrwt beam="2">  1       -2 0.59938108E-01 0.67613488E+03</pdfrwt>
<totfact> 0.31947728E+01</totfact>
</mgrwt>
</event>
<event>
 4    1  0.5387657E-008  0.7095564E+03  0.7818608E-02  0.9701028E-01
          2   -1    0    0  501    0  0.00000000000E+00  0.00000000000E+00  0.82653001657E+03  0.82653001658E+03  0.25500000000E-02 0. -1.
         -2   -1    0    0    0  501 -0.00000000000E+00 -0.00000000000E+00 -0.15289451081E+04  0.15289451081E+04  0.25500000000E-02 0.  1.
    8880022    1    1    2    0    0  0.68934548513E+03 -0.69867531105E+02  0.56227679812E+03  0.90533171848E+03  0.15294330000E+03 0.  0.
    8880022    1    1    2    0    0 -0.68934548513E+03  0.69867531105E+02 -0.12646918897E+04  0.14501434062E+04  0.15294330000E+03 0.  1.
<mgrwt>
<rscale>  0 0.70955643E+03</rscale>
<asrwt>0</asrwt>
<pdfrwt beam="1">  1        2 0.12715846E+00 0.70955643E+03</pdfrwt>
<pdfrwt beam="2">  1       -2 0.23522232E+00 0.70955643E+03</pdfrwt>
<totfact> 0.27072041E+00</totfact>
</mgrwt>
</event>
<event>
 4    1  0.5387657E-008  0.6098658E+03  0.7818608E-02  0.9885147E-01
          2   -1    0    0  501    0  0.00000000000E+00  0.00000000000E+00  0.19949392360E+04  0.19949392360E+04  0.25500000000E-02 0. -1.
         -2   -1    0    0    0  501 -0.00000000000E+00 -0.00000000000E+00 -0.31437144139E+03  0.31437144140E+03  0.25500000000E-02 0.  1.
    8880022    1    1    2    0    0  0.46964944811E+03  0.35773451808E+03  0.15768634619E+04  0.16906905749E+04  0.15294330000E+03 0.  0.
    8880022    1    1    2    0    0 -0.46964944811E+03 -0.35773451808E+03  0.10370433266E+03  0.61862010246E+03  0.15294330000E+03 0.  0.
<mgrwt>
<rscale>  0 0.60986576E+03</rscale>
<asrwt>0</asrwt>
<pdfrwt beam="1">  1        2 0.30691372E+00 0.60986576E+03</pdfrwt>
<pdfrwt beam="2">  1       -2 0.48364838E-01 0.60986576E+03</pdfrwt>
<totfact> 0.28702903E+01</totfact>
</mgrwt>
</event>
<event>
 4    1  0.5387657E-008  0.6717380E+03  0.7818608E-02  0.9766823E-01
         -2   -1    0    0    0  501 -0.00000000000E+00  0.00000000000E+00  0.77474484031E+03  0.77474484031E+03  0.25500000000E-02 0.  1.
          2   -1    0    0  501    0  0.00000000000E+00 -0.00000000000E+00 -0.16803461696E+04  0.16803461696E+04  0.25500000000E-02 0. -1.
    8880022    1    1    2    0    0 -0.51477264689E+03 -0.40354596982E+03 -0.14450561639E+04  0.15935555207E+04  0.15294330000E+03 0.  0.
    8880022    1    1    2    0    0  0.51477264689E+03  0.40354596982E+03  0.53945483454E+03  0.86153548927E+03  0.15294330000E+03 0.  0.
<mgrwt>
<rscale>  0 0.67173796E+03</rscale>
<asrwt>0</asrwt>
<pdfrwt beam="1">  1        2 0.25851479E+00 0.67173796E+03</pdfrwt>
<pdfrwt beam="2">  1       -2 0.11919151E+00 0.67173796E+03</pdfrwt>
<totfact> 0.56589018E+00</totfact>
</mgrwt>
</event>
<event>
 4    1  0.5387657E-008  0.3464883E+03  0.7818608E-02  0.1064066E+00
         -2   -1    0    0    0  501 -0.00000000000E+00  0.00000000000E+00  0.16882787600E+03  0.16882787602E+03  0.25500000000E-02 0.  1.
          2   -1    0    0  501    0  0.00000000000E+00 -0.00000000000E+00 -0.19338005126E+04  0.19338005126E+04  0.25500000000E-02 0. -1.
    8880022    1    1    2    0    0 -0.30980004737E+03 -0.26199687573E+02 -0.46525229534E+02  0.34959797336E+03  0.15294330000E+03 0.  0.
    8880022    1    1    2    0    0  0.30980004737E+03  0.26199687573E+02 -0.17184474070E+04  0.17530304152E+04  0.15294330000E+03 0.  0.
<mgrwt>
<rscale>  0 0.34648831E+03</rscale>
<asrwt>0</asrwt>
<pdfrwt beam="1">  1        2 0.29750776E+00 0.34648831E+03</pdfrwt>
<pdfrwt beam="2">  1       -2 0.25973521E-01 0.34648831E+03</pdfrwt>
<totfact> 0.10583636E+02</totfact>
</mgrwt>
</event>
<event>
 4    1  0.5387657E-008  0.9449858E+03  0.7818608E-02  0.9371031E-01
         -2   -1    0    0    0  501 -0.00000000000E+00  0.00000000000E+00  0.20145098605E+04  0.20145098605E+04  0.25500000000E-02 0.  1.
          2   -1    0    0  501    0  0.00000000000E+00 -0.00000000000E+00 -0.12476545905E+04  0.12476545905E+04  0.25500000000E-02 0. -1.
    8880022    1    1    2    0    0 -0.16348563586E+03  0.91808442519E+03 -0.92622764967E+03  0.13232142219E+04  0.15294330000E+03 0.  0.
    8880022    1    1    2    0    0  0.16348563586E+03 -0.91808442519E+03  0.16930829197E+04  0.19389502291E+04  0.15294330000E+03 0.  0.
<mgrwt>
<rscale>  0 0.94498583E+03</rscale>
<asrwt>0</asrwt>
<pdfrwt beam="1">  1        2 0.19194686E+00 0.94498583E+03</pdfrwt>
<pdfrwt beam="2">  1       -2 0.30992459E+00 0.94498583E+03</pdfrwt>
<totfact> 0.49736429E-01</totfact>
</mgrwt>
</event>
<event>
 4    1  0.5387657E-008  0.1454144E+04  0.7818608E-02  0.8915533E-01
          2   -1    0    0  501    0  0.00000000000E+00  0.00000000000E+00  0.30323753065E+04  0.30323753065E+04  0.25500000000E-02 0. -1.
         -2   -1    0    0    0  501 -0.00000000000E+00 -0.00000000000E+00 -0.91220694733E+03  0.91220694733E+03  0.25500000000E-02 0.  1.
    8880022    1    1    2    0    0 -0.69349812463E+02  0.14444145091E+04  0.20173441378E+04  0.24868075305E+04  0.15294330000E+03 0.  0.
    8880022    1    1    2    0    0  0.69349812463E+02 -0.14444145091E+04  0.10282422140E+03  0.14577747233E+04  0.15294330000E+03 0.  0.
<mgrwt>
<rscale>  0 0.14541438E+04</rscale>
<asrwt>0</asrwt>
<pdfrwt beam="1">  1        2 0.46651927E+00 0.14541438E+04</pdfrwt>
<pdfrwt beam="2">  1       -2 0.14033953E+00 0.14541438E+04</pdfrwt>
<totfact> 0.56597620E-01</totfact>
</mgrwt>
</event>
<event>
 4    1  0.5387657E-008  0.5863382E+03  0.7818608E-02  0.9934162E-01
         -2   -1    0    0    0  501 -0.00000000000E+00  0.00000000000E+00  0.23407377031E+03  0.23407377032E+03  0.25500000000E-02 0.  1.
          2   -1    0    0  501    0  0.00000000000E+00 -0.00000000000E+00 -0.25892479335E+04  0.25892479335E+04  0.25500000000E-02 0. -1.
    8880022    1    1    2    0    0 -0.56397375125E+03  0.48315995019E+02 -0.21062366723E+04  0.21863269198E+04  0.15294330000E+03 0.  0.
    8880022    1    1    2    0    0  0.56397375125E+03 -0.48315995019E+02 -0.24893749087E+03  0.63699478400E+03  0.15294330000E+03 0.  0.
<mgrwt>
<rscale>  0 0.58633820E+03</rscale>
<asrwt>0</asrwt>
<pdfrwt beam="1">  1        2 0.39834581E+00 0.58633820E+03</pdfrwt>
<pdfrwt beam="2">  1       -2 0.36011351E-01 0.58633820E+03</pdfrwt>
<totfact> 0.24118450E+01</totfact>
</mgrwt>
</event>
<event>
 4    1  0.5387657E-008  0.9532800E+03  0.7818608E-02  0.9361325E-01
          2   -1    0    0  501    0  0.00000000000E+00  0.00000000000E+00  0.36316881043E+04  0.36316881043E+04  0.25500000000E-02 0. -1.
         -2   -1    0    0    0  501 -0.00000000000E+00 -0.00000000000E+00 -0.29301463051E+03  0.29301463052E+03  0.25500000000E-02 0.  1.
    8880022    1    1    2    0    0 -0.81709639355E+03  0.46658828563E+03  0.24192245553E+04  0.26002673414E+04  0.15294330000E+03 0.  0.
    8880022    1    1    2    0    0  0.81709639355E+03 -0.46658828563E+03  0.91944891843E+03  0.13244353934E+04  0.15294330000E+03 0.  0.
<mgrwt>
<rscale>  0 0.95328002E+03</rscale>
<asrwt>0</asrwt>
<pdfrwt beam="1">  1        2 0.55872125E+00 0.95328002E+03</pdfrwt>
<pdfrwt beam="2">  1       -2 0.45079174E-01 0.95328002E+03</pdfrwt>
<totfact> 0.32078209E+00</totfact>
</mgrwt>
</event>
<event>
 4    1  0.5387657E-008  0.1102438E+04  0.7818608E-02  0.9202819E-01
          2   -1    0    0  501    0  0.00000000000E+00  0.00000000000E+00  0.48318407873E+04  0.48318407873E+04  0.25500000000E-02 0. -1.
         -2   -1    0    0    0  501 -0.00000000000E+00 -0.00000000000E+00 -0.65889842787E+03  0.65889842787E+03  0.25500000000E-02 0.  1.
    8880022    1    1    2    0    0 -0.24507524741E+03 -0.10639150751E+04 -0.72185195571E+02  0.11047984067E+04  0.15294330000E+03 0.  1.
    8880022    1    1    2    0    0  0.24507524741E+03  0.10639150751E+04  0.42451275550E+04  0.43859408084E+04  0.15294330000E+03 0.  0.
<mgrwt>
<rscale>  0 0.11024377E+04</rscale>
<asrwt>0</asrwt>
<pdfrwt beam="1">  1        2 0.74336014E+00 0.11024377E+04</pdfrwt>
<pdfrwt beam="2">  1       -2 0.10136899E+00 0.11024377E+04</pdfrwt>
<totfact> 0.46626230E-02</totfact>
</mgrwt>
</event>
<event>
 4    1  0.5387657E-008  0.6106323E+03  0.7818608E-02  0.9883590E-01
         -2   -1    0    0    0  501 -0.00000000000E+00  0.00000000000E+00  0.47517106729E+03  0.47517106730E+03  0.25500000000E-02 0.  1.
          2   -1    0    0  501    0  0.00000000000E+00 -0.00000000000E+00 -0.78584970158E+03  0.78584970159E+03  0.25500000000E-02 0. -1.
    8880022    1    1    2    0    0 -0.43928609135E+03  0.39561083631E+03 -0.17934257562E+03  0.63642408527E+03  0.15294330000E+03 0.  0.
    8880022    1    1    2    0    0  0.43928609135E+03 -0.39561083631E+03 -0.13133605867E+03  0.62459668362E+03  0.15294330000E+03 0.  0.
<mgrwt>
<rscale>  0 0.61063234E+03</rscale>
<asrwt>0</asrwt>
<pdfrwt beam="1">  1        2 0.12089995E+00 0.61063234E+03</pdfrwt>
<pdfrwt beam="2">  1       -2 0.73103242E-01 0.61063234E+03</pdfrwt>
<totfact> 0.61102370E+01</totfact>
</mgrwt>
</event>
<event>
 4    1  0.5387657E-008  0.5327586E+03  0.7818608E-02  0.1005565E+00
          2   -1    0    0  501    0  0.00000000000E+00  0.00000000000E+00  0.32900167141E+04  0.32900167141E+04  0.25500000000E-02 0. -1.
         -2   -1    0    0    0  501 -0.00000000000E+00 -0.00000000000E+00 -0.43600299492E+03  0.43600299492E+03  0.25500000000E-02 0.  1.
    8880022    1    1    2    0    0  0.49454459001E+03  0.12595912173E+03 -0.24153977337E+03  0.58495569660E+03  0.15294330000E+03 0.  1.
    8880022    1    1    2    0    0 -0.49454459001E+03 -0.12595912173E+03  0.30955534925E+04  0.31410640124E+04  0.15294330000E+03 0.  0.
<mgrwt>
<rscale>  0 0.53275858E+03</rscale>
<asrwt>0</asrwt>
<pdfrwt beam="1">  1        2 0.50615643E+00 0.53275858E+03</pdfrwt>
<pdfrwt beam="2">  1       -2 0.67077382E-01 0.53275858E+03</pdfrwt>
<totfact> 0.26304697E+00</totfact>
</mgrwt>
</event>
<event>
 4    1  0.5387657E-008  0.4838195E+03  0.7818608E-02  0.1018091E+00
          2   -1    0    0  501    0  0.00000000000E+00  0.00000000000E+00  0.13663171629E+04  0.13663171629E+04  0.25500000000E-02 0. -1.
         -2   -1    0    0    0  501 -0.00000000000E+00 -0.00000000000E+00 -0.54479233142E+03  0.54479233143E+03  0.25500000000E-02 0.  1.
    8880022    1    1    2    0    0 -0.89153451749E+02  0.45026800898E+03 -0.38040369223E+03  0.61545774830E+03  0.15294330000E+03 0.  0.
    8880022    1    1    2    0    0  0.89153451749E+02 -0.45026800898E+03  0.12019285237E+04  0.12956517460E+04  0.15294330000E+03 0.  0.
<mgrwt>
<rscale>  0 0.48381946E+03</rscale>
<asrwt>0</asrwt>
<pdfrwt beam="1">  1        2 0.21020264E+00 0.48381946E+03</pdfrwt>
<pdfrwt beam="2">  1       -2 0.83814205E-01 0.48381946E+03</pdfrwt>
<totfact> 0.19999762E+01</totfact>
</mgrwt>
</event>
<event>
 4    1  0.5387657E-008  0.2088227E+03  0.7818608E-02  0.1142502E+00
          2   -1    0    0  501    0  0.00000000000E+00  0.00000000000E+00  0.17801952250E+04  0.17801952250E+04  0.25500000000E-02 0. -1.
         -2   -1    0    0    0  501 -0.00000000000E+00 -0.00000000000E+00 -0.24670775198E+03  0.24670775199E+03  0.25500000000E-02 0.  1.
    8880022    1    1    2    0    0  0.70125952872E+02 -0.12368361981E+03 -0.19507996540E+03  0.28576762061E+03  0.15294330000E+03 0.  1.
    8880022    1    1    2    0    0 -0.70125952872E+02  0.12368361981E+03  0.17285674384E+04  0.17411353563E+04  0.15294330000E+03 0.  0.
<mgrwt>
<rscale>  0 0.20882275E+03</rscale>
<asrwt>0</asrwt>
<pdfrwt beam="1">  1        2 0.27387618E+00 0.20882275E+03</pdfrwt>
<pdfrwt beam="2">  1       -2 0.37955040E-01 0.20882275E+03</pdfrwt>
<totfact> 0.66118343E+01</totfact>
</mgrwt>
</event>
<event>
 4    1  0.5387657E-008  0.4643055E+03  0.7818608E-02  0.1023540E+00
          2   -1    0    0  501    0  0.00000000000E+00  0.00000000000E+00  0.10727739242E+04  0.10727739242E+04  0.25500000000E-02 0. -1.
         -2   -1    0    0    0  501 -0.00000000000E+00 -0.00000000000E+00 -0.39497664916E+03  0.39497664917E+03  0.25500000000E-02 0.  1.
    8880022    1    1    2    0    0 -0.22075957204E+02  0.43783624215E+03 -0.17545444134E+03  0.49635051811E+03  0.15294330000E+03 0.  0.
    8880022    1    1    2    0    0  0.22075957204E+02 -0.43783624215E+03  0.85325171637E+03  0.97140005525E+03  0.15294330000E+03 0.  0.
<mgrwt>
<rscale>  0 0.46430548E+03</rscale>
<asrwt>0</asrwt>
<pdfrwt beam="1">  1        2 0.16504214E+00 0.46430548E+03</pdfrwt>
<pdfrwt beam="2">  1       -2 0.60765640E-01 0.46430548E+03</pdfrwt>
<totfact> 0.59854253E+01</totfact>
</mgrwt>
</event>
<event>
 4    1  0.5387657E-008  0.8278830E+03  0.7818608E-02  0.9520512E-01
         -2   -1    0    0    0  501 -0.00000000000E+00  0.00000000000E+00  0.15606298420E+04  0.15606298420E+04  0.25500000000E-02 0.  1.
          2   -1    0    0  501    0  0.00000000000E+00 -0.00000000000E+00 -0.63676460529E+03  0.63676460530E+03  0.25500000000E-02 0. -1.
    8880022    1    1    2    0    0 -0.70974032944E+03  0.39782820246E+03 -0.15009377938E+03  0.84137887395E+03  0.15294330000E+03 0.  0.
    8880022    1    1    2    0    0  0.70974032944E+03 -0.39782820246E+03  0.10739590161E+04  0.13560155733E+04  0.15294330000E+03 0.  0.
<mgrwt>
<rscale>  0 0.82788300E+03</rscale>
<asrwt>0</asrwt>
<pdfrwt beam="1">  1        2 0.97963785E-01 0.82788300E+03</pdfrwt>
<pdfrwt beam="2">  1       -2 0.24009690E+00 0.82788300E+03</pdfrwt>
<totfact> 0.34710588E+00</totfact>
</mgrwt>
</event>
<event>
 4    1  0.5387657E-008  0.3623992E+03  0.7818608E-02  0.1057638E+00
          2   -1    0    0  501    0  0.00000000000E+00  0.00000000000E+00  0.12387575190E+04  0.12387575190E+04  0.25500000000E-02 0. -1.
         -2   -1    0    0    0  501 -0.00000000000E+00 -0.00000000000E+00 -0.65088037631E+03  0.65088037632E+03  0.25500000000E-02 0.  1.
    8880022    1    1    2    0    0 -0.73525382706E+02 -0.32021175434E+03  0.11583899598E+04  0.12137547123E+04  0.15294330000E+03 0.  0.
    8880022    1    1    2    0    0  0.73525382706E+02  0.32021175434E+03 -0.57051281717E+03  0.67588318302E+03  0.15294330000E+03 0.  0.
<mgrwt>
<rscale>  0 0.36239923E+03</rscale>
<asrwt>0</asrwt>
<pdfrwt beam="1">  1        2 0.19057808E+00 0.36239923E+03</pdfrwt>
<pdfrwt beam="2">  1       -2 0.10013544E+00 0.36239923E+03</pdfrwt>
<totfact> 0.16102596E+01</totfact>
</mgrwt>
</event>
<event>
 4    1  0.5387657E-008  0.6452799E+03  0.7818608E-02  0.9815677E-01
          2   -1    0    0  501    0  0.00000000000E+00  0.00000000000E+00  0.19704857832E+04  0.19704857832E+04  0.25500000000E-02 0. -1.
         -2   -1    0    0    0  501 -0.00000000000E+00 -0.00000000000E+00 -0.29605587523E+03  0.29605587524E+03  0.25500000000E-02 0.  1.
    8880022    1    1    2    0    0  0.61787417698E+03  0.10595266041E+03  0.23089403189E+03  0.68534529385E+03  0.15294330000E+03 0.  0.
    8880022    1    1    2    0    0 -0.61787417698E+03 -0.10595266041E+03  0.14435358761E+04  0.15811963646E+04  0.15294330000E+03 0.  0.
<mgrwt>
<rscale>  0 0.64527988E+03</rscale>
<asrwt>0</asrwt>
<pdfrwt beam="1">  1        2 0.30315166E+00 0.64527988E+03</pdfrwt>
<pdfrwt beam="2">  1       -2 0.45547058E-01 0.64527988E+03</pdfrwt>
<totfact> 0.33194607E+01</totfact>
</mgrwt>
</event>
<event>
 4    1  0.5387657E-008  0.4715712E+03  0.7818608E-02  0.1021478E+00
         -2   -1    0    0    0  501 -0.00000000000E+00  0.00000000000E+00  0.15389345709E+04  0.15389345709E+04  0.25500000000E-02 0.  1.
          2   -1    0    0  501    0  0.00000000000E+00 -0.00000000000E+00 -0.44991310547E+03  0.44991310548E+03  0.25500000000E-02 0. -1.
    8880022    1    1    2    0    0 -0.28397573838E+03 -0.34401382877E+03  0.13638230712E+04  0.14430498109E+04  0.15294330000E+03 0.  1.
    8880022    1    1    2    0    0  0.28397573838E+03  0.34401382877E+03 -0.27480160575E+03  0.54579786543E+03  0.15294330000E+03 0.  0.
<mgrwt>
<rscale>  0 0.47157119E+03</rscale>
<asrwt>0</asrwt>
<pdfrwt beam="1">  1        2 0.69217400E-01 0.47157119E+03</pdfrwt>
<pdfrwt beam="2">  1       -2 0.23675917E+00 0.47157119E+03</pdfrwt>
<totfact> 0.57804106E+00</totfact>
</mgrwt>
</event>
<event>
 4    1  0.5387657E-008  0.3878821E+03  0.7818608E-02  0.1048058E+00
         -2   -1    0    0    0  501 -0.00000000000E+00  0.00000000000E+00  0.11904777567E+03  0.11904777570E+03  0.25500000000E-02 0.  1.
          2   -1    0    0  501    0  0.00000000000E+00 -0.00000000000E+00 -0.13785852567E+04  0.13785852567E+04  0.25500000000E-02 0. -1.
    8880022    1    1    2    0    0 -0.35090650231E+03 -0.62653516470E+02 -0.84584302100E+03  0.93053904039E+03  0.15294330000E+03 0. -1.
    8880022    1    1    2    0    0  0.35090650231E+03  0.62653516470E+02 -0.41369445999E+03  0.56709399197E+03  0.15294330000E+03 0.  0.
<mgrwt>
<rscale>  0 0.38788206E+03</rscale>
<asrwt>0</asrwt>
<pdfrwt beam="1">  1        2 0.21209003E+00 0.38788206E+03</pdfrwt>
<pdfrwt beam="2">  1       -2 0.18315043E-01 0.38788206E+03</pdfrwt>
<totfact> 0.38493213E+02</totfact>
</mgrwt>
</event>
<event>
 4    1  0.5387657E-008  0.6361010E+03  0.7818608E-02  0.9833215E-01
         -2   -1    0    0    0  501 -0.00000000000E+00  0.00000000000E+00  0.90767618731E+03  0.90767618731E+03  0.25500000000E-02 0.  1.
          2   -1    0    0  501    0  0.00000000000E+00 -0.00000000000E+00 -0.10826674428E+04  0.10826674428E+04  0.25500000000E-02 0. -1.
    8880022    1    1    2    0    0 -0.53003263392E+03 -0.31669900606E+03  0.67578043186E+03  0.92806449051E+03  0.15294330000E+03 0.  0.
    8880022    1    1    2    0    0  0.53003263392E+03  0.31669900606E+03 -0.85077168739E+03  0.10622791396E+04  0.15294330000E+03 0.  0.
<mgrwt>
<rscale>  0 0.63610102E+03</rscale>
<asrwt>0</asrwt>
<pdfrwt beam="1">  1        2 0.16656422E+00 0.63610102E+03</pdfrwt>
<pdfrwt beam="2">  1       -2 0.13964249E+00 0.63610102E+03</pdfrwt>
<totfact> 0.83568815E+00</totfact>
</mgrwt>
</event>
<event>
 4    1  0.5387657E-008  0.4994583E+03  0.7818608E-02  0.1013920E+00
         -2   -1    0    0    0  501 -0.00000000000E+00  0.00000000000E+00  0.44212377766E+03  0.44212377767E+03  0.25500000000E-02 0.  1.
          2   -1    0    0  501    0  0.00000000000E+00 -0.00000000000E+00 -0.38535634833E+04  0.38535634833E+04  0.25500000000E-02 0. -1.
    8880022    1    1    2    0    0 -0.32902720962E+03  0.34323178402E+03  0.27866309400E+03  0.57193682799E+03  0.15294330000E+03 0.  0.
    8880022    1    1    2    0    0  0.32902720962E+03 -0.34323178402E+03 -0.36901027997E+04  0.37237504330E+04  0.15294330000E+03 0.  0.
<mgrwt>
<rscale>  0 0.49945832E+03</rscale>
<asrwt>0</asrwt>
<pdfrwt beam="1">  1        2 0.59285590E+00 0.49945832E+03</pdfrwt>
<pdfrwt beam="2">  1       -2 0.68019045E-01 0.49945832E+03</pdfrwt>
<totfact> 0.10549157E+00</totfact>
</mgrwt>
</event>
<event>
 4    1  0.5387657E-008  0.1371966E+04  0.7818608E-02  0.8974365E-01
          2   -1    0    0  501    0  0.00000000000E+00  0.00000000000E+00  0.33915579110E+04  0.33915579110E+04  0.25500000000E-02 0. -1.
         -2   -1    0    0    0  501 -0.00000000000E+00 -0.00000000000E+00 -0.68306355135E+03  0.68306355136E+03  0.25500000000E-02 0.  1.
    8880022    1    1    2    0    0  0.11173339683E+04 -0.78132215515E+03  0.47207932936E+03  0.14509135237E+04  0.15294330000E+03 0.  0.
    8880022    1    1    2    0    0 -0.11173339683E+04  0.78132215515E+03  0.22364150302E+04  0.26237079387E+04  0.15294330000E+03 0.  0.
<mgrwt>
<rscale>  0 0.13719662E+04</rscale>
<asrwt>0</asrwt>
<pdfrwt beam="1">  1        2 0.52177814E+00 0.13719662E+04</pdfrwt>
<pdfrwt beam="2">  1       -2 0.10508670E+00 0.13719662E+04</pdfrwt>
<totfact> 0.69070488E-01</totfact>
</mgrwt>
</event>
<event>
 4    1  0.5387657E-008  0.4247741E+03  0.7818608E-02  0.1035524E+00
         -2   -1    0    0    0  501 -0.00000000000E+00  0.00000000000E+00  0.13398388438E+04  0.13398388438E+04  0.25500000000E-02 0.  1.
          2   -1    0    0  501    0  0.00000000000E+00 -0.00000000000E+00 -0.83873711428E+03  0.83873711429E+03  0.25500000000E-02 0. -1.
    8880022    1    1    2    0    0 -0.14933361522E+03 -0.36707064812E+03  0.12485668867E+04  0.13188450678E+04  0.15294330000E+03 0.  0.
    8880022    1    1    2    0    0  0.14933361522E+03  0.36707064812E+03 -0.74746515722E+03  0.85973089023E+03  0.15294330000E+03 0. -1.
<mgrwt>
<rscale>  0 0.42477411E+03</rscale>
<asrwt>0</asrwt>
<pdfrwt beam="1">  1        2 0.12903648E+00 0.42477411E+03</pdfrwt>
<pdfrwt beam="2">  1       -2 0.20612905E+00 0.42477411E+03</pdfrwt>
<totfact> 0.42607258E+00</totfact>
</mgrwt>
</event>
<event>
 4    1  0.5387657E-008  0.5297922E+03  0.7818608E-02  0.1006283E+00
         -2   -1    0    0    0  501 -0.00000000000E+00  0.00000000000E+00  0.15675006029E+04  0.15675006029E+04  0.25500000000E-02 0.  1.
          2   -1    0    0  501    0  0.00000000000E+00 -0.00000000000E+00 -0.32044600557E+03  0.32044600558E+03  0.25500000000E-02 0. -1.
    8880022    1    1    2    0    0 -0.17529989381E+03 -0.47598121326E+03  0.12505487436E+04  0.13581428428E+04  0.15294330000E+03 0.  0.
    8880022    1    1    2    0    0  0.17529989381E+03  0.47598121326E+03 -0.34941462551E+01  0.52980376576E+03  0.15294330000E+03 0. -1.
<mgrwt>
<rscale>  0 0.52979224E+03</rscale>
<asrwt>0</asrwt>
<pdfrwt beam="1">  1        2 0.49299385E-01 0.52979224E+03</pdfrwt>
<pdfrwt beam="2">  1       -2 0.24115394E+00 0.52979224E+03</pdfrwt>
<totfact> 0.78480655E+00</totfact>
</mgrwt>
</event>
<event>
 4    1  0.5387657E-008  0.7675229E+03  0.7818608E-02  0.9608254E-01
         -2   -1    0    0    0  501 -0.00000000000E+00  0.00000000000E+00  0.43751454210E+03  0.43751454211E+03  0.25500000000E-02 0.  1.
          2   -1    0    0  501    0  0.00000000000E+00 -0.00000000000E+00 -0.18302999615E+04  0.18302999615E+04  0.25500000000E-02 0. -1.
    8880022    1    1    2    0    0 -0.60825035800E+03  0.44241527743E+03 -0.12793970394E+04  0.14919611970E+04  0.15294330000E+03 0.  0.
    8880022    1    1    2    0    0  0.60825035800E+03 -0.44241527743E+03 -0.11338837995E+03  0.77585330664E+03  0.15294330000E+03 0.  0.
<mgrwt>
<rscale>  0 0.76752292E+03</rscale>
<asrwt>0</asrwt>
<pdfrwt beam="1">  1        2 0.28158461E+00 0.76752292E+03</pdfrwt>
<pdfrwt beam="2">  1       -2 0.67309931E-01 0.76752292E+03</pdfrwt>
<totfact> 0.17280633E+01</totfact>
</mgrwt>
</event>
<event>
 4    1  0.5387657E-008  0.4731924E+03  0.7818608E-02  0.1021023E+00
         -2   -1    0    0    0  501 -0.00000000000E+00  0.00000000000E+00  0.31952892991E+03  0.31952892992E+03  0.25500000000E-02 0.  1.
          2   -1    0    0  501    0  0.00000000000E+00 -0.00000000000E+00 -0.13961372825E+04  0.13961372825E+04  0.25500000000E-02 0. -1.
    8880022    1    1    2    0    0  0.44741889193E+03 -0.18322368943E+02 -0.11437161536E+04  0.12377389333E+04  0.15294330000E+03 0.  0.
    8880022    1    1    2    0    0 -0.44741889193E+03  0.18322368943E+02  0.67107801073E+02  0.47792727903E+03  0.15294330000E+03 0.  1.
<mgrwt>
<rscale>  0 0.47319238E+03</rscale>
<asrwt>0</asrwt>
<pdfrwt beam="1">  1        2 0.21479035E+00 0.47319238E+03</pdfrwt>
<pdfrwt beam="2">  1       -2 0.49158298E-01 0.47319238E+03</pdfrwt>
<totfact> 0.60108719E+01</totfact>
</mgrwt>
</event>
<event>
 4    1  0.5387657E-008  0.7517677E+03  0.7818608E-02  0.9632581E-01
          2   -1    0    0  501    0  0.00000000000E+00  0.00000000000E+00  0.11372739301E+04  0.11372739301E+04  0.25500000000E-02 0. -1.
         -2   -1    0    0    0  501 -0.00000000000E+00 -0.00000000000E+00 -0.52088786009E+03  0.52088786010E+03  0.25500000000E-02 0.  1.
    8880022    1    1    2    0    0 -0.59522271278E+03  0.43298145016E+03  0.48597021112E+03  0.89516574616E+03  0.15294330000E+03 0.  0.
    8880022    1    1    2    0    0  0.59522271278E+03 -0.43298145016E+03  0.13041585891E+03  0.76299604407E+03  0.15294330000E+03 0.  0.
<mgrwt>
<rscale>  0 0.75176769E+03</rscale>
<asrwt>0</asrwt>
<pdfrwt beam="1">  1        2 0.17496522E+00 0.75176769E+03</pdfrwt>
<pdfrwt beam="2">  1       -2 0.80136595E-01 0.75176769E+03</pdfrwt>
<totfact> 0.28962764E+01</totfact>
</mgrwt>
</event>
<event>
 4    1  0.5387657E-008  0.2014001E+03  0.7818608E-02  0.1148563E+00
          2   -1    0    0  501    0  0.00000000000E+00  0.00000000000E+00  0.16613726625E+04  0.16613726625E+04  0.25500000000E-02 0. -1.
         -2   -1    0    0    0  501 -0.00000000000E+00 -0.00000000000E+00 -0.84102947270E+02  0.84102947309E+02  0.25500000000E-02 0.  1.
    8880022    1    1    2    0    0  0.86328721990E+02 -0.98578357806E+02  0.15238635075E+04  0.15371148244E+04  0.15294330000E+03 0. -1.
    8880022    1    1    2    0    0 -0.86328721990E+02  0.98578357806E+02  0.53406207755E+02  0.20836078544E+03  0.15294330000E+03 0.  0.
<mgrwt>
<rscale>  0 0.20140008E+03</rscale>
<asrwt>0</asrwt>
<pdfrwt beam="1">  1        2 0.25559579E+00 0.20140008E+03</pdfrwt>
<pdfrwt beam="2">  1       -2 0.12938915E-01 0.20140008E+03</pdfrwt>
<totfact> 0.49699889E+02</totfact>
</mgrwt>
</event>
<event>
 4    1  0.5387657E-008  0.8648144E+03  0.7818608E-02  0.9470667E-01
         -2   -1    0    0    0  501 -0.00000000000E+00  0.00000000000E+00  0.50182082192E+03  0.50182082193E+03  0.25500000000E-02 0.  1.
          2   -1    0    0  501    0  0.00000000000E+00 -0.00000000000E+00 -0.19623579588E+04  0.19623579588E+04  0.25500000000E-02 0. -1.
    8880022    1    1    2    0    0  0.57392222858E+03 -0.62859009042E+03 -0.13345146072E+04  0.15902305229E+04  0.15294330000E+03 0.  0.
    8880022    1    1    2    0    0 -0.57392222858E+03  0.62859009042E+03 -0.12602252963E+03  0.87394825775E+03  0.15294330000E+03 0.  0.
<mgrwt>
<rscale>  0 0.86481436E+03</rscale>
<asrwt>0</asrwt>
<pdfrwt beam="1">  1        2 0.30190122E+00 0.86481436E+03</pdfrwt>
<pdfrwt beam="2">  1       -2 0.77203204E-01 0.86481436E+03</pdfrwt>
<totfact> 0.10686456E+01</totfact>
</mgrwt>
</event>
<event>
 4    1  0.5387657E-008  0.4444491E+03  0.7818608E-02  0.1029390E+00
          2   -1    0    0  501    0  0.00000000000E+00  0.00000000000E+00  0.41740640310E+03  0.41740640311E+03  0.25500000000E-02 0. -1.
         -2   -1    0    0    0  501 -0.00000000000E+00 -0.00000000000E+00 -0.38331993765E+04  0.38331993765E+04  0.25500000000E-02 0.  1.
    8880022    1    1    2    0    0  0.28733107111E+03  0.30262880473E+03  0.28189192044E+03  0.52630603806E+03  0.15294330000E+03 0.  0.
    8880022    1    1    2    0    0 -0.28733107111E+03 -0.30262880473E+03 -0.36976848939E+04  0.37242997416E+04  0.15294330000E+03 0.  1.
<mgrwt>
<rscale>  0 0.44444909E+03</rscale>
<asrwt>0</asrwt>
<pdfrwt beam="1">  1        2 0.64216372E-01 0.44444909E+03</pdfrwt>
<pdfrwt beam="2">  1       -2 0.58972296E+00 0.44444909E+03</pdfrwt>
<totfact> 0.46546629E-02</totfact>
</mgrwt>
</event>
<event>
 4    1  0.5387657E-008  0.5030359E+03  0.7818608E-02  0.1012990E+00
          2   -1    0    0  501    0  0.00000000000E+00  0.00000000000E+00  0.21469474986E+04  0.21469474986E+04  0.25500000000E-02 0. -1.
         -2   -1    0    0    0  501 -0.00000000000E+00 -0.00000000000E+00 -0.25586091288E+03  0.25586091289E+03  0.25500000000E-02 0.  1.
    8880022    1    1    2    0    0  0.23957262076E+03  0.41504021846E+03  0.18278587175E+04  0.18958144866E+04  0.15294330000E+03 0.  0.
    8880022    1    1    2    0    0 -0.23957262076E+03 -0.41504021846E+03  0.63227868271E+02  0.50699392491E+03  0.15294330000E+03 0.  0.
<mgrwt>
<rscale>  0 0.50303586E+03</rscale>
<asrwt>0</asrwt>
<pdfrwt beam="1">  1        2 0.33029961E+00 0.50303586E+03</pdfrwt>
<pdfrwt beam="2">  1       -2 0.39363218E-01 0.50303586E+03</pdfrwt>
<totfact> 0.36339712E+01</totfact>
</mgrwt>
</event>
<event>
 4    1  0.5387657E-008  0.7178746E+03  0.7818608E-02  0.9687143E-01
         -2   -1    0    0    0  501 -0.00000000000E+00  0.00000000000E+00  0.30148993317E+03  0.30148993318E+03  0.25500000000E-02 0.  1.
          2   -1    0    0  501    0  0.00000000000E+00 -0.00000000000E+00 -0.21877412830E+04  0.21877412830E+04  0.25500000000E-02 0. -1.
    8880022    1    1    2    0    0 -0.28776807500E+03  0.63964199932E+03 -0.15251493512E+04  0.16856525587E+04  0.15294330000E+03 0.  0.
    8880022    1    1    2    0    0  0.28776807500E+03 -0.63964199932E+03 -0.36110199864E+03  0.80357865746E+03  0.15294330000E+03 0.  0.
<mgrwt>
<rscale>  0 0.71787464E+03</rscale>
<asrwt>0</asrwt>
<pdfrwt beam="1">  1        2 0.33657557E+00 0.71787464E+03</pdfrwt>
<pdfrwt beam="2">  1       -2 0.46383068E-01 0.71787464E+03</pdfrwt>
<totfact> 0.24097841E+01</totfact>
</mgrwt>
</event>
<event>
 4    1  0.5387657E-008  0.3144070E+03  0.7818608E-02  0.1078253E+00
         -2   -1    0    0    0  501 -0.00000000000E+00  0.00000000000E+00  0.88096969077E+03  0.88096969078E+03  0.25500000000E-02 0.  1.
          2   -1    0    0  501    0  0.00000000000E+00 -0.00000000000E+00 -0.27929649138E+03  0.27929649139E+03  0.25500000000E-02 0. -1.
    8880022    1    1    2    0    0  0.54662493141E+02 -0.26920642985E+03 -0.14787605826E+03  0.34744650185E+03  0.15294330000E+03 0. -1.
    8880022    1    1    2    0    0 -0.54662493141E+02  0.26920642985E+03  0.74954925766E+03  0.81281968031E+03  0.15294330000E+03 0.  0.
<mgrwt>
<rscale>  0 0.31440697E+03</rscale>
<asrwt>0</asrwt>
<pdfrwt beam="1">  1        2 0.42968692E-01 0.31440697E+03</pdfrwt>
<pdfrwt beam="2">  1       -2 0.13553380E+00 0.31440697E+03</pdfrwt>
<totfact> 0.48712312E+01</totfact>
</mgrwt>
</event>
<event>
 4    1  0.5387657E-008  0.3482615E+03  0.7818608E-02  0.1063331E+00
         -2   -1    0    0    0  501 -0.00000000000E+00  0.00000000000E+00  0.50222101772E+03  0.50222101773E+03  0.25500000000E-02 0.  1.
          2   -1    0    0  501    0  0.00000000000E+00 -0.00000000000E+00 -0.15641577666E+04  0.15641577666E+04  0.25500000000E-02 0. -1.
    8880022    1    1    2    0    0 -0.16038255352E+03 -0.26864815774E+03  0.41911892125E+03  0.54492817811E+03  0.15294330000E+03 0.  1.
    8880022    1    1    2    0    0  0.16038255352E+03  0.26864815774E+03 -0.14810556702E+04  0.15214506062E+04  0.15294330000E+03 0.  0.
<mgrwt>
<rscale>  0 0.34826147E+03</rscale>
<asrwt>0</asrwt>
<pdfrwt beam="1">  1        2 0.24063965E+00 0.34826147E+03</pdfrwt>
<pdfrwt beam="2">  1       -2 0.77264773E-01 0.34826147E+03</pdfrwt>
<totfact> 0.19266480E+01</totfact>
</mgrwt>
</event>
<event>
 4    1  0.5387657E-008  0.9031058E+03  0.7818608E-02  0.9421707E-01
          2   -1    0    0  501    0  0.00000000000E+00  0.00000000000E+00  0.13084888491E+04  0.13084888491E+04  0.25500000000E-02 0. -1.
         -2   -1    0    0    0  501 -0.00000000000E+00 -0.00000000000E+00 -0.88896845846E+03  0.88896845847E+03  0.25500000000E-02 0.  1.
    8880022    1    1    2    0    0 -0.42884355615E+03  0.77993695368E+03  0.81038795876E+03  0.12133955431E+04  0.15294330000E+03 0.  0.
    8880022    1    1    2    0    0  0.42884355615E+03 -0.77993695368E+03 -0.39086756814E+03  0.98406176442E+03  0.15294330000E+03 0.  0.
<mgrwt>
<rscale>  0 0.90310581E+03</rscale>
<asrwt>0</asrwt>
<pdfrwt beam="1">  1        2 0.20130598E+00 0.90310581E+03</pdfrwt>
<pdfrwt beam="2">  1       -2 0.13676438E+00 0.90310581E+03</pdfrwt>
<totfact> 0.62534204E+00</totfact>
</mgrwt>
</event>
<event>
 4    1  0.5387657E-008  0.3978025E+03  0.7818608E-02  0.1044543E+00
          2   -1    0    0  501    0  0.00000000000E+00  0.00000000000E+00  0.12043686267E+04  0.12043686267E+04  0.25500000000E-02 0. -1.
         -2   -1    0    0    0  501 -0.00000000000E+00 -0.00000000000E+00 -0.22281436605E+03  0.22281436606E+03  0.25500000000E-02 0.  1.
    8880022    1    1    2    0    0  0.15602776589E+03 -0.33243117499E+03  0.33689397076E+02  0.39922647498E+03  0.15294330000E+03 0.  0.
    8880022    1    1    2    0    0 -0.15602776589E+03  0.33243117499E+03  0.94786486353E+03  0.10279565177E+04  0.15294330000E+03 0.  0.
<mgrwt>
<rscale>  0 0.39780247E+03</rscale>
<asrwt>0</asrwt>
<pdfrwt beam="1">  1        2 0.18528749E+00 0.39780247E+03</pdfrwt>
<pdfrwt beam="2">  1       -2 0.34279132E-01 0.39780247E+03</pdfrwt>
<totfact> 0.15724584E+02</totfact>
</mgrwt>
</event>
<event>
 4    1  0.5387657E-008  0.3843036E+03  0.7818608E-02  0.1049355E+00
          2   -1    0    0  501    0  0.00000000000E+00  0.00000000000E+00  0.23472923682E+03  0.23472923683E+03  0.25500000000E-02 0. -1.
         -2   -1    0    0    0  501 -0.00000000000E+00 -0.00000000000E+00 -0.22380593457E+04  0.22380593457E+04  0.25500000000E-02 0.  1.
    8880022    1    1    2    0    0 -0.29831700281E+03  0.18789504110E+03  0.46625353719E+02  0.38712163110E+03  0.15294330000E+03 0.  0.
    8880022    1    1    2    0    0  0.29831700281E+03 -0.18789504110E+03 -0.20499554626E+04  0.20856669514E+04  0.15294330000E+03 0.  1.
<mgrwt>
<rscale>  0 0.38430357E+03</rscale>
<asrwt>0</asrwt>
<pdfrwt beam="1">  1        2 0.36112192E-01 0.38430357E+03</pdfrwt>
<pdfrwt beam="2">  1       -2 0.34431681E+00 0.38430357E+03</pdfrwt>
<totfact> 0.27606774E+00</totfact>
</mgrwt>
</event>
<event>
 4    1  0.5387657E-008  0.6668840E+03  0.7818608E-02  0.9775603E-01
         -2   -1    0    0    0  501 -0.00000000000E+00  0.00000000000E+00  0.10177168398E+04  0.10177168398E+04  0.25500000000E-02 0.  1.
          2   -1    0    0  501    0  0.00000000000E+00 -0.00000000000E+00 -0.12440573118E+04  0.12440573118E+04  0.25500000000E-02 0. -1.
    8880022    1    1    2    0    0  0.26338830921E+03  0.59326998547E+03 -0.10240338027E+04  0.12220390989E+04  0.15294330000E+03 0.  0.
    8880022    1    1    2    0    0 -0.26338830921E+03 -0.59326998547E+03  0.79769333064E+03  0.10397350527E+04  0.15294330000E+03 0.  0.
<mgrwt>
<rscale>  0 0.66688405E+03</rscale>
<asrwt>0</asrwt>
<pdfrwt beam="1">  1        2 0.19139343E+00 0.66688405E+03</pdfrwt>
<pdfrwt beam="2">  1       -2 0.15657182E+00 0.66688405E+03</pdfrwt>
<totfact> 0.49333521E+00</totfact>
</mgrwt>
</event>
<event>
 4    1  0.5387657E-008  0.6279601E+03  0.7818608E-02  0.9849038E-01
          2   -1    0    0  501    0  0.00000000000E+00  0.00000000000E+00  0.18073122502E+04  0.18073122502E+04  0.25500000000E-02 0. -1.
         -2   -1    0    0    0  501 -0.00000000000E+00 -0.00000000000E+00 -0.28786044643E+03  0.28786044645E+03  0.25500000000E-02 0.  1.
    8880022    1    1    2    0    0 -0.60868782285E+03  0.21010172375E+02  0.24434396973E+03  0.67382336082E+03  0.15294330000E+03 0.  0.
    8880022    1    1    2    0    0  0.60868782285E+03 -0.21010172375E+02  0.12751078341E+04  0.14213493359E+04  0.15294330000E+03 0.  0.
<mgrwt>
<rscale>  0 0.62796015E+03</rscale>
<asrwt>0</asrwt>
<pdfrwt beam="1">  1        2 0.27804803E+00 0.62796015E+03</pdfrwt>
<pdfrwt beam="2">  1       -2 0.44286224E-01 0.62796015E+03</pdfrwt>
<totfact> 0.43136783E+01</totfact>
</mgrwt>
</event>
<event>
 4    1  0.5387657E-008  0.4616974E+03  0.7818608E-02  0.1024290E+00
          2   -1    0    0  501    0  0.00000000000E+00  0.00000000000E+00  0.12638172868E+04  0.12638172868E+04  0.25500000000E-02 0. -1.
         -2   -1    0    0    0  501 -0.00000000000E+00 -0.00000000000E+00 -0.46075942562E+03  0.46075942562E+03  0.25500000000E-02 0.  1.
    8880022    1    1    2    0    0  0.31079454453E+03  0.30525334059E+03  0.10880840626E+04  0.11819862229E+04  0.15294330000E+03 0.  0.
    8880022    1    1    2    0    0 -0.31079454453E+03 -0.30525334059E+03 -0.28502620138E+03  0.54259048954E+03  0.15294330000E+03 0.  0.
<mgrwt>
<rscale>  0 0.46169742E+03</rscale>
<asrwt>0</asrwt>
<pdfrwt beam="1">  1        2 0.19443342E+00 0.46169742E+03</pdfrwt>
<pdfrwt beam="2">  1       -2 0.70886067E-01 0.46169742E+03</pdfrwt>
<totfact> 0.33256690E+01</totfact>
</mgrwt>
</event>
<event>
 4    1  0.5387657E-008  0.1868798E+04  0.7818608E-02  0.8670545E-01
         -2   -1    0    0    0  501 -0.00000000000E+00  0.00000000000E+00  0.17958473734E+04  0.17958473734E+04  0.25500000000E-02 0.  1.
          2   -1    0    0  501    0  0.00000000000E+00 -0.00000000000E+00 -0.23784810895E+04  0.23784810895E+04  0.25500000000E-02 0. -1.
    8880022    1    1    2    0    0  0.46480153159E+02  0.18619492845E+04 -0.11826411064E+04  0.22115712022E+04  0.15294330000E+03 0.  0.
    8880022    1    1    2    0    0 -0.46480153159E+02 -0.18619492845E+04  0.60000739035E+03  0.19627572607E+04  0.15294330000E+03 0.  0.
<mgrwt>
<rscale>  0 0.18687983E+04</rscale>
<asrwt>0</asrwt>
<pdfrwt beam="1">  1        2 0.36592017E+00 0.18687983E+04</pdfrwt>
<pdfrwt beam="2">  1       -2 0.27628421E+00 0.18687983E+04</pdfrwt>
<totfact> 0.16331393E-01</totfact>
</mgrwt>
</event>
<event>
 4    1  0.5387657E-008  0.2786331E+03  0.7818608E-02  0.1096438E+00
         -2   -1    0    0    0  501 -0.00000000000E+00  0.00000000000E+00  0.47799801596E+03  0.47799801596E+03  0.25500000000E-02 0.  1.
          2   -1    0    0  501    0  0.00000000000E+00 -0.00000000000E+00 -0.28736103810E+04  0.28736103810E+04  0.25500000000E-02 0. -1.
    8880022    1    1    2    0    0 -0.19636520245E+03  0.12524149484E+03 -0.28255623508E+04  0.28392673308E+04  0.15294330000E+03 0.  0.
    8880022    1    1    2    0    0  0.19636520245E+03 -0.12524149484E+03  0.42994998576E+03  0.51234106612E+03  0.15294330000E+03 0.  1.
<mgrwt>
<rscale>  0 0.27863305E+03</rscale>
<asrwt>0</asrwt>
<pdfrwt beam="1">  1        2 0.44209390E+00 0.27863305E+03</pdfrwt>
<pdfrwt beam="2">  1       -2 0.73538158E-01 0.27863305E+03</pdfrwt>
<totfact> 0.42935729E+00</totfact>
</mgrwt>
</event>
<event>
 4    1  0.5387657E-008  0.3554768E+03  0.7818608E-02  0.1060389E+00
         -2   -1    0    0    0  501 -0.00000000000E+00  0.00000000000E+00  0.68168795067E+02  0.68168795114E+02  0.25500000000E-02 0.  1.
          2   -1    0    0  501    0  0.00000000000E+00 -0.00000000000E+00 -0.28784128854E+04  0.28784128854E+04  0.25500000000E-02 0. -1.
    8880022    1    1    2    0    0 -0.29051245737E+03 -0.13628878576E+03 -0.22841754998E+04  0.23116707135E+04  0.15294330000E+03 0.  0.
    8880022    1    1    2    0    0  0.29051245737E+03  0.13628878576E+03 -0.52606859056E+03  0.63491096699E+03  0.15294330000E+03 0.  0.
<mgrwt>
<rscale>  0 0.35547683E+03</rscale>
<asrwt>0</asrwt>
<pdfrwt beam="1">  1        2 0.44283266E+00 0.35547683E+03</pdfrwt>
<pdfrwt beam="2">  1       -2 0.10487509E-01 0.35547683E+03</pdfrwt>
<totfact> 0.14771109E+02</totfact>
</mgrwt>
</event>
<event>
 4    1  0.5387657E-008  0.4309552E+03  0.7818608E-02  0.1033559E+00
         -2   -1    0    0    0  501 -0.00000000000E+00  0.00000000000E+00  0.58020235587E+03  0.58020235588E+03  0.25500000000E-02 0.  1.
          2   -1    0    0  501    0  0.00000000000E+00 -0.00000000000E+00 -0.13541032918E+04  0.13541032918E+04  0.25500000000E-02 0. -1.
    8880022    1    1    2    0    0  0.34293074537E+03  0.21149288706E+03 -0.12320936783E+04  0.13052881760E+04  0.15294330000E+03 0.  0.
    8880022    1    1    2    0    0 -0.34293074537E+03 -0.21149288706E+03  0.45819274239E+03  0.62901747162E+03  0.15294330000E+03 0.  1.
<mgrwt>
<rscale>  0 0.43095521E+03</rscale>
<asrwt>0</asrwt>
<pdfrwt beam="1">  1        2 0.20832358E+00 0.43095521E+03</pdfrwt>
<pdfrwt beam="2">  1       -2 0.89261901E-01 0.43095521E+03</pdfrwt>
<totfact> 0.17797704E+01</totfact>
</mgrwt>
</event>
<event>
 4    1  0.5387657E-008  0.2287670E+03  0.7818608E-02  0.1127511E+00
          2   -1    0    0  501    0  0.00000000000E+00  0.00000000000E+00  0.51101521982E+03  0.51101521983E+03  0.25500000000E-02 0. -1.
         -2   -1    0    0    0  501 -0.00000000000E+00 -0.00000000000E+00 -0.16888834878E+03  0.16888834880E+03  0.25500000000E-02 0.  1.
    8880022    1    1    2    0    0  0.86717805666E+02 -0.14636499481E+03 -0.42216229138E+02  0.23262964674E+03  0.15294330000E+03 0.  0.
    8880022    1    1    2    0    0 -0.86717805666E+02  0.14636499481E+03  0.38434310018E+03  0.44727392188E+03  0.15294330000E+03 0.  0.
<mgrwt>
<rscale>  0 0.22876700E+03</rscale>
<asrwt>0</asrwt>
<pdfrwt beam="1">  1        2 0.78617726E-01 0.22876700E+03</pdfrwt>
<pdfrwt beam="2">  1       -2 0.25982823E-01 0.22876700E+03</pdfrwt>
<totfact> 0.80803436E+02</totfact>
</mgrwt>
</event>
<event>
 4    1  0.5589375E-008  0.4990759E+03  0.7818608E-02  0.1014020E+00
          2   -1    0    0  501    0  0.00000000000E+00  0.00000000000E+00  0.11921254115E+04  0.11921254115E+04  0.25500000000E-02 0. -1.
         -2   -1    0    0    0  501 -0.00000000000E+00 -0.00000000000E+00 -0.12371426526E+04  0.12371426526E+04  0.25500000000E-02 0.  1.
    8880022    1    1    2    0    0  0.22194395174E+03 -0.42003097595E+03 -0.11298357975E+04  0.12351541283E+04  0.15294330000E+03 0.  0.
    8880022    1    1    2    0    0 -0.22194395174E+03  0.42003097595E+03  0.10848185563E+04  0.11941139358E+04  0.15294330000E+03 0.  0.
<mgrwt>
<rscale>  0 0.49907594E+03</rscale>
<asrwt>0</asrwt>
<pdfrwt beam="1">  1        2 0.18340391E+00 0.49907594E+03</pdfrwt>
<pdfrwt beam="2">  1       -2 0.19032964E+00 0.49907594E+03</pdfrwt>
<totfact> 0.31770509E+00</totfact>
</mgrwt>
</event>
<event>
 4    1  0.5387657E-008  0.7118304E+03  0.7818608E-02  0.9697212E-01
         -2   -1    0    0    0  501 -0.00000000000E+00  0.00000000000E+00  0.68082833489E+03  0.68082833490E+03  0.25500000000E-02 0.  1.
          2   -1    0    0  501    0  0.00000000000E+00 -0.00000000000E+00 -0.12125002742E+04  0.12125002742E+04  0.25500000000E-02 0. -1.
    8880022    1    1    2    0    0  0.11362625254E+03  0.68585706564E+03 -0.85413322282E+03  0.11118660239E+04  0.15294330000E+03 0.  0.
    8880022    1    1    2    0    0 -0.11362625254E+03 -0.68585706564E+03  0.32246128349E+03  0.78146258523E+03  0.15294330000E+03 0.  0.
<mgrwt>
<rscale>  0 0.71183038E+03</rscale>
<asrwt>0</asrwt>
<pdfrwt beam="1">  1        2 0.18653850E+00 0.71183038E+03</pdfrwt>
<pdfrwt beam="2">  1       -2 0.10474282E+00 0.71183038E+03</pdfrwt>
<totfact> 0.14102435E+01</totfact>
</mgrwt>
</event>
<event>
 4    1  0.5387657E-008  0.5272049E+03  0.7818608E-02  0.1006912E+00
         -2   -1    0    0    0  501 -0.00000000000E+00  0.00000000000E+00  0.51233532342E+03  0.51233532343E+03  0.25500000000E-02 0.  1.
          2   -1    0    0  501    0  0.00000000000E+00 -0.00000000000E+00 -0.14261957350E+04  0.14261957350E+04  0.25500000000E-02 0. -1.
    8880022    1    1    2    0    0  0.31102940008E+03  0.39725818334E+03 -0.12198925388E+04  0.13289404844E+04  0.15294330000E+03 0.  0.
    8880022    1    1    2    0    0 -0.31102940008E+03 -0.39725818334E+03  0.30603212725E+03  0.60959057397E+03  0.15294330000E+03 0.  0.
<mgrwt>
<rscale>  0 0.52720490E+03</rscale>
<asrwt>0</asrwt>
<pdfrwt beam="1">  1        2 0.21941473E+00 0.52720490E+03</pdfrwt>
<pdfrwt beam="2">  1       -2 0.78820819E-01 0.52720490E+03</pdfrwt>
<totfact> 0.21091415E+01</totfact>
</mgrwt>
</event>
<event>
 4    1  0.5387657E-008  0.7850700E+03  0.7818608E-02  0.9581883E-01
          2   -1    0    0  501    0  0.00000000000E+00  0.00000000000E+00  0.12759620109E+04  0.12759620109E+04  0.25500000000E-02 0. -1.
         -2   -1    0    0    0  501 -0.00000000000E+00 -0.00000000000E+00 -0.81731143169E+03  0.81731143169E+03  0.25500000000E-02 0.  1.
    8880022    1    1    2    0    0 -0.71636597156E+03  0.28242352355E+03  0.89867758504E+03  0.11932964036E+04  0.15294330000E+03 0.  0.
    8880022    1    1    2    0    0  0.71636597156E+03 -0.28242352355E+03 -0.44002700585E+03  0.89997703902E+03  0.15294330000E+03 0.  0.
<mgrwt>
<rscale>  0 0.78507000E+03</rscale>
<asrwt>0</asrwt>
<pdfrwt beam="1">  1        2 0.19630185E+00 0.78507000E+03</pdfrwt>
<pdfrwt beam="2">  1       -2 0.12574022E+00 0.78507000E+03</pdfrwt>
<totfact> 0.82009584E+00</totfact>
</mgrwt>
</event>
<event>
 4    1  0.5387657E-008  0.6601021E+03  0.7818608E-02  0.9788006E-01
          2   -1    0    0  501    0  0.00000000000E+00  0.00000000000E+00  0.16946736680E+04  0.16946736680E+04  0.25500000000E-02 0. -1.
         -2   -1    0    0    0  501 -0.00000000000E+00 -0.00000000000E+00 -0.26675011467E+03  0.26675011468E+03  0.25500000000E-02 0.  1.
    8880022    1    1    2    0    0 -0.45679017588E+03  0.45131576169E+03  0.90029930301E+03  0.11163662793E+04  0.15294330000E+03 0.  0.
    8880022    1    1    2    0    0  0.45679017588E+03 -0.45131576169E+03  0.52762425035E+03  0.84505750343E+03  0.15294330000E+03 0.  0.
<mgrwt>
<rscale>  0 0.66010214E+03</rscale>
<asrwt>0</asrwt>
<pdfrwt beam="1">  1        2 0.26071903E+00 0.66010214E+03</pdfrwt>
<pdfrwt beam="2">  1       -2 0.41038479E-01 0.66010214E+03</pdfrwt>
<totfact> 0.57457429E+01</totfact>
</mgrwt>
</event>
<event>
 4    1  0.5387657E-008  0.8823935E+03  0.7818608E-02  0.9447862E-01
         -2   -1    0    0    0  501 -0.00000000000E+00  0.00000000000E+00  0.90802135993E+03  0.90802135994E+03  0.25500000000E-02 0.  1.
          2   -1    0    0  501    0  0.00000000000E+00 -0.00000000000E+00 -0.88299459835E+03  0.88299459835E+03  0.25500000000E-02 0. -1.
    8880022    1    1    2    0    0 -0.80172885799E+03  0.33534691239E+03 -0.13968422960E+03  0.89338124583E+03  0.15294330000E+03 0.  0.
    8880022    1    1    2    0    0  0.80172885799E+03 -0.33534691239E+03  0.16471099119E+03  0.89763471246E+03  0.15294330000E+03 0.  0.
<mgrwt>
<rscale>  0 0.88239354E+03</rscale>
<asrwt>0</asrwt>
<pdfrwt beam="1">  1        2 0.13584532E+00 0.88239354E+03</pdfrwt>
<pdfrwt beam="2">  1       -2 0.13969559E+00 0.88239354E+03</pdfrwt>
<totfact> 0.10903751E+01</totfact>
</mgrwt>
</event>
<event>
 4    1  0.5387657E-008  0.3445068E+03  0.7818608E-02  0.1064893E+00
          2   -1    0    0  501    0  0.00000000000E+00  0.00000000000E+00  0.70582598388E+03  0.70582598388E+03  0.25500000000E-02 0. -1.
         -2   -1    0    0    0  501 -0.00000000000E+00 -0.00000000000E+00 -0.29430165144E+03  0.29430165146E+03  0.25500000000E-02 0.  1.
    8880022    1    1    2    0    0 -0.23607454149E+03  0.19890214913E+03  0.53315931984E+03  0.63477851840E+03  0.15294330000E+03 0.  0.
    8880022    1    1    2    0    0  0.23607454149E+03 -0.19890214913E+03 -0.12163498741E+03  0.36534911694E+03  0.15294330000E+03 0.  1.
<mgrwt>
<rscale>  0 0.34450676E+03</rscale>
<asrwt>0</asrwt>
<pdfrwt beam="1">  1        2 0.10858861E+00 0.34450676E+03</pdfrwt>
<pdfrwt beam="2">  1       -2 0.45277177E-01 0.34450676E+03</pdfrwt>
<totfact> 0.19469004E+02</totfact>
</mgrwt>
</event>
<event>
 4    1  0.5387657E-008  0.6208545E+03  0.7818608E-02  0.9863060E-01
          2   -1    0    0  501    0  0.00000000000E+00  0.00000000000E+00  0.10362254140E+04  0.10362254140E+04  0.25500000000E-02 0. -1.
         -2   -1    0    0    0  501 -0.00000000000E+00 -0.00000000000E+00 -0.71106224166E+03  0.71106224166E+03  0.25500000000E-02 0.  1.
    8880022    1    1    2    0    0 -0.12013607489E+03 -0.58960665129E+03  0.76587684361E+03  0.98591463745E+03  0.15294330000E+03 0.  0.
    8880022    1    1    2    0    0  0.12013607489E+03  0.58960665129E+03 -0.44071367130E+03  0.76137301819E+03  0.15294330000E+03 0.  0.
<mgrwt>
<rscale>  0 0.62085452E+03</rscale>
<asrwt>0</asrwt>
<pdfrwt beam="1">  1        2 0.15941929E+00 0.62085452E+03</pdfrwt>
<pdfrwt beam="2">  1       -2 0.10939419E+00 0.62085452E+03</pdfrwt>
<totfact> 0.16430703E+01</totfact>
</mgrwt>
</event>
<event>
 4    1  0.5387657E-008  0.4457155E+03  0.7818608E-02  0.1029007E+00
         -2   -1    0    0    0  501 -0.00000000000E+00  0.00000000000E+00  0.20784786535E+03  0.20784786537E+03  0.25500000000E-02 0.  1.
          2   -1    0    0  501    0  0.00000000000E+00 -0.00000000000E+00 -0.12849123523E+04  0.12849123523E+04  0.25500000000E-02 0. -1.
    8880022    1    1    2    0    0 -0.29181347052E+02 -0.41763516351E+03 -0.91627063720E+03  0.10189279731E+04  0.15294330000E+03 0.  0.
    8880022    1    1    2    0    0  0.29181347052E+02  0.41763516351E+03 -0.16079384972E+03  0.47383224451E+03  0.15294330000E+03 0.  0.
<mgrwt>
<rscale>  0 0.44571553E+03</rscale>
<asrwt>0</asrwt>
<pdfrwt beam="1">  1        2 0.19767882E+00 0.44571553E+03</pdfrwt>
<pdfrwt beam="2">  1       -2 0.31976596E-01 0.44571553E+03</pdfrwt>
<totfact> 0.16003768E+02</totfact>
</mgrwt>
</event>
<event>
 4    1  0.5387657E-008  0.6125101E+03  0.7818608E-02  0.9879786E-01
          2   -1    0    0  501    0  0.00000000000E+00  0.00000000000E+00  0.25775660407E+04  0.25775660407E+04  0.25500000000E-02 0. -1.
         -2   -1    0    0    0  501 -0.00000000000E+00 -0.00000000000E+00 -0.33638686796E+03  0.33638686797E+03  0.25500000000E-02 0.  1.
    8880022    1    1    2    0    0 -0.26985026748E+03  0.52816458502E+03  0.22179832042E+04  0.23010037251E+04  0.15294330000E+03 0.  0.
    8880022    1    1    2    0    0  0.26985026748E+03 -0.52816458502E+03  0.23195968583E+02  0.61294918362E+03  0.15294330000E+03 0.  0.
<mgrwt>
<rscale>  0 0.61251012E+03</rscale>
<asrwt>0</asrwt>
<pdfrwt beam="1">  1        2 0.39654862E+00 0.61251012E+03</pdfrwt>
<pdfrwt beam="2">  1       -2 0.51751826E-01 0.61251012E+03</pdfrwt>
<totfact> 0.11914499E+01</totfact>
</mgrwt>
</event>
<event>
 4    1  0.5387657E-008  0.7924541E+03  0.7818608E-02  0.9571004E-01
          2   -1    0    0  501    0  0.00000000000E+00  0.00000000000E+00  0.14725378687E+04  0.14725378687E+04  0.25500000000E-02 0. -1.
         -2   -1    0    0    0  501 -0.00000000000E+00 -0.00000000000E+00 -0.63907583178E+03  0.63907583178E+03  0.25500000000E-02 0.  1.
    8880022    1    1    2    0    0  0.77065432343E+03  0.10336246894E+03 -0.19224835483E+03  0.81544035291E+03  0.15294330000E+03 0.  0.
    8880022    1    1    2    0    0 -0.77065432343E+03 -0.10336246894E+03  0.10257103918E+04  0.12961733476E+04  0.15294330000E+03 0.  0.
<mgrwt>
<rscale>  0 0.79245412E+03</rscale>
<asrwt>0</asrwt>
<pdfrwt beam="1">  1        2 0.22654428E+00 0.79245412E+03</pdfrwt>
<pdfrwt beam="2">  1       -2 0.98319360E-01 0.79245412E+03</pdfrwt>
<totfact> 0.11520762E+01</totfact>
</mgrwt>
</event>
<event>
 4    1  0.5387657E-008  0.4243557E+03  0.7818608E-02  0.1035658E+00
         -2   -1    0    0    0  501 -0.00000000000E+00  0.00000000000E+00  0.15328580911E+03  0.15328580913E+03  0.25500000000E-02 0.  1.
          2   -1    0    0  501    0  0.00000000000E+00 -0.00000000000E+00 -0.20436293882E+04  0.20436293882E+04  0.25500000000E-02 0. -1.
    8880022    1    1    2    0    0 -0.21645046016E+03  0.33141412649E+03 -0.16614032226E+04  0.17147415100E+04  0.15294330000E+03 0.  0.
    8880022    1    1    2    0    0  0.21645046016E+03 -0.33141412649E+03 -0.22894035650E+03  0.48217368737E+03  0.15294330000E+03 0.  0.
<mgrwt>
<rscale>  0 0.42435572E+03</rscale>
<asrwt>0</asrwt>
<pdfrwt beam="1">  1        2 0.31440450E+00 0.42435572E+03</pdfrwt>
<pdfrwt beam="2">  1       -2 0.23582434E-01 0.42435572E+03</pdfrwt>
<totfact> 0.10810137E+02</totfact>
</mgrwt>
</event>
<event>
 4    1  0.5387657E-008  0.4069744E+03  0.7818608E-02  0.1041391E+00
          2   -1    0    0  501    0  0.00000000000E+00  0.00000000000E+00  0.91672269915E+03  0.91672269916E+03  0.25500000000E-02 0. -1.
         -2   -1    0    0    0  501 -0.00000000000E+00 -0.00000000000E+00 -0.51040132640E+03  0.51040132640E+03  0.25500000000E-02 0.  1.
    8880022    1    1    2    0    0  0.62217651571E+02 -0.37197508962E+03  0.77668674065E+03  0.87685258144E+03  0.15294330000E+03 0. -1.
    8880022    1    1    2    0    0 -0.62217651571E+02  0.37197508962E+03 -0.37036536790E+03  0.55027144412E+03  0.15294330000E+03 0.  0.
<mgrwt>
<rscale>  0 0.40697439E+03</rscale>
<asrwt>0</asrwt>
<pdfrwt beam="1">  1        2 0.14103426E+00 0.40697439E+03</pdfrwt>
<pdfrwt beam="2">  1       -2 0.78523281E-01 0.40697439E+03</pdfrwt>
<totfact> 0.43494004E+01</totfact>
</mgrwt>
</event>
<event>
 4    1  0.5387657E-008  0.2454591E+03  0.7818608E-02  0.1116209E+00
          2   -1    0    0  501    0  0.00000000000E+00  0.00000000000E+00  0.21988895359E+04  0.21988895359E+04  0.25500000000E-02 0. -1.
         -2   -1    0    0    0  501 -0.00000000000E+00 -0.00000000000E+00 -0.85579487538E+02  0.85579487576E+02  0.25500000000E-02 0.  1.
    8880022    1    1    2    0    0  0.92895508300E+02 -0.16801466339E+03  0.19984457176E+04  0.20134635437E+04  0.15294330000E+03 0.  0.
    8880022    1    1    2    0    0 -0.92895508300E+02  0.16801466339E+03  0.11486433076E+03  0.27100547978E+03  0.15294330000E+03 0.  0.
<mgrwt>
<rscale>  0 0.24545907E+03</rscale>
<asrwt>0</asrwt>
<pdfrwt beam="1">  1        2 0.33829066E+00 0.24545907E+03</pdfrwt>
<pdfrwt beam="2">  1       -2 0.13166076E-01 0.24545907E+03</pdfrwt>
<totfact> 0.25023150E+02</totfact>
</mgrwt>
</event>
<event>
 4    1  0.5387657E-008  0.9815685E+03  0.7818608E-02  0.9328994E-01
         -2   -1    0    0    0  501 -0.00000000000E+00  0.00000000000E+00  0.10207120064E+04  0.10207120064E+04  0.25500000000E-02 0.  1.
          2   -1    0    0  501    0  0.00000000000E+00 -0.00000000000E+00 -0.10987773126E+04  0.10987773126E+04  0.25500000000E-02 0. -1.
    8880022    1    1    2    0    0  0.73716037129E+03 -0.62982505764E+03 -0.43686834845E+03  0.10743977956E+04  0.15294330000E+03 0.  0.
    8880022    1    1    2    0    0 -0.73716037129E+03  0.62982505764E+03  0.35880304230E+03  0.10450915235E+04  0.15294330000E+03 0.  0.
<mgrwt>
<rscale>  0 0.98156847E+03</rscale>
<asrwt>0</asrwt>
<pdfrwt beam="1">  1        2 0.16904266E+00 0.98156847E+03</pdfrwt>
<pdfrwt beam="2">  1       -2 0.15703262E+00 0.98156847E+03</pdfrwt>
<totfact> 0.57435901E+00</totfact>
</mgrwt>
</event>
<event>
 4    1  0.5387657E-008  0.7071584E+03  0.7818608E-02  0.9705068E-01
         -2   -1    0    0    0  501 -0.00000000000E+00  0.00000000000E+00  0.86416297246E+03  0.86416297247E+03  0.25500000000E-02 0.  1.
          2   -1    0    0  501    0  0.00000000000E+00 -0.00000000000E+00 -0.80240259449E+03  0.80240259449E+03  0.25500000000E-02 0. -1.
    8880022    1    1    2    0    0 -0.73706177801E+02  0.68647559398E+03 -0.40911923429E+03  0.81697707596E+03  0.15294330000E+03 0.  0.
    8880022    1    1    2    0    0  0.73706177801E+02 -0.68647559398E+03  0.47087961226E+03  0.84958849099E+03  0.15294330000E+03 0.  0.
<mgrwt>
<rscale>  0 0.70715839E+03</rscale>
<asrwt>0</asrwt>
<pdfrwt beam="1">  1        2 0.12344655E+00 0.70715839E+03</pdfrwt>
<pdfrwt beam="2">  1       -2 0.13294815E+00 0.70715839E+03</pdfrwt>
<totfact> 0.14355005E+01</totfact>
</mgrwt>
</event>
<event>
 4    1  0.5387657E-008  0.4315258E+03  0.7818608E-02  0.1033379E+00
          2   -1    0    0  501    0  0.00000000000E+00  0.00000000000E+00  0.33634223732E+04  0.33634223732E+04  0.25500000000E-02 0. -1.
         -2   -1    0    0    0  501 -0.00000000000E+00 -0.00000000000E+00 -0.83888040554E+02  0.83888040593E+02  0.25500000000E-02 0.  1.
    8880022    1    1    2    0    0  0.32837994069E+03 -0.23449842216E+03  0.63468563331E+03  0.76748967523E+03  0.15294330000E+03 0.  0.
    8880022    1    1    2    0    0 -0.32837994069E+03  0.23449842216E+03  0.26448486993E+04  0.26798207386E+04  0.15294330000E+03 0.  0.
<mgrwt>
<rscale>  0 0.43152584E+03</rscale>
<asrwt>0</asrwt>
<pdfrwt beam="1">  1        2 0.51744964E+00 0.43152584E+03</pdfrwt>
<pdfrwt beam="2">  1       -2 0.12905851E-01 0.43152584E+03</pdfrwt>
<totfact> 0.51930358E+01</totfact>
</mgrwt>
</event>
<event>
 4    1  0.5387657E-008  0.4903093E+03  0.7818608E-02  0.1016340E+00
         -2   -1    0    0    0  501 -0.00000000000E+00  0.00000000000E+00  0.75228801494E+03  0.75228801495E+03  0.25500000000E-02 0.  1.
          2   -1    0    0  501    0  0.00000000000E+00 -0.00000000000E+00 -0.64345893247E+03  0.64345893247E+03  0.25500000000E-02 0. -1.
    8880022    1    1    2    0    0  0.22558303221E+03  0.40758296714E+03 -0.44071539318E+03  0.65926723741E+03  0.15294330000E+03 0.  0.
    8880022    1    1    2    0    0 -0.22558303221E+03 -0.40758296714E+03  0.54954447565E+03  0.73647971001E+03  0.15294330000E+03 0.  0.
<mgrwt>
<rscale>  0 0.49030932E+03</rscale>
<asrwt>0</asrwt>
<pdfrwt beam="1">  1        2 0.98993682E-01 0.49030932E+03</pdfrwt>
<pdfrwt beam="2">  1       -2 0.11573662E+00 0.49030932E+03</pdfrwt>
<totfact> 0.27514947E+01</totfact>
</mgrwt>
</event>
<event>
 4    1  0.5387657E-008  0.4067323E+03  0.7818608E-02  0.1041473E+00
         -2   -1    0    0    0  501 -0.00000000000E+00  0.00000000000E+00  0.13499017308E+03  0.13499017311E+03  0.25500000000E-02 0.  1.
          2   -1    0    0  501    0  0.00000000000E+00 -0.00000000000E+00 -0.20484081681E+04  0.20484081681E+04  0.25500000000E-02 0. -1.
    8880022    1    1    2    0    0 -0.37379339131E+03  0.48145524585E+02 -0.16486500135E+04  0.16980806844E+04  0.15294330000E+03 0.  0.
    8880022    1    1    2    0    0  0.37379339131E+03 -0.48145524585E+02 -0.26476798159E+03  0.48531765682E+03  0.15294330000E+03 0.  0.
<mgrwt>
<rscale>  0 0.40673228E+03</rscale>
<asrwt>0</asrwt>
<pdfrwt beam="1">  1        2 0.31513970E+00 0.40673228E+03</pdfrwt>
<pdfrwt beam="2">  1       -2 0.20767720E-01 0.40673228E+03</pdfrwt>
<totfact> 0.13476916E+02</totfact>
</mgrwt>
</event>
<event>
 4    1  0.5387657E-008  0.7390125E+03  0.7818608E-02  0.9652747E-01
         -2   -1    0    0    0  501 -0.00000000000E+00  0.00000000000E+00  0.58528449259E+03  0.58528449259E+03  0.25500000000E-02 0.  1.
          2   -1    0    0  501    0  0.00000000000E+00 -0.00000000000E+00 -0.14189315826E+04  0.14189315826E+04  0.25500000000E-02 0. -1.
    8880022    1    1    2    0    0 -0.19011174004E+03  0.69757098642E+03 -0.10031894516E+04  0.12460050095E+04  0.15294330000E+03 0.  0.
    8880022    1    1    2    0    0  0.19011174004E+03 -0.69757098642E+03  0.16954236159E+03  0.75821106572E+03  0.15294330000E+03 0.  0.
<mgrwt>
<rscale>  0 0.73901245E+03</rscale>
<asrwt>0</asrwt>
<pdfrwt beam="1">  1        2 0.21829717E+00 0.73901245E+03</pdfrwt>
<pdfrwt beam="2">  1       -2 0.90043769E-01 0.73901245E+03</pdfrwt>
<totfact> 0.15260396E+01</totfact>
</mgrwt>
</event>
<event>
 4    1  0.5387657E-008  0.3594867E+03  0.7818608E-02  0.1058787E+00
          2   -1    0    0  501    0  0.00000000000E+00  0.00000000000E+00  0.10657185231E+04  0.10657185231E+04  0.25500000000E-02 0. -1.
         -2   -1    0    0    0  501 -0.00000000000E+00 -0.00000000000E+00 -0.27242489172E+03  0.27242489173E+03  0.25500000000E-02 0.  1.
    8880022    1    1    2    0    0 -0.32150318363E+03  0.49746563679E+02 -0.10174686449E+03  0.37360821074E+03  0.15294330000E+03 0.  1.
    8880022    1    1    2    0    0  0.32150318363E+03 -0.49746563679E+02  0.89504049585E+03  0.96453520408E+03  0.15294330000E+03 0.  0.
<mgrwt>
<rscale>  0 0.35948668E+03</rscale>
<asrwt>0</asrwt>
<pdfrwt beam="1">  1        2 0.16395670E+00 0.35948668E+03</pdfrwt>
<pdfrwt beam="2">  1       -2 0.41911522E-01 0.35948668E+03</pdfrwt>
<totfact> 0.12999567E+02</totfact>
</mgrwt>
</event>
<event>
 4    1  0.5387657E-008  0.3651706E+03  0.7818608E-02  0.1056555E+00
          2   -1    0    0  501    0  0.00000000000E+00  0.00000000000E+00  0.32244159860E+03  0.32244159861E+03  0.25500000000E-02 0. -1.
         -2   -1    0    0    0  501 -0.00000000000E+00 -0.00000000000E+00 -0.71491013775E+03  0.71491013775E+03  0.25500000000E-02 0.  1.
    8880022    1    1    2    0    0  0.56615231798E+02  0.32673017065E+03  0.14051346567E+03  0.39127174181E+03  0.15294330000E+03 0.  0.
    8880022    1    1    2    0    0 -0.56615231798E+02 -0.32673017065E+03 -0.53298200482E+03  0.64607999456E+03  0.15294330000E+03 0.  0.
<mgrwt>
<rscale>  0 0.36517057E+03</rscale>
<asrwt>0</asrwt>
<pdfrwt beam="1">  1        2 0.49606400E-01 0.36517057E+03</pdfrwt>
<pdfrwt beam="2">  1       -2 0.10998617E+00 0.36517057E+03</pdfrwt>
<totfact> 0.69149297E+01</totfact>
</mgrwt>
</event>
<event>
 4    1  0.6405470E-008  0.7023424E+03  0.7818608E-02  0.9713235E-01
         -2   -1    0    0    0  501 -0.00000000000E+00  0.00000000000E+00  0.88641746882E+03  0.88641746882E+03  0.25500000000E-02 0.  1.
          2   -1    0    0  501    0  0.00000000000E+00 -0.00000000000E+00 -0.18169934961E+04  0.18169934961E+04  0.25500000000E-02 0. -1.
    8880022    1    1    2    0    0  0.62864377777E+03 -0.27331339276E+03  0.66055269659E+03  0.96416530116E+03  0.15294330000E+03 0.  0.
    8880022    1    1    2    0    0 -0.62864377777E+03  0.27331339276E+03 -0.15911287239E+04  0.17392456638E+04  0.15294330000E+03 0.  0.
<mgrwt>
<rscale>  0 0.70234241E+03</rscale>
<asrwt>0</asrwt>
<pdfrwt beam="1">  1        2 0.27953746E+00 0.70234241E+03</pdfrwt>
<pdfrwt beam="2">  1       -2 0.13637192E+00 0.70234241E+03</pdfrwt>
<totfact> 0.33796454E+00</totfact>
</mgrwt>
</event>
<event>
 4    1  0.5387657E-008  0.2618354E+03  0.7818608E-02  0.1106046E+00
         -2   -1    0    0    0  501 -0.00000000000E+00  0.00000000000E+00  0.58918020103E+03  0.58918020104E+03  0.25500000000E-02 0.  1.
          2   -1    0    0  501    0  0.00000000000E+00 -0.00000000000E+00 -0.43549713789E+03  0.43549713790E+03  0.25500000000E-02 0. -1.
    8880022    1    1    2    0    0 -0.20799581328E+03 -0.43633065249E+02  0.51542503573E+03  0.57811826057E+03  0.15294330000E+03 0.  0.
    8880022    1    1    2    0    0  0.20799581328E+03  0.43633065249E+02 -0.36174197259E+03  0.44655907837E+03  0.15294330000E+03 0. -1.
<mgrwt>
<rscale>  0 0.26183536E+03</rscale>
<asrwt>0</asrwt>
<pdfrwt beam="1">  1        2 0.66999559E-01 0.26183536E+03</pdfrwt>
<pdfrwt beam="2">  1       -2 0.90643108E-01 0.26183536E+03</pdfrwt>
<totfact> 0.79137451E+01</totfact>
</mgrwt>
</event>
<event>
 4    1  0.5387657E-008  0.2004319E+03  0.7818608E-02  0.1149375E+00
          2   -1    0    0  501    0  0.00000000000E+00  0.00000000000E+00  0.49747615516E+03  0.49747615517E+03  0.25500000000E-02 0. -1.
         -2   -1    0    0    0  501 -0.00000000000E+00 -0.00000000000E+00 -0.24663341740E+03  0.24663341742E+03  0.25500000000E-02 0.  1.
    8880022    1    1    2    0    0  0.10261655622E+03 -0.79063999659E+02 -0.17970369104E+03  0.26919573407E+03  0.15294330000E+03 0.  1.
    8880022    1    1    2    0    0 -0.10261655622E+03  0.79063999659E+02  0.43054642880E+03  0.47491383852E+03  0.15294330000E+03 0.  0.
<mgrwt>
<rscale>  0 0.20043185E+03</rscale>
<asrwt>0</asrwt>
<pdfrwt beam="1">  1        2 0.76534793E-01 0.20043185E+03</pdfrwt>
<pdfrwt beam="2">  1       -2 0.37943603E-01 0.20043185E+03</pdfrwt>
<totfact> 0.41661750E+02</totfact>
</mgrwt>
</event>
<event>
 4    1  0.5387657E-008  0.5355208E+03  0.7818608E-02  0.1004902E+00
         -2   -1    0    0    0  501 -0.00000000000E+00  0.00000000000E+00  0.82955437375E+03  0.82955437376E+03  0.25500000000E-02 0.  1.
          2   -1    0    0  501    0  0.00000000000E+00 -0.00000000000E+00 -0.95649521325E+03  0.95649521326E+03  0.25500000000E-02 0. -1.
    8880022    1    1    2    0    0  0.32270632699E+03  0.39906334079E+03 -0.77709124601E+03  0.94374434095E+03  0.15294330000E+03 0.  0.
    8880022    1    1    2    0    0 -0.32270632699E+03 -0.39906334079E+03  0.65015040650E+03  0.84230524606E+03  0.15294330000E+03 0.  0.
<mgrwt>
<rscale>  0 0.53552085E+03</rscale>
<asrwt>0</asrwt>
<pdfrwt beam="1">  1        2 0.14715311E+00 0.53552085E+03</pdfrwt>
<pdfrwt beam="2">  1       -2 0.12762375E+00 0.53552085E+03</pdfrwt>
<totfact> 0.12799423E+01</totfact>
</mgrwt>
</event>
<event>
 4    1  0.5387657E-008  0.1780586E+04  0.7818608E-02  0.8716692E-01
         -2   -1    0    0    0  501 -0.00000000000E+00  0.00000000000E+00  0.25103031283E+04  0.25103031283E+04  0.25500000000E-02 0.  1.
          2   -1    0    0  501    0  0.00000000000E+00 -0.00000000000E+00 -0.15133812027E+04  0.15133812027E+04  0.25500000000E-02 0. -1.
    8880022    1    1    2    0    0 -0.98754409186E+03 -0.14737208942E+04 -0.31987020885E+03  0.18090896083E+04  0.15294330000E+03 0.  0.
    8880022    1    1    2    0    0  0.98754409186E+03  0.14737208942E+04  0.13167921345E+04  0.22145947227E+04  0.15294330000E+03 0.  0.
<mgrwt>
<rscale>  0 0.17805865E+04</rscale>
<asrwt>0</asrwt>
<pdfrwt beam="1">  1        2 0.23282788E+00 0.17805865E+04</pdfrwt>
<pdfrwt beam="2">  1       -2 0.38620048E+00 0.17805865E+04</pdfrwt>
<totfact> 0.10402233E-01</totfact>
</mgrwt>
</event>
<event>
 4    1  0.5387657E-008  0.5735732E+03  0.7818608E-02  0.9961803E-01
          2   -1    0    0  501    0  0.00000000000E+00  0.00000000000E+00  0.29808245065E+04  0.29808245065E+04  0.25500000000E-02 0. -1.
         -2   -1    0    0    0  501 -0.00000000000E+00 -0.00000000000E+00 -0.15660528975E+03  0.15660528977E+03  0.25500000000E-02 0.  1.
    8880022    1    1    2    0    0  0.22281038242E+03  0.50591510095E+03  0.22645013738E+04  0.23360121320E+04  0.15294330000E+03 0.  0.
    8880022    1    1    2    0    0 -0.22281038242E+03 -0.50591510095E+03  0.55971784299E+03  0.80141766431E+03  0.15294330000E+03 0.  0.
<mgrwt>
<rscale>  0 0.57357319E+03</rscale>
<asrwt>0</asrwt>
<pdfrwt beam="1">  1        2 0.45858833E+00 0.57357319E+03</pdfrwt>
<pdfrwt beam="2">  1       -2 0.24093124E-01 0.57357319E+03</pdfrwt>
<totfact> 0.29921407E+01</totfact>
</mgrwt>
</event>
<event>
 4    1  0.5387657E-008  0.6311114E+03  0.7818608E-02  0.9842882E-01
         -2   -1    0    0    0  501 -0.00000000000E+00  0.00000000000E+00  0.84635981551E+03  0.84635981551E+03  0.25500000000E-02 0.  1.
          2   -1    0    0  501    0  0.00000000000E+00 -0.00000000000E+00 -0.51630287411E+03  0.51630287412E+03  0.25500000000E-02 0. -1.
    8880022    1    1    2    0    0 -0.82105340269E+02  0.60676904731E+03 -0.37670497417E+02  0.63223467405E+03  0.15294330000E+03 0.  0.
    8880022    1    1    2    0    0  0.82105340269E+02 -0.60676904731E+03  0.36772743881E+03  0.73042801558E+03  0.15294330000E+03 0.  0.
<mgrwt>
<rscale>  0 0.63111141E+03</rscale>
<asrwt>0</asrwt>
<pdfrwt beam="1">  1        2 0.79431213E-01 0.63111141E+03</pdfrwt>
<pdfrwt beam="2">  1       -2 0.13020920E+00 0.63111141E+03</pdfrwt>
<totfact> 0.26254750E+01</totfact>
</mgrwt>
</event>
<event>
 4    1  0.5387657E-008  0.1513183E+04  0.7818608E-02  0.8875733E-01
         -2   -1    0    0    0  501 -0.00000000000E+00  0.00000000000E+00  0.14529444394E+04  0.14529444394E+04  0.25500000000E-02 0.  1.
          2   -1    0    0  501    0  0.00000000000E+00 -0.00000000000E+00 -0.26478172482E+04  0.26478172482E+04  0.25500000000E-02 0. -1.
    8880022    1    1    2    0    0  0.46941824234E+03  0.14303768215E+04  0.70713327041E+03  0.16702576008E+04  0.15294330000E+03 0.  0.
    8880022    1    1    2    0    0 -0.46941824234E+03 -0.14303768215E+04 -0.19020060792E+04  0.24305040868E+04  0.15294330000E+03 0.  0.
<mgrwt>
<rscale>  0 0.15131831E+04</rscale>
<asrwt>0</asrwt>
<pdfrwt beam="1">  1        2 0.40735650E+00 0.15131831E+04</pdfrwt>
<pdfrwt beam="2">  1       -2 0.22352991E+00 0.15131831E+04</pdfrwt>
<totfact> 0.25102368E-01</totfact>
</mgrwt>
</event>
<event>
 4    1  0.9854901E-008  0.9494853E+03  0.7818608E-02  0.9365752E-01
          2   -1    0    0  501    0  0.00000000000E+00  0.00000000000E+00  0.26297618971E+04  0.26297618971E+04  0.25500000000E-02 0. -1.
         -2   -1    0    0    0  501 -0.00000000000E+00 -0.00000000000E+00 -0.12512374443E+04  0.12512374443E+04  0.25500000000E-02 0.  1.
    8880022    1    1    2    0    0  0.43337330053E+03  0.83085398391E+03  0.23426989585E+04  0.25277976231E+04  0.15294330000E+03 0.  0.
    8880022    1    1    2    0    0 -0.43337330053E+03 -0.83085398391E+03 -0.96417450561E+03  0.13532017183E+04  0.15294330000E+03 0.  0.
<mgrwt>
<rscale>  0 0.94948534E+03</rscale>
<asrwt>0</asrwt>
<pdfrwt beam="1">  1        2 0.40457874E+00 0.94948534E+03</pdfrwt>
<pdfrwt beam="2">  1       -2 0.19249807E+00 0.94948534E+03</pdfrwt>
<totfact> 0.44381236E-01</totfact>
</mgrwt>
</event>
<event>
 4    1  0.5387657E-008  0.4871255E+03  0.7818608E-02  0.1017195E+00
          2   -1    0    0  501    0  0.00000000000E+00  0.00000000000E+00  0.74231622656E+03  0.74231622657E+03  0.25500000000E-02 0. -1.
         -2   -1    0    0    0  501 -0.00000000000E+00 -0.00000000000E+00 -0.14419160738E+04  0.14419160738E+04  0.25500000000E-02 0.  1.
    8880022    1    1    2    0    0 -0.35943893781E+03  0.29103815602E+03  0.61368337969E+03  0.78351675272E+03  0.15294330000E+03 0.  0.
    8880022    1    1    2    0    0  0.35943893781E+03 -0.29103815602E+03 -0.13132832269E+04  0.14007155476E+04  0.15294330000E+03 0.  0.
<mgrwt>
<rscale>  0 0.48712546E+03</rscale>
<asrwt>0</asrwt>
<pdfrwt beam="1">  1        2 0.11420250E+00 0.48712546E+03</pdfrwt>
<pdfrwt beam="2">  1       -2 0.22183324E+00 0.48712546E+03</pdfrwt>
<totfact> 0.39244719E+00</totfact>
</mgrwt>
</event>
<event>
 4    1  0.5387657E-008  0.4814986E+03  0.7818608E-02  0.1018724E+00
          2   -1    0    0  501    0  0.00000000000E+00  0.00000000000E+00  0.17862976601E+04  0.17862976601E+04  0.25500000000E-02 0. -1.
         -2   -1    0    0    0  501 -0.00000000000E+00 -0.00000000000E+00 -0.42218650007E+03  0.42218650008E+03  0.25500000000E-02 0.  1.
    8880022    1    1    2    0    0 -0.17667986057E+03  0.42099109828E+03  0.16010212878E+04  0.16718582759E+04  0.15294330000E+03 0.  0.
    8880022    1    1    2    0    0  0.17667986057E+03 -0.42099109828E+03 -0.23691012775E+03  0.53662588421E+03  0.15294330000E+03 0.  0.
<mgrwt>
<rscale>  0 0.48149863E+03</rscale>
<asrwt>0</asrwt>
<pdfrwt beam="1">  1        2 0.27481502E+00 0.48149863E+03</pdfrwt>
<pdfrwt beam="2">  1       -2 0.64951770E-01 0.48149863E+03</pdfrwt>
<totfact> 0.20661642E+01</totfact>
</mgrwt>
</event>
<event>
 4    1  0.5387657E-008  0.2562648E+03  0.7818608E-02  0.1109408E+00
         -2   -1    0    0    0  501 -0.00000000000E+00  0.00000000000E+00  0.27656408339E+02  0.27656408456E+02  0.25500000000E-02 0.  1.
          2   -1    0    0  501    0  0.00000000000E+00 -0.00000000000E+00 -0.24806559429E+04  0.24806559429E+04  0.25500000000E-02 0. -1.
    8880022    1    1    2    0    0  0.16380919110E+03 -0.12428409322E+03 -0.14858756975E+04  0.15078123983E+04  0.15294330000E+03 0.  1.
    8880022    1    1    2    0    0 -0.16380919110E+03  0.12428409322E+03 -0.96712383700E+03  0.10004999530E+04  0.15294330000E+03 0.  0.
<mgrwt>
<rscale>  0 0.25626478E+03</rscale>
<asrwt>0</asrwt>
<pdfrwt beam="1">  1        2 0.38163920E+00 0.25626478E+03</pdfrwt>
<pdfrwt beam="2">  1       -2 0.42548340E-02 0.25626478E+03</pdfrwt>
<totfact> 0.10308824E+03</totfact>
</mgrwt>
</event>
<event>
 4    1  0.5387657E-008  0.3182491E+03  0.7818608E-02  0.1076458E+00
         -2   -1    0    0    0  501 -0.00000000000E+00  0.00000000000E+00  0.39987175996E+03  0.39987175997E+03  0.25500000000E-02 0.  1.
          2   -1    0    0  501    0  0.00000000000E+00 -0.00000000000E+00 -0.85738472807E+03  0.85738472808E+03  0.25500000000E-02 0. -1.
    8880022    1    1    2    0    0 -0.14677771750E+03  0.23737556306E+03 -0.75642289262E+03  0.82064493040E+03  0.15294330000E+03 0.  0.
    8880022    1    1    2    0    0  0.14677771750E+03 -0.23737556306E+03  0.29890992451E+03  0.43661155765E+03  0.15294330000E+03 0.  0.
<mgrwt>
<rscale>  0 0.31824913E+03</rscale>
<asrwt>0</asrwt>
<pdfrwt beam="1">  1        2 0.13190534E+00 0.31824913E+03</pdfrwt>
<pdfrwt beam="2">  1       -2 0.61518733E-01 0.31824913E+03</pdfrwt>
<totfact> 0.81752520E+01</totfact>
</mgrwt>
</event>
<event>
 4    1  0.5387657E-008  0.4419275E+03  0.7818608E-02  0.1030157E+00
         -2   -1    0    0    0  501 -0.00000000000E+00  0.00000000000E+00  0.29521055149E+03  0.29521055150E+03  0.25500000000E-02 0.  1.
          2   -1    0    0  501    0  0.00000000000E+00 -0.00000000000E+00 -0.87919198456E+03  0.87919198457E+03  0.25500000000E-02 0. -1.
    8880022    1    1    2    0    0  0.18317151114E+03  0.37196293072E+03  0.15880879660E+00  0.44192748563E+03  0.15294330000E+03 0.  0.
    8880022    1    1    2    0    0 -0.18317151114E+03 -0.37196293072E+03 -0.58414024187E+03  0.73247505043E+03  0.15294330000E+03 0.  0.
<mgrwt>
<rscale>  0 0.44192746E+03</rscale>
<asrwt>0</asrwt>
<pdfrwt beam="1">  1        2 0.13526030E+00 0.44192746E+03</pdfrwt>
<pdfrwt beam="2">  1       -2 0.45417008E-01 0.44192746E+03</pdfrwt>
<totfact> 0.14432879E+02</totfact>
</mgrwt>
</event>
<event>
 4    1  0.5387657E-008  0.8362268E+03  0.7818608E-02  0.9509012E-01
         -2   -1    0    0    0  501 -0.00000000000E+00  0.00000000000E+00  0.28724483099E+03  0.28724483100E+03  0.25500000000E-02 0.  1.
          2   -1    0    0  501    0  0.00000000000E+00 -0.00000000000E+00 -0.24664625529E+04  0.24664625529E+04  0.25500000000E-02 0. -1.
    8880022    1    1    2    0    0 -0.14816402252E+03  0.80866001246E+03 -0.12465359528E+04  0.15010420140E+04  0.15294330000E+03 0.  0.
    8880022    1    1    2    0    0  0.14816402252E+03 -0.80866001246E+03 -0.93268176910E+03  0.12526653698E+04  0.15294330000E+03 0.  0.
<mgrwt>
<rscale>  0 0.83622679E+03</rscale>
<asrwt>0</asrwt>
<pdfrwt beam="1">  1        2 0.37945576E+00 0.83622679E+03</pdfrwt>
<pdfrwt beam="2">  1       -2 0.44191514E-01 0.83622679E+03</pdfrwt>
<totfact> 0.18249252E+01</totfact>
</mgrwt>
</event>
<event>
 4    1  0.5387657E-008  0.3096653E+03  0.7818608E-02  0.1080506E+00
         -2   -1    0    0    0  501 -0.00000000000E+00  0.00000000000E+00  0.15364483286E+03  0.15364483289E+03  0.25500000000E-02 0.  1.
          2   -1    0    0  501    0  0.00000000000E+00 -0.00000000000E+00 -0.15096532497E+04  0.15096532497E+04  0.25500000000E-02 0. -1.
    8880022    1    1    2    0    0 -0.14842524620E+03 -0.22465733851E+03 -0.41055850609E+02  0.31237510999E+03  0.15294330000E+03 0.  1.
    8880022    1    1    2    0    0  0.14842524620E+03  0.22465733851E+03 -0.13149525662E+04  0.13509229726E+04  0.15294330000E+03 0.  0.
<mgrwt>
<rscale>  0 0.30966535E+03</rscale>
<asrwt>0</asrwt>
<pdfrwt beam="1">  1        2 0.23225434E+00 0.30966535E+03</pdfrwt>
<pdfrwt beam="2">  1       -2 0.23637668E-01 0.30966535E+03</pdfrwt>
<totfact> 0.21194224E+02</totfact>
</mgrwt>
</event>
<event>
 4    1  0.5387657E-008  0.1813872E+03  0.7818608E-02  0.1166467E+00
          2   -1    0    0  501    0  0.00000000000E+00  0.00000000000E+00  0.18906457658E+04  0.18906457658E+04  0.25500000000E-02 0. -1.
         -2   -1    0    0    0  501 -0.00000000000E+00 -0.00000000000E+00 -0.35807502840E+02  0.35807502930E+02  0.25500000000E-02 0.  1.
    8880022    1    1    2    0    0 -0.33329199412E+02 -0.91645064816E+02  0.16179983525E+04  0.16281338935E+04  0.15294330000E+03 0. -1.
    8880022    1    1    2    0    0  0.33329199412E+02  0.91645064816E+02  0.23683991045E+03  0.29831937522E+03  0.15294330000E+03 0.  0.
<mgrwt>
<rscale>  0 0.18138717E+03</rscale>
<asrwt>0</asrwt>
<pdfrwt beam="1">  1        2 0.29086866E+00 0.18138717E+03</pdfrwt>
<pdfrwt beam="2">  1       -2 0.55088450E-02 0.18138717E+03</pdfrwt>
<totfact> 0.14434434E+03</totfact>
</mgrwt>
</event>
<event>
 4    1  0.5387657E-008  0.3670494E+03  0.7818608E-02  0.1055827E+00
         -2   -1    0    0    0  501 -0.00000000000E+00  0.00000000000E+00  0.16657952886E+03  0.16657952888E+03  0.25500000000E-02 0.  1.
          2   -1    0    0  501    0  0.00000000000E+00 -0.00000000000E+00 -0.24506503473E+04  0.24506503473E+04  0.25500000000E-02 0. -1.
    8880022    1    1    2    0    0  0.26933402500E+03  0.19695893312E+03 -0.22131633347E+04  0.22433941333E+04  0.15294330000E+03 0.  0.
    8880022    1    1    2    0    0 -0.26933402500E+03 -0.19695893312E+03 -0.70907483723E+02  0.37383574284E+03  0.15294330000E+03 0.  1.
<mgrwt>
<rscale>  0 0.36704944E+03</rscale>
<asrwt>0</asrwt>
<pdfrwt beam="1">  1        2 0.37702310E+00 0.36704944E+03</pdfrwt>
<pdfrwt beam="2">  1       -2 0.25627622E-01 0.36704944E+03</pdfrwt>
<totfact> 0.56827928E+01</totfact>
</mgrwt>
</event>
<event>
 4    1  0.5387657E-008  0.5408012E+03  0.7818608E-02  0.1003646E+00
          2   -1    0    0  501    0  0.00000000000E+00  0.00000000000E+00  0.23332998031E+04  0.23332998031E+04  0.25500000000E-02 0. -1.
         -2   -1    0    0    0  501 -0.00000000000E+00 -0.00000000000E+00 -0.19707182002E+03  0.19707182004E+03  0.25500000000E-02 0.  1.
    8880022    1    1    2    0    0  0.36365661826E+03 -0.36990295822E+03  0.30483246198E+03  0.62079692121E+03  0.15294330000E+03 0.  0.
    8880022    1    1    2    0    0 -0.36365661826E+03  0.36990295822E+03  0.18313955211E+04  0.19095747019E+04  0.15294330000E+03 0.  0.
<mgrwt>
<rscale>  0 0.54080125E+03</rscale>
<asrwt>0</asrwt>
<pdfrwt beam="1">  1        2 0.35896921E+00 0.54080125E+03</pdfrwt>
<pdfrwt beam="2">  1       -2 0.30318740E-01 0.54080125E+03</pdfrwt>
<totfact> 0.46737287E+01</totfact>
</mgrwt>
</event>
<event>
 4    1  0.5387657E-008  0.4715528E+03  0.7818608E-02  0.1021483E+00
          2   -1    0    0  501    0  0.00000000000E+00  0.00000000000E+00  0.20904810492E+04  0.20904810492E+04  0.25500000000E-02 0. -1.
         -2   -1    0    0    0  501 -0.00000000000E+00 -0.00000000000E+00 -0.30528931144E+03  0.30528931145E+03  0.25500000000E-02 0.  1.
    8880022    1    1    2    0    0 -0.41431289072E+03 -0.16527302405E+03  0.18595350466E+04  0.19183932304E+04  0.15294330000E+03 0. -1.
    8880022    1    1    2    0    0  0.41431289072E+03  0.16527302405E+03 -0.74343308836E+02  0.47737713025E+03  0.15294330000E+03 0.  0.
<mgrwt>
<rscale>  0 0.47155275E+03</rscale>
<asrwt>0</asrwt>
<pdfrwt beam="1">  1        2 0.32161247E+00 0.47155275E+03</pdfrwt>
<pdfrwt beam="2">  1       -2 0.46967587E-01 0.47155275E+03</pdfrwt>
<totfact> 0.27742962E+01</totfact>
</mgrwt>
</event>
<event>
 4    1  0.5387657E-008  0.6573437E+03  0.7818608E-02  0.9793096E-01
          2   -1    0    0  501    0  0.00000000000E+00  0.00000000000E+00  0.19164616759E+04  0.19164616759E+04  0.25500000000E-02 0. -1.
         -2   -1    0    0    0  501 -0.00000000000E+00 -0.00000000000E+00 -0.60143955731E+03  0.60143955731E+03  0.25500000000E-02 0.  1.
    8880022    1    1    2    0    0 -0.63144407443E+03 -0.99937221670E+02  0.16528940484E+04  0.17788084370E+04  0.15294330000E+03 0.  0.
    8880022    1    1    2    0    0  0.63144407443E+03  0.99937221670E+02 -0.33787192980E+03  0.73909279618E+03  0.15294330000E+03 0.  1.
<mgrwt>
<rscale>  0 0.65734369E+03</rscale>
<asrwt>0</asrwt>
<pdfrwt beam="1">  1        2 0.29484026E+00 0.65734369E+03</pdfrwt>
<pdfrwt beam="2">  1       -2 0.92529163E-01 0.65734369E+03</pdfrwt>
<totfact> 0.77348985E+00</totfact>
</mgrwt>
</event>
<event>
 4    1  0.5387657E-008  0.2298387E+03  0.7818608E-02  0.1126753E+00
         -2   -1    0    0    0  501 -0.00000000000E+00  0.00000000000E+00  0.10824063646E+03  0.10824063649E+03  0.25500000000E-02 0.  1.
          2   -1    0    0  501    0  0.00000000000E+00 -0.00000000000E+00 -0.97396212651E+03  0.97396212652E+03  0.25500000000E-02 0. -1.
    8880022    1    1    2    0    0 -0.61876409525E+02  0.16001720637E+03 -0.81506065246E+03  0.84684692631E+03  0.15294330000E+03 0. -1.
    8880022    1    1    2    0    0  0.61876409525E+02 -0.16001720637E+03 -0.50660837588E+02  0.23535583670E+03  0.15294330000E+03 0.  1.
<mgrwt>
<rscale>  0 0.22983875E+03</rscale>
<asrwt>0</asrwt>
<pdfrwt beam="1">  1        2 0.14984032E+00 0.22983875E+03</pdfrwt>
<pdfrwt beam="2">  1       -2 0.16652406E-01 0.22983875E+03</pdfrwt>
<totfact> 0.78702136E+02</totfact>
</mgrwt>
</event>
<event>
 4    1  0.1739453E-007  0.1114547E+04  0.7818608E-02  0.9191128E-01
         -2   -1    0    0    0  501 -0.00000000000E+00  0.00000000000E+00  0.21398015928E+04  0.21398015928E+04  0.25500000000E-02 0.  1.
          2   -1    0    0  501    0  0.00000000000E+00 -0.00000000000E+00 -0.18706337574E+04  0.18706337574E+04  0.25500000000E-02 0. -1.
    8880022    1    1    2    0    0  0.11027198547E+04 -0.53214721164E+02  0.17998353388E+04  0.21169841247E+04  0.15294330000E+03 0.  0.
    8880022    1    1    2    0    0 -0.11027198547E+04  0.53214721164E+02 -0.15306675033E+04  0.18934512255E+04  0.15294330000E+03 0.  0.
<mgrwt>
<rscale>  0 0.11145468E+04</rscale>
<asrwt>0</asrwt>
<pdfrwt beam="1">  1        2 0.28778981E+00 0.11145468E+04</pdfrwt>
<pdfrwt beam="2">  1       -2 0.32920024E+00 0.11145468E+04</pdfrwt>
<totfact> 0.16433406E-01</totfact>
</mgrwt>
</event>
<event>
 4    1  0.5387657E-008  0.1977394E+03  0.7818608E-02  0.1151660E+00
          2   -1    0    0  501    0  0.00000000000E+00  0.00000000000E+00  0.11257172448E+04  0.11257172448E+04  0.25500000000E-02 0. -1.
         -2   -1    0    0    0  501 -0.00000000000E+00 -0.00000000000E+00 -0.66705673691E+02  0.66705673739E+02  0.25500000000E-02 0.  1.
    8880022    1    1    2    0    0  0.12523533097E+03 -0.50337234117E+01  0.94226835767E+03  0.96279309168E+03  0.15294330000E+03 0.  0.
    8880022    1    1    2    0    0 -0.12523533097E+03  0.50337234117E+01  0.11674321346E+03  0.22962982689E+03  0.15294330000E+03 0.  0.
<mgrwt>
<rscale>  0 0.19773942E+03</rscale>
<asrwt>0</asrwt>
<pdfrwt beam="1">  1        2 0.17318726E+00 0.19773942E+03</pdfrwt>
<pdfrwt beam="2">  1       -2 0.10262412E-01 0.19773942E+03</pdfrwt>
<totfact> 0.14070311E+03</totfact>
</mgrwt>
</event>
<event>
 4    1  0.5387657E-008  0.7394679E+03  0.7818608E-02  0.9652020E-01
         -2   -1    0    0    0  501 -0.00000000000E+00  0.00000000000E+00  0.51042878479E+03  0.51042878479E+03  0.25500000000E-02 0.  1.
          2   -1    0    0  501    0  0.00000000000E+00 -0.00000000000E+00 -0.22043709725E+04  0.22043709725E+04  0.25500000000E-02 0. -1.
    8880022    1    1    2    0    0 -0.43086635742E+03  0.58118445630E+03 -0.18201609942E+04  0.19646370881E+04  0.15294330000E+03 0.  0.
    8880022    1    1    2    0    0  0.43086635742E+03 -0.58118445630E+03  0.12621880642E+03  0.75016266924E+03  0.15294330000E+03 0.  0.
<mgrwt>
<rscale>  0 0.73946795E+03</rscale>
<asrwt>0</asrwt>
<pdfrwt beam="1">  1        2 0.33913399E+00 0.73946795E+03</pdfrwt>
<pdfrwt beam="2">  1       -2 0.78527507E-01 0.73946795E+03</pdfrwt>
<totfact> 0.77160104E+00</totfact>
</mgrwt>
</event>
<event>
 4    1  0.5387657E-008  0.5962363E+03  0.7818608E-02  0.9913245E-01
         -2   -1    0    0    0  501 -0.00000000000E+00  0.00000000000E+00  0.49214116323E+03  0.49214116324E+03  0.25500000000E-02 0.  1.
          2   -1    0    0  501    0  0.00000000000E+00 -0.00000000000E+00 -0.10287105543E+04  0.10287105543E+04  0.25500000000E-02 0. -1.
    8880022    1    1    2    0    0 -0.50261134705E+03  0.28193603019E+03  0.14669544596E+03  0.61401734355E+03  0.15294330000E+03 0.  0.
    8880022    1    1    2    0    0  0.50261134705E+03 -0.28193603019E+03 -0.68326483702E+03  0.90683437398E+03  0.15294330000E+03 0.  0.
<mgrwt>
<rscale>  0 0.59623632E+03</rscale>
<asrwt>0</asrwt>
<pdfrwt beam="1">  1        2 0.15826316E+00 0.59623632E+03</pdfrwt>
<pdfrwt beam="2">  1       -2 0.75714025E-01 0.59623632E+03</pdfrwt>
<totfact> 0.38983196E+01</totfact>
</mgrwt>
</event>
<event>
 4    1  0.7151178E-008  0.7968157E+03  0.7818608E-02  0.9564638E-01
          2   -1    0    0  501    0  0.00000000000E+00  0.00000000000E+00  0.26569124949E+04  0.26569124949E+04  0.25500000000E-02 0. -1.
         -2   -1    0    0    0  501 -0.00000000000E+00 -0.00000000000E+00 -0.93138282613E+03  0.93138282613E+03  0.25500000000E-02 0.  1.
    8880022    1    1    2    0    0 -0.73656607560E+03  0.26266702772E+03  0.24097190818E+04  0.25380428005E+04  0.15294330000E+03 0.  0.
    8880022    1    1    2    0    0  0.73656607560E+03 -0.26266702772E+03 -0.68418941295E+03  0.10502525206E+04  0.15294330000E+03 0.  0.
<mgrwt>
<rscale>  0 0.79681567E+03</rscale>
<asrwt>0</asrwt>
<pdfrwt beam="1">  1        2 0.40875577E+00 0.79681567E+03</pdfrwt>
<pdfrwt beam="2">  1       -2 0.14328967E+00 0.79681567E+03</pdfrwt>
<totfact> 0.99670064E-01</totfact>
</mgrwt>
</event>
<event>
 4    1  0.5387657E-008  0.5237248E+03  0.7818608E-02  0.1007765E+00
         -2   -1    0    0    0  501 -0.00000000000E+00  0.00000000000E+00  0.47875003369E+03  0.47875003369E+03  0.25500000000E-02 0.  1.
          2   -1    0    0  501    0  0.00000000000E+00 -0.00000000000E+00 -0.15086952715E+04  0.15086952715E+04  0.25500000000E-02 0. -1.
    8880022    1    1    2    0    0  0.37149408681E+03  0.33598837905E+03  0.26764410861E+03  0.58815054984E+03  0.15294330000E+03 0.  0.
    8880022    1    1    2    0    0 -0.37149408681E+03 -0.33598837905E+03 -0.12975893464E+04  0.13992947553E+04  0.15294330000E+03 0.  0.
<mgrwt>
<rscale>  0 0.52372483E+03</rscale>
<asrwt>0</asrwt>
<pdfrwt beam="1">  1        2 0.23210696E+00 0.52372483E+03</pdfrwt>
<pdfrwt beam="2">  1       -2 0.73653852E-01 0.52372483E+03</pdfrwt>
<totfact> 0.22077129E+01</totfact>
</mgrwt>
</event>
<event>
 4    1  0.5387657E-008  0.9457160E+03  0.7818608E-02  0.9370172E-01
         -2   -1    0    0    0  501 -0.00000000000E+00  0.00000000000E+00  0.90547196428E+03  0.90547196429E+03  0.25500000000E-02 0.  1.
          2   -1    0    0  501    0  0.00000000000E+00 -0.00000000000E+00 -0.12561088760E+04  0.12561088760E+04  0.25500000000E-02 0. -1.
    8880022    1    1    2    0    0  0.71099810051E+03 -0.60454009572E+03  0.32424072700E+03  0.99975533423E+03  0.15294330000E+03 0.  0.
    8880022    1    1    2    0    0 -0.71099810051E+03  0.60454009572E+03 -0.67487763870E+03  0.11618255060E+04  0.15294330000E+03 0.  0.
<mgrwt>
<rscale>  0 0.94571596E+03</rscale>
<asrwt>0</asrwt>
<pdfrwt beam="1">  1        2 0.19324752E+00 0.94571596E+03</pdfrwt>
<pdfrwt beam="2">  1       -2 0.13930338E+00 0.94571596E+03</pdfrwt>
<totfact> 0.63665541E+00</totfact>
</mgrwt>
</event>
<event>
 4    1  0.5387657E-008  0.5276943E+03  0.7818608E-02  0.1006793E+00
          2   -1    0    0  501    0  0.00000000000E+00  0.00000000000E+00  0.16598988937E+04  0.16598988937E+04  0.25500000000E-02 0. -1.
         -2   -1    0    0    0  501 -0.00000000000E+00 -0.00000000000E+00 -0.37067238591E+03  0.37067238592E+03  0.25500000000E-02 0.  1.
    8880022    1    1    2    0    0  0.28893935355E+03  0.41422653671E+03  0.13958029205E+04  0.14922221750E+04  0.15294330000E+03 0. -1.
    8880022    1    1    2    0    0 -0.28893935355E+03 -0.41422653671E+03 -0.10657641264E+03  0.53834910466E+03  0.15294330000E+03 0.  0.
<mgrwt>
<rscale>  0 0.52769425E+03</rscale>
<asrwt>0</asrwt>
<pdfrwt beam="1">  1        2 0.25536906E+00 0.52769425E+03</pdfrwt>
<pdfrwt beam="2">  1       -2 0.57026521E-01 0.52769425E+03</pdfrwt>
<totfact> 0.31518210E+01</totfact>
</mgrwt>
</event>
<event>
 4    1  0.5387657E-008  0.2222062E+03  0.7818608E-02  0.1132249E+00
         -2   -1    0    0    0  501 -0.00000000000E+00  0.00000000000E+00  0.31002269743E+03  0.31002269744E+03  0.25500000000E-02 0.  1.
          2   -1    0    0  501    0  0.00000000000E+00 -0.00000000000E+00 -0.97137000338E+03  0.97137000338E+03  0.25500000000E-02 0. -1.
    8880022    1    1    2    0    0  0.83373422876E+02 -0.13795952822E+03 -0.91649626518E+03  0.94304878780E+03  0.15294330000E+03 0.  0.
    8880022    1    1    2    0    0 -0.83373422876E+02  0.13795952822E+03  0.25514895923E+03  0.33834391302E+03  0.15294330000E+03 0.  0.
<mgrwt>
<rscale>  0 0.22220624E+03</rscale>
<asrwt>0</asrwt>
<pdfrwt beam="1">  1        2 0.14944154E+00 0.22220624E+03</pdfrwt>
<pdfrwt beam="2">  1       -2 0.47695800E-01 0.22220624E+03</pdfrwt>
<totfact> 0.11806112E+02</totfact>
</mgrwt>
</event>
<event>
 4    1  0.5387657E-008  0.7093648E+03  0.7818608E-02  0.9701350E-01
          2   -1    0    0  501    0  0.00000000000E+00  0.00000000000E+00  0.20309321478E+04  0.20309321478E+04  0.25500000000E-02 0. -1.
         -2   -1    0    0    0  501 -0.00000000000E+00 -0.00000000000E+00 -0.71292883799E+03  0.71292883799E+03  0.25500000000E-02 0.  1.
    8880022    1    1    2    0    0  0.39701120924E+03 -0.56761679571E+03 -0.44918001271E+03  0.83961959473E+03  0.15294330000E+03 0.  0.
    8880022    1    1    2    0    0 -0.39701120924E+03  0.56761679571E+03  0.17671833226E+04  0.19042413911E+04  0.15294330000E+03 0.  0.
<mgrwt>
<rscale>  0 0.70936477E+03</rscale>
<asrwt>0</asrwt>
<pdfrwt beam="1">  1        2 0.31245110E+00 0.70936477E+03</pdfrwt>
<pdfrwt beam="2">  1       -2 0.10968136E+00 0.70936477E+03</pdfrwt>
<totfact> 0.44370310E+00</totfact>
</mgrwt>
</event>
<event>
 4    1  0.5387657E-008  0.2230658E+04  0.7818608E-02  0.8505775E-01
          2   -1    0    0  501    0  0.00000000000E+00  0.00000000000E+00  0.26428934338E+04  0.26428934338E+04  0.25500000000E-02 0. -1.
         -2   -1    0    0    0  501 -0.00000000000E+00 -0.00000000000E+00 -0.20502186523E+04  0.20502186523E+04  0.25500000000E-02 0.  1.
    8880022    1    1    2    0    0 -0.15086583956E+04 -0.16359681562E+04  0.96704603603E+03  0.24312572162E+04  0.15294330000E+03 0.  0.
    8880022    1    1    2    0    0  0.15086583956E+04  0.16359681562E+04 -0.37437125454E+03  0.22618548698E+04  0.15294330000E+03 0.  0.
<mgrwt>
<rscale>  0 0.22306577E+04</rscale>
<asrwt>0</asrwt>
<pdfrwt beam="1">  1        2 0.40659899E+00 0.22306577E+04</pdfrwt>
<pdfrwt beam="2">  1       -2 0.31541826E+00 0.22306577E+04</pdfrwt>
<totfact> 0.63493824E-02</totfact>
</mgrwt>
</event>
<event>
 4    1  0.5387657E-008  0.1827638E+03  0.7818608E-02  0.1165155E+00
          2   -1    0    0  501    0  0.00000000000E+00  0.00000000000E+00  0.68177303386E+03  0.68177303386E+03  0.25500000000E-02 0. -1.
         -2   -1    0    0    0  501 -0.00000000000E+00 -0.00000000000E+00 -0.17565374921E+04  0.17565374921E+04  0.25500000000E-02 0.  1.
    8880022    1    1    2    0    0  0.99334575655E+02 -0.11982469082E+02  0.66465032543E+03  0.68932042303E+03  0.15294330000E+03 0. -1.
    8880022    1    1    2    0    0 -0.99334575655E+02  0.11982469082E+02 -0.17394147837E+04  0.17489901029E+04  0.15294330000E+03 0.  0.
<mgrwt>
<rscale>  0 0.18276376E+03</rscale>
<asrwt>0</asrwt>
<pdfrwt beam="1">  1        2 0.10488816E+00 0.18276376E+03</pdfrwt>
<pdfrwt beam="2">  1       -2 0.27023654E+00 0.18276376E+03</pdfrwt>
<totfact> 0.25180527E+00</totfact>
</mgrwt>
</event>
<event>
 4    1  0.5387657E-008  0.9378223E+03  0.7818608E-02  0.9379499E-01
         -2   -1    0    0    0  501 -0.00000000000E+00  0.00000000000E+00  0.27464834732E+04  0.27464834732E+04  0.25500000000E-02 0.  1.
          2   -1    0    0  501    0  0.00000000000E+00 -0.00000000000E+00 -0.68584156539E+03  0.68584156540E+03  0.25500000000E-02 0. -1.
    8880022    1    1    2    0    0 -0.51841982296E+03 -0.76639403384E+03 -0.22269202910E+03  0.96389953874E+03  0.15294330000E+03 0.  0.
    8880022    1    1    2    0    0  0.51841982296E+03  0.76639403384E+03  0.22833339369E+04  0.24684254998E+04  0.15294330000E+03 0.  0.
<mgrwt>
<rscale>  0 0.93782225E+03</rscale>
<asrwt>0</asrwt>
<pdfrwt beam="1">  1        2 0.10551409E+00 0.93782225E+03</pdfrwt>
<pdfrwt beam="2">  1       -2 0.42253592E+00 0.93782225E+03</pdfrwt>
<totfact> 0.22846857E-01</totfact>
</mgrwt>
</event>
<event>
 4    1  0.5387657E-008  0.4004614E+03  0.7818608E-02  0.1043620E+00
         -2   -1    0    0    0  501 -0.00000000000E+00  0.00000000000E+00  0.10171274931E+04  0.10171274931E+04  0.25500000000E-02 0.  1.
          2   -1    0    0  501    0  0.00000000000E+00 -0.00000000000E+00 -0.52678561229E+03  0.52678561229E+03  0.25500000000E-02 0. -1.
    8880022    1    1    2    0    0  0.36467984058E+03 -0.63136989386E+02 -0.40101542712E+03  0.56672982219E+03  0.15294330000E+03 0.  0.
    8880022    1    1    2    0    0 -0.36467984058E+03  0.63136989386E+02  0.89135730793E+03  0.97718328320E+03  0.15294330000E+03 0.  1.
<mgrwt>
<rscale>  0 0.40046138E+03</rscale>
<asrwt>0</asrwt>
<pdfrwt beam="1">  1        2 0.81043941E-01 0.40046138E+03</pdfrwt>
<pdfrwt beam="2">  1       -2 0.15648115E+00 0.40046138E+03</pdfrwt>
<totfact> 0.16429743E+01</totfact>
</mgrwt>
</event>
<event>
 4    1  0.5387657E-008  0.4576919E+03  0.7818608E-02  0.1025453E+00
         -2   -1    0    0    0  501 -0.00000000000E+00  0.00000000000E+00  0.23529551778E+03  0.23529551779E+03  0.25500000000E-02 0.  1.
          2   -1    0    0  501    0  0.00000000000E+00 -0.00000000000E+00 -0.31105918812E+04  0.31105918812E+04  0.25500000000E-02 0. -1.
    8880022    1    1    2    0    0 -0.33539994807E+03  0.27128782502E+03 -0.24246622290E+02  0.45833367853E+03  0.15294330000E+03 0.  0.
    8880022    1    1    2    0    0  0.33539994807E+03 -0.27128782502E+03 -0.28510497411E+04  0.28875537204E+04  0.15294330000E+03 0.  0.
<mgrwt>
<rscale>  0 0.45769189E+03</rscale>
<asrwt>0</asrwt>
<pdfrwt beam="1">  1        2 0.47855257E+00 0.45769189E+03</pdfrwt>
<pdfrwt beam="2">  1       -2 0.36199313E-01 0.45769189E+03</pdfrwt>
<totfact> 0.12132130E+01</totfact>
</mgrwt>
</event>
<event>
 4    1  0.5387657E-008  0.2742067E+03  0.7818608E-02  0.1098896E+00
         -2   -1    0    0    0  501 -0.00000000000E+00  0.00000000000E+00  0.38441257076E+03  0.38441257077E+03  0.25500000000E-02 0.  1.
          2   -1    0    0  501    0  0.00000000000E+00 -0.00000000000E+00 -0.87687231668E+03  0.87687231669E+03  0.25500000000E-02 0. -1.
    8880022    1    1    2    0    0  0.22610896552E+03  0.25930617537E+02  0.30964477497E+03  0.41360512678E+03  0.15294330000E+03 0.  0.
    8880022    1    1    2    0    0 -0.22610896552E+03 -0.25930617537E+02 -0.80210452089E+03  0.84767976068E+03  0.15294330000E+03 0.  0.
<mgrwt>
<rscale>  0 0.27420670E+03</rscale>
<asrwt>0</asrwt>
<pdfrwt beam="1">  1        2 0.13490343E+00 0.27420670E+03</pdfrwt>
<pdfrwt beam="2">  1       -2 0.59140395E-01 0.27420670E+03</pdfrwt>
<totfact> 0.86824135E+01</totfact>
</mgrwt>
</event>
<event>
 4    1  0.5387657E-008  0.5572259E+03  0.7818608E-02  0.9998351E-01
         -2   -1    0    0    0  501 -0.00000000000E+00  0.00000000000E+00  0.16503869352E+03  0.16503869354E+03  0.25500000000E-02 0.  1.
          2   -1    0    0  501    0  0.00000000000E+00 -0.00000000000E+00 -0.30989665744E+04  0.30989665744E+04  0.25500000000E-02 0. -1.
    8880022    1    1    2    0    0  0.35265313179E+02  0.53466379175E+03 -0.44399569467E+03  0.71248357344E+03  0.15294330000E+03 0.  0.
    8880022    1    1    2    0    0 -0.35265313179E+02 -0.53466379175E+03 -0.24899321862E+04  0.25515216945E+04  0.15294330000E+03 0. -1.
<mgrwt>
<rscale>  0 0.55722587E+03</rscale>
<asrwt>0</asrwt>
<pdfrwt beam="1">  1        2 0.47676404E+00 0.55722587E+03</pdfrwt>
<pdfrwt beam="2">  1       -2 0.25390571E-01 0.55722587E+03</pdfrwt>
<totfact> 0.23144993E+01</totfact>
</mgrwt>
</event>
<event>
 4    1  0.5387657E-008  0.2344148E+03  0.7818608E-02  0.1123570E+00
          2   -1    0    0  501    0  0.00000000000E+00  0.00000000000E+00  0.56784694357E+03  0.56784694358E+03  0.25500000000E-02 0. -1.
         -2   -1    0    0    0  501 -0.00000000000E+00 -0.00000000000E+00 -0.41198918544E+03  0.41198918545E+03  0.25500000000E-02 0.  1.
    8880022    1    1    2    0    0  0.62070163816E+02 -0.16645107786E+03 -0.35060695605E+03  0.42175295755E+03  0.15294330000E+03 0.  0.
    8880022    1    1    2    0    0 -0.62070163816E+02  0.16645107786E+03  0.50646471418E+03  0.55808317148E+03  0.15294330000E+03 0.  0.
<mgrwt>
<rscale>  0 0.23441485E+03</rscale>
<asrwt>0</asrwt>
<pdfrwt beam="1">  1        2 0.87361068E-01 0.23441485E+03</pdfrwt>
<pdfrwt beam="2">  1       -2 0.63382952E-01 0.23441485E+03</pdfrwt>
<totfact> 0.12887407E+02</totfact>
</mgrwt>
</event>
<event>
 4    1  0.5387657E-008  0.5545715E+03  0.7818608E-02  0.1000441E+00
         -2   -1    0    0    0  501 -0.00000000000E+00  0.00000000000E+00  0.18190392264E+03  0.18190392266E+03  0.25500000000E-02 0.  1.
          2   -1    0    0  501    0  0.00000000000E+00 -0.00000000000E+00 -0.37625817735E+04  0.37625817735E+04  0.25500000000E-02 0. -1.
    8880022    1    1    2    0    0 -0.35300265530E+03  0.39943337935E+03 -0.32538541896E+04  0.33007751574E+04  0.15294330000E+03 0. -1.
    8880022    1    1    2    0    0  0.35300265530E+03 -0.39943337935E+03 -0.32682366123E+03  0.64371053879E+03  0.15294330000E+03 0.  0.
<mgrwt>
<rscale>  0 0.55457150E+03</rscale>
<asrwt>0</asrwt>
<pdfrwt beam="1">  1        2 0.57885867E+00 0.55457150E+03</pdfrwt>
<pdfrwt beam="2">  1       -2 0.27985222E-01 0.55457150E+03</pdfrwt>
<totfact> 0.70013113E+00</totfact>
</mgrwt>
</event>
<event>
 4    1  0.5387657E-008  0.6937313E+03  0.7818608E-02  0.9728013E-01
          2   -1    0    0  501    0  0.00000000000E+00  0.00000000000E+00  0.11602457609E+04  0.11602457609E+04  0.25500000000E-02 0. -1.
         -2   -1    0    0    0  501 -0.00000000000E+00 -0.00000000000E+00 -0.94389438980E+03  0.94389438981E+03  0.25500000000E-02 0.  1.
    8880022    1    1    2    0    0  0.14065490758E+03 -0.66188188187E+03 -0.67950821740E+03  0.97107903854E+03  0.15294330000E+03 0.  0.
    8880022    1    1    2    0    0 -0.14065490758E+03  0.66188188187E+03  0.89585958846E+03  0.11330611121E+04  0.15294330000E+03 0.  0.
<mgrwt>
<rscale>  0 0.69373127E+03</rscale>
<asrwt>0</asrwt>
<pdfrwt beam="1">  1        2 0.17849935E+00 0.69373127E+03</pdfrwt>
<pdfrwt beam="2">  1       -2 0.14521452E+00 0.69373127E+03</pdfrwt>
<totfact> 0.67182535E+00</totfact>
</mgrwt>
</event>
<event>
 4    1  0.5387657E-008  0.3008725E+03  0.7818608E-02  0.1084805E+00
          2   -1    0    0  501    0  0.00000000000E+00  0.00000000000E+00  0.15182847185E+04  0.15182847185E+04  0.25500000000E-02 0. -1.
         -2   -1    0    0    0  501 -0.00000000000E+00 -0.00000000000E+00 -0.22656657920E+03  0.22656657921E+03  0.25500000000E-02 0.  1.
    8880022    1    1    2    0    0  0.16142054177E+03 -0.20267220111E+03  0.13947450926E+04  0.14268279990E+04  0.15294330000E+03 0. -1.
    8880022    1    1    2    0    0 -0.16142054177E+03  0.20267220111E+03 -0.10302695329E+03  0.31802329872E+03  0.15294330000E+03 0.  0.
<mgrwt>
<rscale>  0 0.30087251E+03</rscale>
<asrwt>0</asrwt>
<pdfrwt beam="1">  1        2 0.23358226E+00 0.30087251E+03</pdfrwt>
<pdfrwt beam="2">  1       -2 0.34856397E-01 0.30087251E+03</pdfrwt>
<totfact> 0.10378152E+02</totfact>
</mgrwt>
</event>
<event>
 4    1  0.5387657E-008  0.7308070E+03  0.7818608E-02  0.9665952E-01
          2   -1    0    0  501    0  0.00000000000E+00  0.00000000000E+00  0.95386100574E+03  0.95386100574E+03  0.25500000000E-02 0. -1.
         -2   -1    0    0    0  501 -0.00000000000E+00 -0.00000000000E+00 -0.57709067836E+03  0.57709067836E+03  0.25500000000E-02 0.  1.
    8880022    1    1    2    0    0  0.70869290220E+03 -0.91878469926E+02  0.56317987352E+02  0.73297384099E+03  0.15294330000E+03 0.  0.
    8880022    1    1    2    0    0 -0.70869290220E+03  0.91878469926E+02  0.32045234003E+03  0.79797784312E+03  0.15294330000E+03 0.  0.
<mgrwt>
<rscale>  0 0.73080704E+03</rscale>
<asrwt>0</asrwt>
<pdfrwt beam="1">  1        2 0.14674785E+00 0.73080704E+03</pdfrwt>
<pdfrwt beam="2">  1       -2 0.88783181E-01 0.73080704E+03</pdfrwt>
<totfact> 0.29949718E+01</totfact>
</mgrwt>
</event>
<event>
 4    1  0.5387657E-008  0.6580237E+03  0.7818608E-02  0.9791839E-01
         -2   -1    0    0    0  501 -0.00000000000E+00  0.00000000000E+00  0.15894620977E+03  0.15894620979E+03  0.25500000000E-02 0.  1.
          2   -1    0    0  501    0  0.00000000000E+00 -0.00000000000E+00 -0.30581599590E+04  0.30581599590E+04  0.25500000000E-02 0. -1.
    8880022    1    1    2    0    0  0.59912767383E+03  0.22505447501E+03 -0.19811977955E+04  0.20876158277E+04  0.15294330000E+03 0.  0.
    8880022    1    1    2    0    0 -0.59912767383E+03 -0.22505447501E+03 -0.91801595381E+03  0.11294903411E+04  0.15294330000E+03 0.  0.
<mgrwt>
<rscale>  0 0.65802366E+03</rscale>
<asrwt>0</asrwt>
<pdfrwt beam="1">  1        2 0.47048610E+00 0.65802366E+03</pdfrwt>
<pdfrwt beam="2">  1       -2 0.24453265E-01 0.65802366E+03</pdfrwt>
<totfact> 0.25708103E+01</totfact>
</mgrwt>
</event>
<event>
 4    1  0.5387657E-008  0.2803143E+03  0.7818608E-02  0.1095517E+00
          2   -1    0    0  501    0  0.00000000000E+00  0.00000000000E+00  0.25780140669E+04  0.25780140669E+04  0.25500000000E-02 0. -1.
         -2   -1    0    0    0  501 -0.00000000000E+00 -0.00000000000E+00 -0.45809045695E+02  0.45809045766E+02  0.25500000000E-02 0.  1.
    8880022    1    1    2    0    0 -0.12654318770E+03  0.19791740506E+03  0.50718242702E+03  0.57949128110E+03  0.15294330000E+03 0.  0.
    8880022    1    1    2    0    0  0.12654318770E+03 -0.19791740506E+03  0.20250225942E+04  0.20443318316E+04  0.15294330000E+03 0.  0.
<mgrwt>
<rscale>  0 0.28031434E+03</rscale>
<asrwt>0</asrwt>
<pdfrwt beam="1">  1        2 0.39661764E+00 0.28031434E+03</pdfrwt>
<pdfrwt beam="2">  1       -2 0.70475438E-02 0.28031434E+03</pdfrwt>
<totfact> 0.41832402E+02</totfact>
</mgrwt>
</event>
<event>
 4    1  0.5387657E-008  0.2931601E+03  0.7818608E-02  0.1088711E+00
         -2   -1    0    0    0  501 -0.00000000000E+00  0.00000000000E+00  0.54321859259E+03  0.54321859260E+03  0.25500000000E-02 0.  1.
          2   -1    0    0  501    0  0.00000000000E+00 -0.00000000000E+00 -0.90271541800E+03  0.90271541801E+03  0.25500000000E-02 0. -1.
    8880022    1    1    2    0    0  0.13571605098E+03 -0.21007697681E+03 -0.83631209998E+03  0.88620582500E+03  0.15294330000E+03 0.  0.
    8880022    1    1    2    0    0 -0.13571605098E+03  0.21007697681E+03  0.47681527457E+03  0.55972818560E+03  0.15294330000E+03 0.  1.
<mgrwt>
<rscale>  0 0.29316009E+03</rscale>
<asrwt>0</asrwt>
<pdfrwt beam="1">  1        2 0.13887929E+00 0.29316009E+03</pdfrwt>
<pdfrwt beam="2">  1       -2 0.83572091E-01 0.29316009E+03</pdfrwt>
<totfact> 0.39498283E+01</totfact>
</mgrwt>
</event>
<event>
 4    1  0.5387657E-008  0.4075692E+03  0.7818608E-02  0.1041190E+00
          2   -1    0    0  501    0  0.00000000000E+00  0.00000000000E+00  0.20775589480E+04  0.20775589480E+04  0.25500000000E-02 0. -1.
         -2   -1    0    0    0  501 -0.00000000000E+00 -0.00000000000E+00 -0.22309309450E+03  0.22309309451E+03  0.25500000000E-02 0.  1.
    8880022    1    1    2    0    0  0.26103642239E+03 -0.27309525699E+03  0.58197271081E+01  0.40761078917E+03  0.15294330000E+03 0.  1.
    8880022    1    1    2    0    0 -0.26103642239E+03  0.27309525699E+03  0.18486461264E+04  0.18930412533E+04  0.15294330000E+03 0.  0.
<mgrwt>
<rscale>  0 0.40756924E+03</rscale>
<asrwt>0</asrwt>
<pdfrwt beam="1">  1        2 0.31962447E+00 0.40756924E+03</pdfrwt>
<pdfrwt beam="2">  1       -2 0.34322013E-01 0.40756924E+03</pdfrwt>
<totfact> 0.52482039E+01</totfact>
</mgrwt>
</event>
<event>
 4    1  0.5387657E-008  0.4818073E+03  0.7818608E-02  0.1018640E+00
         -2   -1    0    0    0  501 -0.00000000000E+00  0.00000000000E+00  0.34835151058E+03  0.34835151059E+03  0.25500000000E-02 0.  1.
          2   -1    0    0  501    0  0.00000000000E+00 -0.00000000000E+00 -0.13721676811E+04  0.13721676811E+04  0.25500000000E-02 0. -1.
    8880022    1    1    2    0    0 -0.42754337558E+03  0.16110010822E+03  0.10505567098E+03  0.49312770141E+03  0.15294330000E+03 0.  1.
    8880022    1    1    2    0    0  0.42754337558E+03 -0.16110010822E+03 -0.11288718415E+04  0.12273914903E+04  0.15294330000E+03 0.  0.
<mgrwt>
<rscale>  0 0.48180726E+03</rscale>
<asrwt>0</asrwt>
<pdfrwt beam="1">  1        2 0.21110272E+00 0.48180726E+03</pdfrwt>
<pdfrwt beam="2">  1       -2 0.53592541E-01 0.48180726E+03</pdfrwt>
<totfact> 0.51939674E+01</totfact>
</mgrwt>
</event>
<event>
 4    1  0.5387657E-008  0.7097088E+03  0.7818608E-02  0.9700771E-01
          2   -1    0    0  501    0  0.00000000000E+00  0.00000000000E+00  0.29360165380E+04  0.29360165380E+04  0.25500000000E-02 0. -1.
         -2   -1    0    0    0  501 -0.00000000000E+00 -0.00000000000E+00 -0.50630714894E+03  0.50630714894E+03  0.25500000000E-02 0.  1.
    8880022    1    1    2    0    0  0.63490155620E+03  0.27783973041E+03 -0.18465772239E+03  0.73333827754E+03  0.15294330000E+03 0.  0.
    8880022    1    1    2    0    0 -0.63490155620E+03 -0.27783973041E+03  0.26143671115E+04  0.27089854094E+04  0.15294330000E+03 0.  0.
<mgrwt>
<rscale>  0 0.70970878E+03</rscale>
<asrwt>0</asrwt>
<pdfrwt beam="1">  1        2 0.45169485E+00 0.70970878E+03</pdfrwt>
<pdfrwt beam="2">  1       -2 0.77893408E-01 0.70970878E+03</pdfrwt>
<totfact> 0.30076424E+00</totfact>
</mgrwt>
</event>
<event>
 4    1  0.5387657E-008  0.1122695E+04  0.7818608E-02  0.9183350E-01
          2   -1    0    0  501    0  0.00000000000E+00  0.00000000000E+00  0.71978076474E+03  0.71978076474E+03  0.25500000000E-02 0. -1.
         -2   -1    0    0    0  501 -0.00000000000E+00 -0.00000000000E+00 -0.21259434394E+04  0.21259434394E+04  0.25500000000E-02 0.  1.
    8880022    1    1    2    0    0  0.10984741054E+04  0.17437716232E+03 -0.10565730304E+03  0.11276559199E+04  0.15294330000E+03 0.  0.
    8880022    1    1    2    0    0 -0.10984741054E+04 -0.17437716232E+03 -0.13005053716E+04  0.17180682843E+04  0.15294330000E+03 0.  0.
<mgrwt>
<rscale>  0 0.11226952E+04</rscale>
<asrwt>0</asrwt>
<pdfrwt beam="1">  1        2 0.11073550E+00 0.11226952E+04</pdfrwt>
<pdfrwt beam="2">  1       -2 0.32706822E+00 0.11226952E+04</pdfrwt>
<totfact> 0.85034507E-01</totfact>
</mgrwt>
</event>
<event>
 4    1  0.5387657E-008  0.6314542E+03  0.7818608E-02  0.9842215E-01
          2   -1    0    0  501    0  0.00000000000E+00  0.00000000000E+00  0.13096925327E+04  0.13096925327E+04  0.25500000000E-02 0. -1.
         -2   -1    0    0    0  501 -0.00000000000E+00 -0.00000000000E+00 -0.47099740075E+03  0.47099740076E+03  0.25500000000E-02 0.  1.
    8880022    1    1    2    0    0 -0.40411940122E+03 -0.46046738571E+03 -0.11009579919E+03  0.64098006347E+03  0.15294330000E+03 0.  0.
    8880022    1    1    2    0    0  0.40411940122E+03  0.46046738571E+03  0.94879093114E+03  0.11397098700E+04  0.15294330000E+03 0.  0.
<mgrwt>
<rscale>  0 0.63145416E+03</rscale>
<asrwt>0</asrwt>
<pdfrwt beam="1">  1        2 0.20149116E+00 0.63145416E+03</pdfrwt>
<pdfrwt beam="2">  1       -2 0.72461140E-01 0.63145416E+03</pdfrwt>
<totfact> 0.29095648E+01</totfact>
</mgrwt>
</event>
<event>
 4    1  0.5387657E-008  0.1013293E+04  0.7818608E-02  0.9294084E-01
         -2   -1    0    0    0  501 -0.00000000000E+00  0.00000000000E+00  0.13495295646E+04  0.13495295646E+04  0.25500000000E-02 0.  1.
          2   -1    0    0  501    0  0.00000000000E+00 -0.00000000000E+00 -0.79161450990E+03  0.79161450990E+03  0.25500000000E-02 0. -1.
    8880022    1    1    2    0    0  0.94761363921E+03 -0.32465262339E+03  0.49007544579E+03  0.11255827516E+04  0.15294330000E+03 0.  0.
    8880022    1    1    2    0    0 -0.94761363921E+03  0.32465262339E+03  0.67839608934E+02  0.10155613229E+04  0.15294330000E+03 0.  0.
<mgrwt>
<rscale>  0 0.10132929E+04</rscale>
<asrwt>0</asrwt>
<pdfrwt beam="1">  1        2 0.12178685E+00 0.10132929E+04</pdfrwt>
<pdfrwt beam="2">  1       -2 0.20761993E+00 0.10132929E+04</pdfrwt>
<totfact> 0.41110787E+00</totfact>
</mgrwt>
</event>
<event>
 4    1  0.5387657E-008  0.4308167E+03  0.7818608E-02  0.1033602E+00
         -2   -1    0    0    0  501 -0.00000000000E+00  0.00000000000E+00  0.28800569147E+04  0.28800569147E+04  0.25500000000E-02 0.  1.
          2   -1    0    0  501    0  0.00000000000E+00 -0.00000000000E+00 -0.87656840331E+02  0.87656840368E+02  0.25500000000E-02 0. -1.
    8880022    1    1    2    0    0 -0.18547206690E+03  0.35750732830E+03  0.21597916735E+04  0.22023403696E+04  0.15294330000E+03 0.  0.
    8880022    1    1    2    0    0  0.18547206690E+03 -0.35750732830E+03  0.63260840082E+03  0.76537338548E+03  0.15294330000E+03 0.  0.
<mgrwt>
<rscale>  0 0.43081670E+03</rscale>
<asrwt>0</asrwt>
<pdfrwt beam="1">  1        2 0.13485670E-01 0.43081670E+03</pdfrwt>
<pdfrwt beam="2">  1       -2 0.44308560E+00 0.43081670E+03</pdfrwt>
<totfact> 0.19942944E+00</totfact>
</mgrwt>
</event>
<event>
 4    1  0.5387657E-008  0.9150062E+03  0.7818608E-02  0.9407015E-01
          2   -1    0    0  501    0  0.00000000000E+00  0.00000000000E+00  0.22936431310E+04  0.22936431310E+04  0.25500000000E-02 0. -1.
         -2   -1    0    0    0  501 -0.00000000000E+00 -0.00000000000E+00 -0.80178837395E+03  0.80178837396E+03  0.25500000000E-02 0.  1.
    8880022    1    1    2    0    0 -0.48076620493E+03  0.76335351119E+03  0.18882389712E+04  0.20982570844E+04  0.15294330000E+03 0.  0.
    8880022    1    1    2    0    0  0.48076620493E+03 -0.76335351119E+03 -0.39638421413E+03  0.99717442059E+03  0.15294330000E+03 0.  1.
<mgrwt>
<rscale>  0 0.91500622E+03</rscale>
<asrwt>0</asrwt>
<pdfrwt beam="1">  1        2 0.35286817E+00 0.91500622E+03</pdfrwt>
<pdfrwt beam="2">  1       -2 0.12335206E+00 0.91500622E+03</pdfrwt>
<totfact> 0.23018460E+00</totfact>
</mgrwt>
</event>
<event>
 4    1  0.5387657E-008  0.4940100E+03  0.7818608E-02  0.1015354E+00
          2   -1    0    0  501    0  0.00000000000E+00  0.00000000000E+00  0.37436237036E+04  0.37436237036E+04  0.25500000000E-02 0. -1.
         -2   -1    0    0    0  501 -0.00000000000E+00 -0.00000000000E+00 -0.28781306784E+03  0.28781306785E+03  0.25500000000E-02 0.  1.
    8880022    1    1    2    0    0 -0.44548171204E+03  0.14899767918E+03 -0.44895412577E+02  0.49604588019E+03  0.15294330000E+03 0.  0.
    8880022    1    1    2    0    0  0.44548171204E+03 -0.14899767918E+03  0.35007060483E+04  0.35353908913E+04  0.15294330000E+03 0.  0.
<mgrwt>
<rscale>  0 0.49401004E+03</rscale>
<asrwt>0</asrwt>
<pdfrwt beam="1">  1        2 0.57594211E+00 0.49401004E+03</pdfrwt>
<pdfrwt beam="2">  1       -2 0.44278934E-01 0.49401004E+03</pdfrwt>
<totfact> 0.30837903E+00</totfact>
</mgrwt>
</event>
<event>
 4    1  0.5387657E-008  0.3401560E+03  0.7818608E-02  0.1066730E+00
          2   -1    0    0  501    0  0.00000000000E+00  0.00000000000E+00  0.92468373199E+03  0.92468373199E+03  0.25500000000E-02 0. -1.
         -2   -1    0    0    0  501 -0.00000000000E+00 -0.00000000000E+00 -0.46202778978E+03  0.46202778979E+03  0.25500000000E-02 0.  1.
    8880022    1    1    2    0    0  0.85363940720E+02  0.29159464149E+03  0.82339499218E+03  0.89089023088E+03  0.15294330000E+03 0.  0.
    8880022    1    1    2    0    0 -0.85363940720E+02 -0.29159464149E+03 -0.36073904997E+03  0.49582129090E+03  0.15294330000E+03 0.  0.
<mgrwt>
<rscale>  0 0.34015598E+03</rscale>
<asrwt>0</asrwt>
<pdfrwt beam="1">  1        2 0.14225904E+00 0.34015598E+03</pdfrwt>
<pdfrwt beam="2">  1       -2 0.71081198E-01 0.34015598E+03</pdfrwt>
<totfact> 0.54073095E+01</totfact>
</mgrwt>
</event>
<event>
 4    1  0.5387657E-008  0.5039300E+03  0.7818608E-02  0.1012758E+00
          2   -1    0    0  501    0  0.00000000000E+00  0.00000000000E+00  0.17048757108E+04  0.17048757108E+04  0.25500000000E-02 0. -1.
         -2   -1    0    0    0  501 -0.00000000000E+00 -0.00000000000E+00 -0.34186449732E+03  0.34186449733E+03  0.25500000000E-02 0.  1.
    8880022    1    1    2    0    0 -0.41048227963E+02 -0.47840237162E+03 -0.87244843865E+02  0.51142653625E+03  0.15294330000E+03 0.  0.
    8880022    1    1    2    0    0  0.41048227963E+02  0.47840237162E+03  0.14502560574E+04  0.15353136719E+04  0.15294330000E+03 0.  0.
<mgrwt>
<rscale>  0 0.50392999E+03</rscale>
<asrwt>0</asrwt>
<pdfrwt beam="1">  1        2 0.26228857E+00 0.50392999E+03</pdfrwt>
<pdfrwt beam="2">  1       -2 0.52594539E-01 0.50392999E+03</pdfrwt>
<totfact> 0.35357150E+01</totfact>
</mgrwt>
</event>
<event>
 4    1  0.5387657E-008  0.4167517E+03  0.7818608E-02  0.1038129E+00
         -2   -1    0    0    0  501 -0.00000000000E+00  0.00000000000E+00  0.61324227175E+03  0.61324227175E+03  0.25500000000E-02 0.  1.
          2   -1    0    0  501    0  0.00000000000E+00 -0.00000000000E+00 -0.14559464694E+04  0.14559464694E+04  0.25500000000E-02 0. -1.
    8880022    1    1    2    0    0  0.37543982404E+03 -0.96619341040E+02  0.50717783988E+03  0.65643839986E+03  0.15294330000E+03 0.  0.
    8880022    1    1    2    0    0 -0.37543982404E+03  0.96619341040E+02 -0.13498820375E+04  0.14127503413E+04  0.15294330000E+03 0. -1.
<mgrwt>
<rscale>  0 0.41675174E+03</rscale>
<asrwt>0</asrwt>
<pdfrwt beam="1">  1        2 0.22399176E+00 0.41675174E+03</pdfrwt>
<pdfrwt beam="2">  1       -2 0.94344966E-01 0.41675174E+03</pdfrwt>
<totfact> 0.13806866E+01</totfact>
</mgrwt>
</event>
<event>
 4    1  0.5387657E-008  0.3994053E+03  0.7818608E-02  0.1043986E+00
         -2   -1    0    0    0  501 -0.00000000000E+00  0.00000000000E+00  0.11868943774E+04  0.11868943774E+04  0.25500000000E-02 0.  1.
          2   -1    0    0  501    0  0.00000000000E+00 -0.00000000000E+00 -0.22088798041E+03  0.22088798043E+03  0.25500000000E-02 0. -1.
    8880022    1    1    2    0    0 -0.13868666501E+03 -0.34190486000E+03  0.42565258243E+02  0.40166699960E+03  0.15294330000E+03 0. -1.
    8880022    1    1    2    0    0  0.13868666501E+03  0.34190486000E+03  0.92344113876E+03  0.10061153583E+04  0.15294330000E+03 0.  0.
<mgrwt>
<rscale>  0 0.39940528E+03</rscale>
<asrwt>0</asrwt>
<pdfrwt beam="1">  1        2 0.33982766E-01 0.39940528E+03</pdfrwt>
<pdfrwt beam="2">  1       -2 0.18259913E+00 0.39940528E+03</pdfrwt>
<totfact> 0.28210011E+01</totfact>
</mgrwt>
</event>
<event>
 4    1  0.5387657E-008  0.6255825E+03  0.7818608E-02  0.9853707E-01
          2   -1    0    0  501    0  0.00000000000E+00  0.00000000000E+00  0.20395309041E+04  0.20395309041E+04  0.25500000000E-02 0. -1.
         -2   -1    0    0    0  501 -0.00000000000E+00 -0.00000000000E+00 -0.31618373924E+03  0.31618373925E+03  0.25500000000E-02 0.  1.
    8880022    1    1    2    0    0 -0.60160457573E+03 -0.77677438719E+02  0.12316100462E+03  0.63759088458E+03  0.15294330000E+03 0.  0.
    8880022    1    1    2    0    0  0.60160457573E+03  0.77677438719E+02  0.16001861602E+04  0.17181237588E+04  0.15294330000E+03 0.  0.
<mgrwt>
<rscale>  0 0.62558253E+03</rscale>
<asrwt>0</asrwt>
<pdfrwt beam="1">  1        2 0.31377399E+00 0.62558253E+03</pdfrwt>
<pdfrwt beam="2">  1       -2 0.48643652E-01 0.62558253E+03</pdfrwt>
<totfact> 0.26766515E+01</totfact>
</mgrwt>
</event>
<event>
 4    1  0.5387657E-008  0.2056067E+03  0.7818608E-02  0.1145093E+00
          2   -1    0    0  501    0  0.00000000000E+00  0.00000000000E+00  0.20084731252E+04  0.20084731252E+04  0.25500000000E-02 0. -1.
         -2   -1    0    0    0  501 -0.00000000000E+00 -0.00000000000E+00 -0.98471130002E+02  0.98471130035E+02  0.25500000000E-02 0.  1.
    8880022    1    1    2    0    0  0.10718287870E+03  0.85990077732E+02  0.18891244318E+04  0.19002803043E+04  0.15294330000E+03 0. -1.
    8880022    1    1    2    0    0 -0.10718287870E+03 -0.85990077732E+02  0.20877563383E+02  0.20666395095E+03  0.15294330000E+03 0.  0.
<mgrwt>
<rscale>  0 0.20560670E+03</rscale>
<asrwt>0</asrwt>
<pdfrwt beam="1">  1        2 0.30899586E+00 0.20560670E+03</pdfrwt>
<pdfrwt beam="2">  1       -2 0.15149405E-01 0.20560670E+03</pdfrwt>
<totfact> 0.25305776E+02</totfact>
</mgrwt>
</event>
<event>
 4    1  0.5387657E-008  0.1149027E+04  0.7818608E-02  0.9158682E-01
         -2   -1    0    0    0  501 -0.00000000000E+00  0.00000000000E+00  0.21578817897E+04  0.21578817897E+04  0.25500000000E-02 0.  1.
          2   -1    0    0  501    0  0.00000000000E+00 -0.00000000000E+00 -0.12160365602E+04  0.12160365602E+04  0.25500000000E-02 0. -1.
    8880022    1    1    2    0    0 -0.51768355292E+03  0.10143346375E+04  0.16600352653E+04  0.20189055830E+04  0.15294330000E+03 0.  0.
    8880022    1    1    2    0    0  0.51768355292E+03 -0.10143346375E+04 -0.71819003593E+03  0.13550127669E+04  0.15294330000E+03 0.  0.
<mgrwt>
<rscale>  0 0.11490268E+04</rscale>
<asrwt>0</asrwt>
<pdfrwt beam="1">  1        2 0.18708255E+00 0.11490268E+04</pdfrwt>
<pdfrwt beam="2">  1       -2 0.33198181E+00 0.11490268E+04</pdfrwt>
<totfact> 0.36876453E-01</totfact>
</mgrwt>
</event>
<event>
 4    1  0.5387657E-008  0.2323578E+03  0.7818608E-02  0.1124991E+00
         -2   -1    0    0    0  501 -0.00000000000E+00  0.00000000000E+00  0.29159755543E+03  0.29159755544E+03  0.25500000000E-02 0.  1.
          2   -1    0    0  501    0  0.00000000000E+00 -0.00000000000E+00 -0.27711929235E+04  0.27711929235E+04  0.25500000000E-02 0. -1.
    8880022    1    1    2    0    0 -0.15347722323E+03  0.83923975117E+02  0.23955433818E+03  0.33373106778E+03  0.15294330000E+03 0.  0.
    8880022    1    1    2    0    0  0.15347722323E+03 -0.83923975117E+02 -0.27191497062E+04  0.27290594111E+04  0.15294330000E+03 0. -1.
<mgrwt>
<rscale>  0 0.23235779E+03</rscale>
<asrwt>0</asrwt>
<pdfrwt beam="1">  1        2 0.42633736E+00 0.23235779E+03</pdfrwt>
<pdfrwt beam="2">  1       -2 0.44861164E-01 0.23235779E+03</pdfrwt>
<totfact> 0.13970738E+01</totfact>
</mgrwt>
</event>
<event>
 4    1  0.5387657E-008  0.1184439E+04  0.7818608E-02  0.9126587E-01
         -2   -1    0    0    0  501 -0.00000000000E+00  0.00000000000E+00  0.62934726046E+03  0.62934726047E+03  0.25500000000E-02 0.  1.
          2   -1    0    0  501    0  0.00000000000E+00 -0.00000000000E+00 -0.32246170268E+04  0.32246170268E+04  0.25500000000E-02 0. -1.
    8880022    1    1    2    0    0 -0.24169871602E+03  0.11493853383E+04 -0.23683070636E+04  0.26479756279E+04  0.15294330000E+03 0.  0.
    8880022    1    1    2    0    0  0.24169871602E+03 -0.11493853383E+04 -0.22696270269E+03  0.12059886594E+04  0.15294330000E+03 0.  0.
<mgrwt>
<rscale>  0 0.11844394E+04</rscale>
<asrwt>0</asrwt>
<pdfrwt beam="1">  1        2 0.49609492E+00 0.11844394E+04</pdfrwt>
<pdfrwt beam="2">  1       -2 0.96822657E-01 0.11844394E+04</pdfrwt>
<totfact> 0.11107741E+00</totfact>
</mgrwt>
</event>
<event>
 4    1  0.5387657E-008  0.5992815E+03  0.7818608E-02  0.9906898E-01
          2   -1    0    0  501    0  0.00000000000E+00  0.00000000000E+00  0.76522583740E+03  0.76522583741E+03  0.25500000000E-02 0. -1.
         -2   -1    0    0    0  501 -0.00000000000E+00 -0.00000000000E+00 -0.65313135626E+03  0.65313135627E+03  0.25500000000E-02 0.  1.
    8880022    1    1    2    0    0 -0.53457318887E+03  0.22355787394E+03 -0.32016913360E+03  0.67944576265E+03  0.15294330000E+03 0.  1.
    8880022    1    1    2    0    0  0.53457318887E+03 -0.22355787394E+03  0.43226361473E+03  0.73891143102E+03  0.15294330000E+03 0.  0.
<mgrwt>
<rscale>  0 0.59928146E+03</rscale>
<asrwt>0</asrwt>
<pdfrwt beam="1">  1        2 0.11772705E+00 0.59928146E+03</pdfrwt>
<pdfrwt beam="2">  1       -2 0.10048175E+00 0.59928146E+03</pdfrwt>
<totfact> 0.30693346E+01</totfact>
</mgrwt>
</event>
<event>
 4    1  0.5387657E-008  0.4173647E+03  0.7818608E-02  0.1037927E+00
         -2   -1    0    0    0  501 -0.00000000000E+00  0.00000000000E+00  0.20799719919E+03  0.20799719920E+03  0.25500000000E-02 0.  1.
          2   -1    0    0  501    0  0.00000000000E+00 -0.00000000000E+00 -0.11532735696E+04  0.11532735696E+04  0.25500000000E-02 0. -1.
    8880022    1    1    2    0    0 -0.66054981812E+02 -0.38267269656E+03 -0.11647369615E+03  0.43331216025E+03  0.15294330000E+03 0.  0.
    8880022    1    1    2    0    0  0.66054981812E+02  0.38267269656E+03 -0.82880267426E+03  0.92795860855E+03  0.15294330000E+03 0.  0.
<mgrwt>
<rscale>  0 0.41736472E+03</rscale>
<asrwt>0</asrwt>
<pdfrwt beam="1">  1        2 0.17742670E+00 0.41736472E+03</pdfrwt>
<pdfrwt beam="2">  1       -2 0.31999570E-01 0.41736472E+03</pdfrwt>
<totfact> 0.19103985E+02</totfact>
</mgrwt>
</event>
<event>
 4    1  0.5387657E-008  0.4263051E+03  0.7818608E-02  0.1035034E+00
          2   -1    0    0  501    0  0.00000000000E+00  0.00000000000E+00  0.96962499052E+03  0.96962499053E+03  0.25500000000E-02 0. -1.
         -2   -1    0    0    0  501 -0.00000000000E+00 -0.00000000000E+00 -0.78251708843E+03  0.78251708844E+03  0.25500000000E-02 0.  1.
    8880022    1    1    2    0    0 -0.27577535581E+03 -0.28686639691E+03  0.85753567067E+03  0.95765518640E+03  0.15294330000E+03 0.  0.
    8880022    1    1    2    0    0  0.27577535581E+03  0.28686639691E+03 -0.67042776858E+03  0.79448689256E+03  0.15294330000E+03 0.  0.
<mgrwt>
<rscale>  0 0.42630509E+03</rscale>
<asrwt>0</asrwt>
<pdfrwt beam="1">  1        2 0.14917307E+00 0.42630509E+03</pdfrwt>
<pdfrwt beam="2">  1       -2 0.12038725E+00 0.42630509E+03</pdfrwt>
<totfact> 0.14795628E+01</totfact>
</mgrwt>
</event>
<event>
 4    1  0.5387657E-008  0.2852863E+03  0.7818608E-02  0.1092836E+00
         -2   -1    0    0    0  501 -0.00000000000E+00  0.00000000000E+00  0.12745261968E+04  0.12745261968E+04  0.25500000000E-02 0.  1.
          2   -1    0    0  501    0  0.00000000000E+00 -0.00000000000E+00 -0.53282823700E+03  0.53282823701E+03  0.25500000000E-02 0. -1.
    8880022    1    1    2    0    0 -0.23432732065E+03 -0.55563761394E+02 -0.47694925682E+03  0.55575972450E+03  0.15294330000E+03 0. -1.
    8880022    1    1    2    0    0  0.23432732065E+03  0.55563761394E+02  0.12186472166E+04  0.12515947093E+04  0.15294330000E+03 0.  0.
<mgrwt>
<rscale>  0 0.28528631E+03</rscale>
<asrwt>0</asrwt>
<pdfrwt beam="1">  1        2 0.81973575E-01 0.28528631E+03</pdfrwt>
<pdfrwt beam="2">  1       -2 0.19608095E+00 0.28528631E+03</pdfrwt>
<totfact> 0.89193370E+00</totfact>
</mgrwt>
</event>
<event>
 4    1  0.5387657E-008  0.4857637E+03  0.7818608E-02  0.1017563E+00
         -2   -1    0    0    0  501 -0.00000000000E+00  0.00000000000E+00  0.37559631524E+03  0.37559631525E+03  0.25500000000E-02 0.  1.
          2   -1    0    0  501    0  0.00000000000E+00 -0.00000000000E+00 -0.10293015322E+04  0.10293015322E+04  0.25500000000E-02 0. -1.
    8880022    1    1    2    0    0 -0.35161433435E+03  0.29823158615E+03  0.11162400363E+03  0.49842380591E+03  0.15294330000E+03 0.  0.
    8880022    1    1    2    0    0  0.35161433435E+03 -0.29823158615E+03 -0.76532922061E+03  0.90647404157E+03  0.15294330000E+03 0.  0.
<mgrwt>
<rscale>  0 0.48576370E+03</rscale>
<asrwt>0</asrwt>
<pdfrwt beam="1">  1        2 0.15835408E+00 0.48576370E+03</pdfrwt>
<pdfrwt beam="2">  1       -2 0.57784049E-01 0.48576370E+03</pdfrwt>
<totfact> 0.70511312E+01</totfact>
</mgrwt>
</event>
<event>
 4    1  0.5387657E-008  0.1694951E+03  0.7818608E-02  0.1178375E+00
          2   -1    0    0  501    0  0.00000000000E+00  0.00000000000E+00  0.72532772766E+03  0.72532772767E+03  0.25500000000E-02 0. -1.
         -2   -1    0    0    0  501 -0.00000000000E+00 -0.00000000000E+00 -0.16460784349E+03  0.16460784351E+03  0.25500000000E-02 0.  1.
    8880022    1    1    2    0    0 -0.43893594195E+02 -0.58397653808E+02  0.66811592465E+03  0.68928040402E+03  0.15294330000E+03 0.  0.
    8880022    1    1    2    0    0  0.43893594195E+02  0.58397653808E+02 -0.10739604048E+03  0.20065516716E+03  0.15294330000E+03 0.  1.
<mgrwt>
<rscale>  0 0.16949509E+03</rscale>
<asrwt>0</asrwt>
<pdfrwt beam="1">  1        2 0.11158888E+00 0.16949509E+03</pdfrwt>
<pdfrwt beam="2">  1       -2 0.25324283E-01 0.16949509E+03</pdfrwt>
<totfact> 0.56349588E+02</totfact>
</mgrwt>
</event>
<event>
 4    1  0.5387657E-008  0.6658196E+03  0.7818608E-02  0.9777539E-01
         -2   -1    0    0    0  501 -0.00000000000E+00  0.00000000000E+00  0.96537333992E+03  0.96537333992E+03  0.25500000000E-02 0.  1.
          2   -1    0    0  501    0  0.00000000000E+00 -0.00000000000E+00 -0.68112755774E+03  0.68112755774E+03  0.25500000000E-02 0. -1.
    8880022    1    1    2    0    0 -0.59500971092E+03 -0.25668555108E+03 -0.32777868625E+03  0.74212839078E+03  0.15294330000E+03 0.  0.
    8880022    1    1    2    0    0  0.59500971092E+03  0.25668555108E+03  0.61202446843E+03  0.90437250688E+03  0.15294330000E+03 0.  1.
<mgrwt>
<rscale>  0 0.66581956E+03</rscale>
<asrwt>0</asrwt>
<pdfrwt beam="1">  1        2 0.10478885E+00 0.66581956E+03</pdfrwt>
<pdfrwt beam="2">  1       -2 0.14851898E+00 0.66581956E+03</pdfrwt>
<totfact> 0.13363606E+01</totfact>
</mgrwt>
</event>
<event>
 4    1  0.5387657E-008  0.6103100E+03  0.7818608E-02  0.9884244E-01
          2   -1    0    0  501    0  0.00000000000E+00  0.00000000000E+00  0.17798377475E+04  0.17798377475E+04  0.25500000000E-02 0. -1.
         -2   -1    0    0    0  501 -0.00000000000E+00 -0.00000000000E+00 -0.29350502043E+03  0.29350502044E+03  0.25500000000E-02 0.  1.
    8880022    1    1    2    0    0 -0.54912085524E+03  0.21806647673E+03  0.12985111841E+04  0.14347855764E+04  0.15294330000E+03 0.  0.
    8880022    1    1    2    0    0  0.54912085524E+03 -0.21806647673E+03  0.18782154301E+03  0.63855719161E+03  0.15294330000E+03 0.  0.
<mgrwt>
<rscale>  0 0.61031005E+03</rscale>
<asrwt>0</asrwt>
<pdfrwt beam="1">  1        2 0.27382119E+00 0.61031005E+03</pdfrwt>
<pdfrwt beam="2">  1       -2 0.45154619E-01 0.61031005E+03</pdfrwt>
<totfact> 0.43060382E+01</totfact>
</mgrwt>
</event>
<event>
 4    1  0.5387657E-008  0.8237812E+03  0.7818608E-02  0.9526219E-01
          2   -1    0    0  501    0  0.00000000000E+00  0.00000000000E+00  0.14563354236E+04  0.14563354236E+04  0.25500000000E-02 0. -1.
         -2   -1    0    0    0  501 -0.00000000000E+00 -0.00000000000E+00 -0.67817390032E+03  0.67817390032E+03  0.25500000000E-02 0.  1.
    8880022    1    1    2    0    0  0.10502856955E+02 -0.80939085763E+03  0.98607391851E+03  0.12848958309E+04  0.15294330000E+03 0.  0.
    8880022    1    1    2    0    0 -0.10502856955E+02  0.80939085763E+03 -0.20791239525E+03  0.84961349303E+03  0.15294330000E+03 0.  0.
<mgrwt>
<rscale>  0 0.82378124E+03</rscale>
<asrwt>0</asrwt>
<pdfrwt beam="1">  1        2 0.22405160E+00 0.82378124E+03</pdfrwt>
<pdfrwt beam="2">  1       -2 0.10433445E+00 0.82378124E+03</pdfrwt>
<totfact> 0.10173476E+01</totfact>
</mgrwt>
</event>
<event>
 4    1  0.5387657E-008  0.4395981E+03  0.7818608E-02  0.1030870E+00
          2   -1    0    0  501    0  0.00000000000E+00  0.00000000000E+00  0.25715623143E+04  0.25715623143E+04  0.25500000000E-02 0. -1.
         -2   -1    0    0    0  501 -0.00000000000E+00 -0.00000000000E+00 -0.21257327954E+03  0.21257327955E+03  0.25500000000E-02 0.  1.
    8880022    1    1    2    0    0  0.40918013782E+03  0.49259070159E+02  0.60210903547E+02  0.44370243080E+03  0.15294330000E+03 0.  0.
    8880022    1    1    2    0    0 -0.40918013782E+03 -0.49259070159E+02  0.22987781312E+04  0.23404331631E+04  0.15294330000E+03 0.  0.
<mgrwt>
<rscale>  0 0.43959811E+03</rscale>
<asrwt>0</asrwt>
<pdfrwt beam="1">  1        2 0.39562495E+00 0.43959811E+03</pdfrwt>
<pdfrwt beam="2">  1       -2 0.32703583E-01 0.43959811E+03</pdfrwt>
<totfact> 0.30587076E+01</totfact>
</mgrwt>
</event>
<event>
 4    1  0.5387657E-008  0.8767725E+03  0.7818608E-02  0.9455092E-01
          2   -1    0    0  501    0  0.00000000000E+00  0.00000000000E+00  0.12046446661E+04  0.12046446661E+04  0.25500000000E-02 0. -1.
         -2   -1    0    0    0  501 -0.00000000000E+00 -0.00000000000E+00 -0.85653125967E+03  0.85653125968E+03  0.25500000000E-02 0.  1.
    8880022    1    1    2    0    0  0.51598904729E+03  0.69216598659E+03 -0.34633768650E+03  0.94269819986E+03  0.15294330000E+03 0.  0.
    8880022    1    1    2    0    0 -0.51598904729E+03 -0.69216598659E+03  0.69445109295E+03  0.11184777259E+04  0.15294330000E+03 0.  0.
<mgrwt>
<rscale>  0 0.87677255E+03</rscale>
<asrwt>0</asrwt>
<pdfrwt beam="1">  1        2 0.18532995E+00 0.87677255E+03</pdfrwt>
<pdfrwt beam="2">  1       -2 0.13177404E+00 0.87677255E+03</pdfrwt>
<totfact> 0.79351530E+00</totfact>
</mgrwt>
</event>
<event>
 4    1  0.5387657E-008  0.8908767E+03  0.7818608E-02  0.9437058E-01
          2   -1    0    0  501    0  0.00000000000E+00  0.00000000000E+00  0.26264360467E+04  0.26264360467E+04  0.25500000000E-02 0. -1.
         -2   -1    0    0    0  501 -0.00000000000E+00 -0.00000000000E+00 -0.61642167681E+03  0.61642167682E+03  0.25500000000E-02 0.  1.
    8880022    1    1    2    0    0 -0.50340577323E+03 -0.71892438749E+03  0.21626899351E+04  0.23389931714E+04  0.15294330000E+03 0.  0.
    8880022    1    1    2    0    0  0.50340577323E+03  0.71892438749E+03 -0.15267556516E+03  0.90386455217E+03  0.15294330000E+03 0.  0.
<mgrwt>
<rscale>  0 0.89087670E+03</rscale>
<asrwt>0</asrwt>
<pdfrwt beam="1">  1        2 0.40406708E+00 0.89087670E+03</pdfrwt>
<pdfrwt beam="2">  1       -2 0.94834104E-01 0.89087670E+03</pdfrwt>
<totfact> 0.28257094E+00</totfact>
</mgrwt>
</event>
<event>
 4    1  0.5387657E-008  0.6788698E+03  0.7818608E-02  0.9754066E-01
         -2   -1    0    0    0  501 -0.00000000000E+00  0.00000000000E+00  0.74424960701E+03  0.74424960702E+03  0.25500000000E-02 0.  1.
          2   -1    0    0  501    0  0.00000000000E+00 -0.00000000000E+00 -0.11715050359E+04  0.11715050359E+04  0.25500000000E-02 0. -1.
    8880022    1    1    2    0    0 -0.27612560820E+03  0.60102176410E+03  0.44405163651E+03  0.81120035831E+03  0.15294330000E+03 0.  0.
    8880022    1    1    2    0    0  0.27612560820E+03 -0.60102176410E+03 -0.87130706538E+03  0.11045542846E+04  0.15294330000E+03 0.  0.
<mgrwt>
<rscale>  0 0.67886977E+03</rscale>
<asrwt>0</asrwt>
<pdfrwt beam="1">  1        2 0.18023155E+00 0.67886977E+03</pdfrwt>
<pdfrwt beam="2">  1       -2 0.11449994E+00 0.67886977E+03</pdfrwt>
<totfact> 0.12076761E+01</totfact>
</mgrwt>
</event>
<event>
 4    1  0.5387657E-008  0.4457143E+03  0.7818608E-02  0.1029008E+00
         -2   -1    0    0    0  501 -0.00000000000E+00  0.00000000000E+00  0.22647169919E+03  0.22647169920E+03  0.25500000000E-02 0.  1.
          2   -1    0    0  501    0  0.00000000000E+00 -0.00000000000E+00 -0.17013551591E+04  0.17013551591E+04  0.25500000000E-02 0. -1.
    8880022    1    1    2    0    0 -0.41197547616E+03  0.74470157312E+02 -0.66561939135E+02  0.45065701154E+03  0.15294330000E+03 0.  0.
    8880022    1    1    2    0    0  0.41197547616E+03 -0.74470157312E+02 -0.14083215208E+04  0.14771698468E+04  0.15294330000E+03 0.  0.
<mgrwt>
<rscale>  0 0.44571431E+03</rscale>
<asrwt>0</asrwt>
<pdfrwt beam="1">  1        2 0.26174694E+00 0.44571431E+03</pdfrwt>
<pdfrwt beam="2">  1       -2 0.34841801E-01 0.44571431E+03</pdfrwt>
<totfact> 0.80495132E+01</totfact>
</mgrwt>
</event>
<event>
 4    1  0.5387657E-008  0.3147511E+03  0.7818608E-02  0.1078091E+00
         -2   -1    0    0    0  501 -0.00000000000E+00  0.00000000000E+00  0.18146167323E+03  0.18146167325E+03  0.25500000000E-02 0.  1.
          2   -1    0    0  501    0  0.00000000000E+00 -0.00000000000E+00 -0.68114819254E+03  0.68114819255E+03  0.25500000000E-02 0. -1.
    8880022    1    1    2    0    0  0.24425168165E+03  0.12656122342E+03 -0.44199991840E+03  0.54261607804E+03  0.15294330000E+03 0.  0.
    8880022    1    1    2    0    0 -0.24425168165E+03 -0.12656122342E+03 -0.57686600911E+02  0.31999378776E+03  0.15294330000E+03 0.  0.
<mgrwt>
<rscale>  0 0.31475114E+03</rscale>
<asrwt>0</asrwt>
<pdfrwt beam="1">  1        2 0.10479203E+00 0.31475114E+03</pdfrwt>
<pdfrwt beam="2">  1       -2 0.27917181E-01 0.31475114E+03</pdfrwt>
<totfact> 0.50722700E+02</totfact>
</mgrwt>
</event>
<event>
 4    1  0.5387657E-008  0.3305699E+03  0.7818608E-02  0.1070885E+00
          2   -1    0    0  501    0  0.00000000000E+00  0.00000000000E+00  0.21576699776E+04  0.21576699776E+04  0.25500000000E-02 0. -1.
         -2   -1    0    0    0  501 -0.00000000000E+00 -0.00000000000E+00 -0.10808966392E+03  0.10808966395E+03  0.25500000000E-02 0.  1.
    8880022    1    1    2    0    0  0.15915976544E+03 -0.24607520025E+03  0.19891511734E+03  0.38580268536E+03  0.15294330000E+03 0.  0.
    8880022    1    1    2    0    0 -0.15915976544E+03  0.24607520025E+03  0.18506651963E+04  0.18799569561E+04  0.15294330000E+03 0.  0.
<mgrwt>
<rscale>  0 0.33056994E+03</rscale>
<asrwt>0</asrwt>
<pdfrwt beam="1">  1        2 0.33194920E+00 0.33056994E+03</pdfrwt>
<pdfrwt beam="2">  1       -2 0.16629180E-01 0.33056994E+03</pdfrwt>
<totfact> 0.17500530E+02</totfact>
</mgrwt>
</event>
<event>
 4    1  0.5387657E-008  0.2887779E+03  0.7818608E-02  0.1090989E+00
         -2   -1    0    0    0  501 -0.00000000000E+00  0.00000000000E+00  0.45384339840E+03  0.45384339840E+03  0.25500000000E-02 0.  1.
          2   -1    0    0  501    0  0.00000000000E+00 -0.00000000000E+00 -0.22647868323E+03  0.22647868325E+03  0.25500000000E-02 0. -1.
    8880022    1    1    2    0    0  0.15092273353E+03 -0.19293351653E+03  0.26143746748E+03  0.38954103213E+03  0.15294330000E+03 0.  1.
    8880022    1    1    2    0    0 -0.15092273353E+03  0.19293351653E+03 -0.34072752313E+02  0.29078104952E+03  0.15294330000E+03 0. -1.
<mgrwt>
<rscale>  0 0.28877788E+03</rscale>
<asrwt>0</asrwt>
<pdfrwt beam="1">  1        2 0.34842874E-01 0.28877788E+03</pdfrwt>
<pdfrwt beam="2">  1       -2 0.69822062E-01 0.28877788E+03</pdfrwt>
<totfact> 0.28649320E+02</totfact>
</mgrwt>
</event>
<event>
 4    1  0.5387657E-008  0.3028334E+03  0.7818608E-02  0.1083833E+00
         -2   -1    0    0    0  501 -0.00000000000E+00  0.00000000000E+00  0.19642768978E+03  0.19642768979E+03  0.25500000000E-02 0.  1.
          2   -1    0    0  501    0  0.00000000000E+00 -0.00000000000E+00 -0.94287699464E+03  0.94287699464E+03  0.25500000000E-02 0. -1.
    8880022    1    1    2    0    0 -0.12428337640E+02 -0.26107842305E+03  0.31523342298E+02  0.30446967121E+03  0.15294330000E+03 0.  0.
    8880022    1    1    2    0    0  0.12428337640E+02  0.26107842305E+03 -0.77797264716E+03  0.83483501322E+03  0.15294330000E+03 0.  0.
<mgrwt>
<rscale>  0 0.30283339E+03</rscale>
<asrwt>0</asrwt>
<pdfrwt beam="1">  1        2 0.14505800E+00 0.30283339E+03</pdfrwt>
<pdfrwt beam="2">  1       -2 0.30219645E-01 0.30283339E+03</pdfrwt>
<totfact> 0.28897135E+02</totfact>
</mgrwt>
</event>
<event>
 4    1  0.5387657E-008  0.1106082E+04  0.7818608E-02  0.9199284E-01
         -2   -1    0    0    0  501 -0.00000000000E+00  0.00000000000E+00  0.79144876509E+03  0.79144876510E+03  0.25500000000E-02 0.  1.
          2   -1    0    0  501    0  0.00000000000E+00 -0.00000000000E+00 -0.38080767720E+04  0.38080767720E+04  0.25500000000E-02 0. -1.
    8880022    1    1    2    0    0 -0.87592328847E+03 -0.65786389623E+03 -0.32808842850E+04  0.34623142345E+04  0.15294330000E+03 0.  0.
    8880022    1    1    2    0    0  0.87592328847E+03  0.65786389623E+03  0.26425627816E+03  0.11372113026E+04  0.15294330000E+03 0.  0.
<mgrwt>
<rscale>  0 0.11060824E+04</rscale>
<asrwt>0</asrwt>
<pdfrwt beam="1">  1        2 0.58585795E+00 0.11060824E+04</pdfrwt>
<pdfrwt beam="2">  1       -2 0.12176135E+00 0.11060824E+04</pdfrwt>
<totfact> 0.25329466E-01</totfact>
</mgrwt>
</event>
<event>
 4    1  0.5387657E-008  0.2277983E+03  0.7818608E-02  0.1128199E+00
         -2   -1    0    0    0  501 -0.00000000000E+00  0.00000000000E+00  0.37185898674E+03  0.37185898675E+03  0.25500000000E-02 0.  1.
          2   -1    0    0  501    0  0.00000000000E+00 -0.00000000000E+00 -0.88136205670E+03  0.88136205671E+03  0.25500000000E-02 0. -1.
    8880022    1    1    2    0    0 -0.14179675444E+03  0.91619324140E+02 -0.82961951581E+03  0.86032587672E+03  0.15294330000E+03 0. -1.
    8880022    1    1    2    0    0  0.14179675444E+03 -0.91619324140E+02  0.32011644585E+03  0.39289516673E+03  0.15294330000E+03 0.  0.
<mgrwt>
<rscale>  0 0.22779832E+03</rscale>
<asrwt>0</asrwt>
<pdfrwt beam="1">  1        2 0.13559416E+00 0.22779832E+03</pdfrwt>
<pdfrwt beam="2">  1       -2 0.57209075E-01 0.22779832E+03</pdfrwt>
<totfact> 0.93235602E+01</totfact>
</mgrwt>
</event>
<event>
 4    1  0.5387657E-008  0.1863888E+03  0.7818608E-02  0.1161759E+00
          2   -1    0    0  501    0  0.00000000000E+00  0.00000000000E+00  0.19695236488E+04  0.19695236488E+04  0.25500000000E-02 0. -1.
         -2   -1    0    0    0  501 -0.00000000000E+00 -0.00000000000E+00 -0.85823736072E+02  0.85823736110E+02  0.25500000000E-02 0.  1.
    8880022    1    1    2    0    0  0.82747102604E+02  0.67097194411E+02  0.18578480295E+04  0.18671743545E+04  0.15294330000E+03 0.  0.
    8880022    1    1    2    0    0 -0.82747102604E+02 -0.67097194411E+02  0.25851883246E+02  0.18817303040E+03  0.15294330000E+03 0.  0.
<mgrwt>
<rscale>  0 0.18638876E+03</rscale>
<asrwt>0</asrwt>
<pdfrwt beam="1">  1        2 0.30300361E+00 0.18638876E+03</pdfrwt>
<pdfrwt beam="2">  1       -2 0.13203653E-01 0.18638876E+03</pdfrwt>
<totfact> 0.33395761E+02</totfact>
</mgrwt>
</event>
<event>
 4    1  0.5387657E-008  0.3454134E+03  0.7818608E-02  0.1064513E+00
         -2   -1    0    0    0  501 -0.00000000000E+00  0.00000000000E+00  0.85155798275E+02  0.85155798313E+02  0.25500000000E-02 0.  1.
          2   -1    0    0  501    0  0.00000000000E+00 -0.00000000000E+00 -0.25524055779E+04  0.25524055779E+04  0.25500000000E-02 0. -1.
    8880022    1    1    2    0    0  0.27837465933E+03  0.13574364389E+03 -0.21193440237E+04  0.21473075074E+04  0.15294330000E+03 0.  0.
    8880022    1    1    2    0    0 -0.27837465933E+03 -0.13574364389E+03 -0.34790575598E+03  0.49025386880E+03  0.15294330000E+03 0.  1.
<mgrwt>
<rscale>  0 0.34541343E+03</rscale>
<asrwt>0</asrwt>
<pdfrwt beam="1">  1        2 0.39267772E+00 0.34541343E+03</pdfrwt>
<pdfrwt beam="2">  1       -2 0.13100894E-01 0.34541343E+03</pdfrwt>
<totfact> 0.15814532E+02</totfact>
</mgrwt>
</event>
<event>
 4    1  0.5387657E-008  0.4514900E+03  0.7818608E-02  0.1027279E+00
         -2   -1    0    0    0  501 -0.00000000000E+00  0.00000000000E+00  0.17809153586E+03  0.17809153587E+03  0.25500000000E-02 0.  1.
          2   -1    0    0  501    0  0.00000000000E+00 -0.00000000000E+00 -0.23059163915E+04  0.23059163915E+04  0.25500000000E-02 0. -1.
    8880022    1    1    2    0    0  0.42152632811E+03 -0.52603264688E+02 -0.18250466684E+03  0.48698167849E+03  0.15294330000E+03 0.  0.
    8880022    1    1    2    0    0 -0.42152632811E+03  0.52603264688E+02 -0.19453201888E+04  0.19970262489E+04  0.15294330000E+03 0. -1.
<mgrwt>
<rscale>  0 0.45148998E+03</rscale>
<asrwt>0</asrwt>
<pdfrwt beam="1">  1        2 0.35475635E+00 0.45148998E+03</pdfrwt>
<pdfrwt beam="2">  1       -2 0.27398699E-01 0.45148998E+03</pdfrwt>
<totfact> 0.59278318E+01</totfact>
</mgrwt>
</event>
<event>
 4    1  0.5387657E-008  0.6265316E+03  0.7818608E-02  0.9851841E-01
          2   -1    0    0  501    0  0.00000000000E+00  0.00000000000E+00  0.15824131301E+04  0.15824131301E+04  0.25500000000E-02 0. -1.
         -2   -1    0    0    0  501 -0.00000000000E+00 -0.00000000000E+00 -0.31192038463E+03  0.31192038464E+03  0.25500000000E-02 0.  1.
    8880022    1    1    2    0    0 -0.14240620229E+03 -0.59065277521E+03  0.10637969773E+04  0.12345873356E+04  0.15294330000E+03 0.  0.
    8880022    1    1    2    0    0  0.14240620229E+03  0.59065277521E+03  0.20669576819E+03  0.65974617916E+03  0.15294330000E+03 0.  0.
<mgrwt>
<rscale>  0 0.62653163E+03</rscale>
<asrwt>0</asrwt>
<pdfrwt beam="1">  1        2 0.24344817E+00 0.62653163E+03</pdfrwt>
<pdfrwt beam="2">  1       -2 0.47987751E-01 0.62653163E+03</pdfrwt>
<totfact> 0.48724997E+01</totfact>
</mgrwt>
</event>
<event>
 4    1  0.5387657E-008  0.5276493E+03  0.7818608E-02  0.1006804E+00
         -2   -1    0    0    0  501 -0.00000000000E+00  0.00000000000E+00  0.18056666690E+04  0.18056666690E+04  0.25500000000E-02 0.  1.
          2   -1    0    0  501    0  0.00000000000E+00 -0.00000000000E+00 -0.18657601620E+03  0.18657601621E+03  0.25500000000E-02 0. -1.
    8880022    1    1    2    0    0 -0.40241222748E+03  0.30510084922E+03  0.39452402688E+03  0.65883456938E+03  0.15294330000E+03 0.  0.
    8880022    1    1    2    0    0  0.40241222748E+03 -0.30510084922E+03  0.12245666259E+04  0.13334081158E+04  0.15294330000E+03 0.  0.
<mgrwt>
<rscale>  0 0.52764930E+03</rscale>
<asrwt>0</asrwt>
<pdfrwt beam="1">  1        2 0.28704002E-01 0.52764930E+03</pdfrwt>
<pdfrwt beam="2">  1       -2 0.27779488E+00 0.52764930E+03</pdfrwt>
<totfact> 0.86424925E+00</totfact>
</mgrwt>
</event>
<event>
 4    1  0.5387657E-008  0.5188329E+03  0.7818608E-02  0.1008977E+00
          2   -1    0    0  501    0  0.00000000000E+00  0.00000000000E+00  0.26353242276E+04  0.26353242276E+04  0.25500000000E-02 0. -1.
         -2   -1    0    0    0  501 -0.00000000000E+00 -0.00000000000E+00 -0.20166549684E+03  0.20166549685E+03  0.25500000000E-02 0.  1.
    8880022    1    1    2    0    0  0.43495635341E+03  0.23792626072E+03  0.22035472236E+03  0.56368767203E+03  0.15294330000E+03 0.  0.
    8880022    1    1    2    0    0 -0.43495635341E+03 -0.23792626072E+03  0.22133040084E+04  0.22733020524E+04  0.15294330000E+03 0.  0.
<mgrwt>
<rscale>  0 0.51883291E+03</rscale>
<asrwt>0</asrwt>
<pdfrwt beam="1">  1        2 0.40543451E+00 0.51883291E+03</pdfrwt>
<pdfrwt beam="2">  1       -2 0.31025460E-01 0.51883291E+03</pdfrwt>
<totfact> 0.30469576E+01</totfact>
</mgrwt>
</event>
<event>
 4    1  0.5387657E-008  0.1151645E+04  0.7818608E-02  0.9156267E-01
         -2   -1    0    0    0  501 -0.00000000000E+00  0.00000000000E+00  0.40213572018E+03  0.40213572019E+03  0.25500000000E-02 0.  1.
          2   -1    0    0  501    0  0.00000000000E+00 -0.00000000000E+00 -0.43556656845E+04  0.43556656845E+04  0.25500000000E-02 0. -1.
    8880022    1    1    2    0    0  0.11105837403E+04  0.26362603571E+03 -0.80456608430E+03  0.14048534329E+04  0.15294330000E+03 0.  0.
    8880022    1    1    2    0    0 -0.11105837403E+04 -0.26362603571E+03 -0.31489638800E+04  0.33529479718E+04  0.15294330000E+03 0.  0.
<mgrwt>
<rscale>  0 0.11516452E+04</rscale>
<asrwt>0</asrwt>
<pdfrwt beam="1">  1        2 0.67010238E+00 0.11516452E+04</pdfrwt>
<pdfrwt beam="2">  1       -2 0.61867037E-01 0.11516452E+04</pdfrwt>
<totfact> 0.42561177E-01</totfact>
</mgrwt>
</event>
<event>
 4    1  0.5387657E-008  0.1959812E+03  0.7818608E-02  0.1153175E+00
         -2   -1    0    0    0  501 -0.00000000000E+00  0.00000000000E+00  0.73358144286E+02  0.73358144331E+02  0.25500000000E-02 0.  1.
          2   -1    0    0  501    0  0.00000000000E+00 -0.00000000000E+00 -0.19252183756E+04  0.19252183756E+04  0.25500000000E-02 0. -1.
    8880022    1    1    2    0    0  0.10733397464E+03 -0.59130284784E+02 -0.17785771085E+04  0.17893421016E+04  0.15294330000E+03 0.  0.
    8880022    1    1    2    0    0 -0.10733397464E+03  0.59130284784E+02 -0.73283122754E+02  0.20923441827E+03  0.15294330000E+03 0.  1.
<mgrwt>
<rscale>  0 0.19598119E+03</rscale>
<asrwt>0</asrwt>
<pdfrwt beam="1">  1        2 0.29618740E+00 0.19598119E+03</pdfrwt>
<pdfrwt beam="2">  1       -2 0.11285870E-01 0.19598119E+03</pdfrwt>
<totfact> 0.45232299E+02</totfact>
</mgrwt>
</event>
<event>
 4    1  0.5387657E-008  0.4250613E+03  0.7818608E-02  0.1035432E+00
          2   -1    0    0  501    0  0.00000000000E+00  0.00000000000E+00  0.32600045381E+04  0.32600045381E+04  0.25500000000E-02 0. -1.
         -2   -1    0    0    0  501 -0.00000000000E+00 -0.00000000000E+00 -0.15027485880E+03  0.15027485882E+03  0.25500000000E-02 0.  1.
    8880022    1    1    2    0    0 -0.11702249790E+03 -0.37893427831E+03  0.29095588715E+04  0.29404438325E+04  0.15294330000E+03 0.  0.
    8880022    1    1    2    0    0  0.11702249790E+03  0.37893427831E+03  0.20017080780E+03  0.46983556443E+03  0.15294330000E+03 0.  0.
<mgrwt>
<rscale>  0 0.42506130E+03</rscale>
<asrwt>0</asrwt>
<pdfrwt beam="1">  1        2 0.50153917E+00 0.42506130E+03</pdfrwt>
<pdfrwt beam="2">  1       -2 0.23119209E-01 0.42506130E+03</pdfrwt>
<totfact> 0.22454010E+01</totfact>
</mgrwt>
</event>
<event>
 4    1  0.5387657E-008  0.4749324E+03  0.7818608E-02  0.1020537E+00
          2   -1    0    0  501    0  0.00000000000E+00  0.00000000000E+00  0.13778075279E+04  0.13778075279E+04  0.25500000000E-02 0. -1.
         -2   -1    0    0    0  501 -0.00000000000E+00 -0.00000000000E+00 -0.32743647750E+03  0.32743647751E+03  0.25500000000E-02 0.  1.
    8880022    1    1    2    0    0 -0.97508054832E+02  0.43893204732E+03  0.11280955673E+04  0.12239936376E+04  0.15294330000E+03 0.  0.
    8880022    1    1    2    0    0  0.97508054832E+02 -0.43893204732E+03 -0.77724516949E+02  0.48125036776E+03  0.15294330000E+03 0.  0.
<mgrwt>
<rscale>  0 0.47493243E+03</rscale>
<asrwt>0</asrwt>
<pdfrwt beam="1">  1        2 0.21197039E+00 0.47493243E+03</pdfrwt>
<pdfrwt beam="2">  1       -2 0.50374842E-01 0.47493243E+03</pdfrwt>
<totfact> 0.58559695E+01</totfact>
</mgrwt>
</event>
<event>
 4    1  0.5387657E-008  0.1002953E+04  0.7818608E-02  0.9305312E-01
         -2   -1    0    0    0  501 -0.00000000000E+00  0.00000000000E+00  0.55027779201E+03  0.55027779201E+03  0.25500000000E-02 0.  1.
          2   -1    0    0  501    0  0.00000000000E+00 -0.00000000000E+00 -0.33326202179E+04  0.33326202179E+04  0.25500000000E-02 0. -1.
    8880022    1    1    2    0    0 -0.95052481152E+03  0.28111441394E+03 -0.86669072284E+02  0.10066905742E+04  0.15294330000E+03 0.  1.
    8880022    1    1    2    0    0  0.95052481152E+03 -0.28111441394E+03 -0.26956733536E+04  0.28762074358E+04  0.15294330000E+03 0.  0.
<mgrwt>
<rscale>  0 0.10029528E+04</rscale>
<asrwt>0</asrwt>
<pdfrwt beam="1">  1        2 0.51271079E+00 0.10029528E+04</pdfrwt>
<pdfrwt beam="2">  1       -2 0.84658124E-01 0.10029528E+04</pdfrwt>
<totfact> 0.13256607E+00</totfact>
</mgrwt>
</event>
<event>
 4    1  0.5387657E-008  0.5789108E+03  0.7818608E-02  0.9950152E-01
         -2   -1    0    0    0  501 -0.00000000000E+00  0.00000000000E+00  0.12034324866E+04  0.12034324866E+04  0.25500000000E-02 0.  1.
          2   -1    0    0  501    0  0.00000000000E+00 -0.00000000000E+00 -0.78000854475E+03  0.78000854476E+03  0.25500000000E-02 0. -1.
    8880022    1    1    2    0    0  0.50594429392E+03 -0.23614913940E+03  0.10069284148E+04  0.11614829014E+04  0.15294330000E+03 0.  0.
    8880022    1    1    2    0    0 -0.50594429392E+03  0.23614913940E+03 -0.58350447293E+03  0.82195813004E+03  0.15294330000E+03 0. -1.
<mgrwt>
<rscale>  0 0.57891079E+03</rscale>
<asrwt>0</asrwt>
<pdfrwt beam="1">  1        2 0.12000131E+00 0.57891079E+03</pdfrwt>
<pdfrwt beam="2">  1       -2 0.18514346E+00 0.57891079E+03</pdfrwt>
<totfact> 0.62226647E+00</totfact>
</mgrwt>
</event>
<event>
 4    1  0.5387657E-008  0.2547722E+03  0.7818608E-02  0.1110325E+00
         -2   -1    0    0    0  501 -0.00000000000E+00  0.00000000000E+00  0.20974717755E+03  0.20974717756E+03  0.25500000000E-02 0.  1.
          2   -1    0    0  501    0  0.00000000000E+00 -0.00000000000E+00 -0.95437342589E+03  0.95437342589E+03  0.25500000000E-02 0. -1.
    8880022    1    1    2    0    0  0.61642165568E+02  0.19420990652E+03 -0.85078747295E+03  0.88811498215E+03  0.15294330000E+03 0.  0.
    8880022    1    1    2    0    0 -0.61642165568E+02 -0.19420990652E+03  0.10616122461E+03  0.27600562131E+03  0.15294330000E+03 0.  1.
<mgrwt>
<rscale>  0 0.25477225E+03</rscale>
<asrwt>0</asrwt>
<pdfrwt beam="1">  1        2 0.14682668E+00 0.25477225E+03</pdfrwt>
<pdfrwt beam="2">  1       -2 0.32268797E-01 0.25477225E+03</pdfrwt>
<totfact> 0.25342670E+02</totfact>
</mgrwt>
</event>
<event>
 4    1  0.5387657E-008  0.8110118E+03  0.7818608E-02  0.9544213E-01
         -2   -1    0    0    0  501 -0.00000000000E+00  0.00000000000E+00  0.64093973281E+03  0.64093973281E+03  0.25500000000E-02 0.  1.
          2   -1    0    0  501    0  0.00000000000E+00 -0.00000000000E+00 -0.26008391298E+04  0.26008391298E+04  0.25500000000E-02 0. -1.
    8880022    1    1    2    0    0  0.77532096704E+03  0.18227947880E+03 -0.22411541828E+04  0.23833824985E+04  0.15294330000E+03 0.  0.
    8880022    1    1    2    0    0 -0.77532096704E+03 -0.18227947880E+03  0.28125478579E+03  0.85839636408E+03  0.15294330000E+03 0.  0.
<mgrwt>
<rscale>  0 0.81101175E+03</rscale>
<asrwt>0</asrwt>
<pdfrwt beam="1">  1        2 0.40012909E+00 0.81101175E+03</pdfrwt>
<pdfrwt beam="2">  1       -2 0.98606114E-01 0.81101175E+03</pdfrwt>
<totfact> 0.27038638E+00</totfact>
</mgrwt>
</event>
<event>
 4    1  0.5387657E-008  0.2070627E+03  0.7818608E-02  0.1143913E+00
          2   -1    0    0  501    0  0.00000000000E+00  0.00000000000E+00  0.17816986543E+04  0.17816986543E+04  0.25500000000E-02 0. -1.
         -2   -1    0    0    0  501 -0.00000000000E+00 -0.00000000000E+00 -0.64702741796E+02  0.64702741846E+02  0.25500000000E-02 0.  1.
    8880022    1    1    2    0    0  0.86380236732E+02  0.10964388333E+03  0.12684630043E+03  0.24282702361E+03  0.15294330000E+03 0.  0.
    8880022    1    1    2    0    0 -0.86380236732E+02 -0.10964388333E+03  0.15901496121E+04  0.16035743726E+04  0.15294330000E+03 0.  0.
<mgrwt>
<rscale>  0 0.20706274E+03</rscale>
<asrwt>0</asrwt>
<pdfrwt beam="1">  1        2 0.27410745E+00 0.20706274E+03</pdfrwt>
<pdfrwt beam="2">  1       -2 0.99542694E-02 0.20706274E+03</pdfrwt>
<totfact> 0.65448333E+02</totfact>
</mgrwt>
</event>
<event>
 4    1  0.5387657E-008  0.6531287E+03  0.7818608E-02  0.9800926E-01
         -2   -1    0    0    0  501 -0.00000000000E+00  0.00000000000E+00  0.28660110944E+03  0.28660110945E+03  0.25500000000E-02 0.  1.
          2   -1    0    0  501    0  0.00000000000E+00 -0.00000000000E+00 -0.20300929230E+04  0.20300929230E+04  0.25500000000E-02 0. -1.
    8880022    1    1    2    0    0 -0.59842371407E+03 -0.21230752960E+03 -0.14700986962E+04  0.16086538652E+04  0.15294330000E+03 0.  0.
    8880022    1    1    2    0    0  0.59842371407E+03  0.21230752960E+03 -0.27339311737E+03  0.70804016717E+03  0.15294330000E+03 0.  0.
<mgrwt>
<rscale>  0 0.65312869E+03</rscale>
<asrwt>0</asrwt>
<pdfrwt beam="1">  1        2 0.31232198E+00 0.65312869E+03</pdfrwt>
<pdfrwt beam="2">  1       -2 0.44092480E-01 0.65312869E+03</pdfrwt>
<totfact> 0.32824599E+01</totfact>
</mgrwt>
</event>
<event>
 4    1  0.5387657E-008  0.1756414E+03  0.7818608E-02  0.1172089E+00
          2   -1    0    0  501    0  0.00000000000E+00  0.00000000000E+00  0.16782744852E+04  0.16782744852E+04  0.25500000000E-02 0. -1.
         -2   -1    0    0    0  501 -0.00000000000E+00 -0.00000000000E+00 -0.68596271247E+02  0.68596271295E+02  0.25500000000E-02 0.  1.
    8880022    1    1    2    0    0  0.62788696743E+00 -0.86358852417E+02  0.57539980046E+02  0.18482626424E+03  0.15294330000E+03 0.  1.
    8880022    1    1    2    0    0 -0.62788696743E+00  0.86358852417E+02  0.15521382339E+04  0.15620444923E+04  0.15294330000E+03 0.  0.
<mgrwt>
<rscale>  0 0.17564139E+03</rscale>
<asrwt>0</asrwt>
<pdfrwt beam="1">  1        2 0.25819605E+00 0.17564139E+03</pdfrwt>
<pdfrwt beam="2">  1       -2 0.10553273E-01 0.17564139E+03</pdfrwt>
<totfact> 0.67876919E+02</totfact>
</mgrwt>
</event>
<event>
 4    1  0.5387657E-008  0.2486752E+03  0.7818608E-02  0.1114145E+00
         -2   -1    0    0    0  501 -0.00000000000E+00  0.00000000000E+00  0.72614279382E+03  0.72614279382E+03  0.25500000000E-02 0.  1.
          2   -1    0    0  501    0  0.00000000000E+00 -0.00000000000E+00 -0.10088036384E+04  0.10088036384E+04  0.25500000000E-02 0. -1.
    8880022    1    1    2    0    0 -0.14861613330E+03 -0.12790984717E+03  0.68872032909E+03  0.73223973451E+03  0.15294330000E+03 0.  0.
    8880022    1    1    2    0    0  0.14861613330E+03  0.12790984717E+03 -0.97138117367E+03  0.10027066977E+04  0.15294330000E+03 0.  0.
<mgrwt>
<rscale>  0 0.24867516E+03</rscale>
<asrwt>0</asrwt>
<pdfrwt beam="1">  1        2 0.15520056E+00 0.24867516E+03</pdfrwt>
<pdfrwt beam="2">  1       -2 0.11171428E+00 0.24867516E+03</pdfrwt>
<totfact> 0.17530682E+01</totfact>
</mgrwt>
</event>
<event>
 4    1  0.5387657E-008  0.3303863E+03  0.7818608E-02  0.1070966E+00
         -2   -1    0    0    0  501 -0.00000000000E+00  0.00000000000E+00  0.72978589163E+02  0.72978589207E+02  0.25500000000E-02 0.  1.
          2   -1    0    0  501    0  0.00000000000E+00 -0.00000000000E+00 -0.21390538417E+04  0.21390538417E+04  0.25500000000E-02 0. -1.
    8880022    1    1    2    0    0  0.95760405098E+02  0.27675509523E+03 -0.42648164364E+03  0.53948279240E+03  0.15294330000E+03 0.  0.
    8880022    1    1    2    0    0 -0.95760405098E+02 -0.27675509523E+03 -0.16395936089E+04  0.16725496385E+04  0.15294330000E+03 0.  0.
<mgrwt>
<rscale>  0 0.33038628E+03</rscale>
<asrwt>0</asrwt>
<pdfrwt beam="1">  1        2 0.32908516E+00 0.33038628E+03</pdfrwt>
<pdfrwt beam="2">  1       -2 0.11227477E-01 0.33038628E+03</pdfrwt>
<totfact> 0.34241040E+02</totfact>
</mgrwt>
</event>
<event>
 4    1  0.5387657E-008  0.1725009E+03  0.7818608E-02  0.1175265E+00
         -2   -1    0    0    0  501 -0.00000000000E+00  0.00000000000E+00  0.54252744435E+02  0.54252744495E+02  0.25500000000E-02 0.  1.
          2   -1    0    0  501    0  0.00000000000E+00 -0.00000000000E+00 -0.86053038303E+03  0.86053038303E+03  0.25500000000E-02 0. -1.
    8880022    1    1    2    0    0 -0.61978014953E+02 -0.50235698156E+02 -0.67857266783E+03  0.70015528153E+03  0.15294330000E+03 0. -1.
    8880022    1    1    2    0    0  0.61978014953E+02  0.50235698156E+02 -0.12770497076E+03  0.21462784600E+03  0.15294330000E+03 0.  0.
<mgrwt>
<rscale>  0 0.17250088E+03</rscale>
<asrwt>0</asrwt>
<pdfrwt beam="1">  1        2 0.13238928E+00 0.17250088E+03</pdfrwt>
<pdfrwt beam="2">  1       -2 0.83465767E-02 0.17250088E+03</pdfrwt>
<totfact> 0.28221151E+03</totfact>
</mgrwt>
</event>
<event>
 4    1  0.5387657E-008  0.3279144E+03  0.7818608E-02  0.1072063E+00
         -2   -1    0    0    0  501 -0.00000000000E+00  0.00000000000E+00  0.35897943044E+03  0.35897943045E+03  0.25500000000E-02 0.  1.
          2   -1    0    0  501    0  0.00000000000E+00 -0.00000000000E+00 -0.96043605412E+03  0.96043605412E+03  0.25500000000E-02 0. -1.
    8880022    1    1    2    0    0 -0.19785431447E+03  0.21210814765E+03 -0.84797697656E+03  0.90917149199E+03  0.15294330000E+03 0.  0.
    8880022    1    1    2    0    0  0.19785431447E+03 -0.21210814765E+03  0.24652035288E+03  0.41024399258E+03  0.15294330000E+03 0.  0.
<mgrwt>
<rscale>  0 0.32791439E+03</rscale>
<asrwt>0</asrwt>
<pdfrwt beam="1">  1        2 0.14775939E+00 0.32791439E+03</pdfrwt>
<pdfrwt beam="2">  1       -2 0.55227605E-01 0.32791439E+03</pdfrwt>
<totfact> 0.87476806E+01</totfact>
</mgrwt>
</event>
<event>
 4    1  0.5387657E-008  0.4954396E+03  0.7818608E-02  0.1014976E+00
          2   -1    0    0  501    0  0.00000000000E+00  0.00000000000E+00  0.14061603315E+04  0.14061603315E+04  0.25500000000E-02 0. -1.
         -2   -1    0    0    0  501 -0.00000000000E+00 -0.00000000000E+00 -0.22351625401E+03  0.22351625402E+03  0.25500000000E-02 0.  1.
    8880022    1    1    2    0    0 -0.34866493411E+02  0.46995003805E+03  0.20997729967E+03  0.53809927524E+03  0.15294330000E+03 0.  0.
    8880022    1    1    2    0    0  0.34866493411E+02 -0.46995003805E+03  0.97266677786E+03  0.10915773103E+04  0.15294330000E+03 0.  0.
<mgrwt>
<rscale>  0 0.49543957E+03</rscale>
<asrwt>0</asrwt>
<pdfrwt beam="1">  1        2 0.21633236E+00 0.49543957E+03</pdfrwt>
<pdfrwt beam="2">  1       -2 0.34387117E-01 0.49543957E+03</pdfrwt>
<totfact> 0.11865443E+02</totfact>
</mgrwt>
</event>
<event>
 4    1  0.5387657E-008  0.1331211E+04  0.7818608E-02  0.9005174E-01
         -2   -1    0    0    0  501 -0.00000000000E+00  0.00000000000E+00  0.10973762135E+04  0.10973762135E+04  0.25500000000E-02 0.  1.
          2   -1    0    0  501    0  0.00000000000E+00 -0.00000000000E+00 -0.21877688196E+04  0.21877688196E+04  0.25500000000E-02 0. -1.
    8880022    1    1    2    0    0 -0.12130237822E+04  0.52659641559E+03 -0.13857433733E+04  0.19215636421E+04  0.15294330000E+03 0.  0.
    8880022    1    1    2    0    0  0.12130237822E+04 -0.52659641559E+03  0.29535076720E+03  0.13635813910E+04  0.15294330000E+03 0.  0.
<mgrwt>
<rscale>  0 0.13312108E+04</rscale>
<asrwt>0</asrwt>
<pdfrwt beam="1">  1        2 0.33657982E+00 0.13312108E+04</pdfrwt>
<pdfrwt beam="2">  1       -2 0.16882711E+00 0.13312108E+04</pdfrwt>
<totfact> 0.10927968E+00</totfact>
</mgrwt>
</event>
<event>
 4    1  0.5387657E-008  0.3160283E+03  0.7818608E-02  0.1077492E+00
          2   -1    0    0  501    0  0.00000000000E+00  0.00000000000E+00  0.10082033469E+04  0.10082033469E+04  0.25500000000E-02 0. -1.
         -2   -1    0    0    0  501 -0.00000000000E+00 -0.00000000000E+00 -0.47055560195E+03  0.47055560196E+03  0.25500000000E-02 0.  1.
    8880022    1    1    2    0    0  0.27485090127E+03  0.30646252691E+02  0.92578252273E+03  0.97823675209E+03  0.15294330000E+03 0.  0.
    8880022    1    1    2    0    0 -0.27485090127E+03 -0.30646252691E+02 -0.38813477777E+03  0.50052219677E+03  0.15294330000E+03 0.  0.
<mgrwt>
<rscale>  0 0.31602826E+03</rscale>
<asrwt>0</asrwt>
<pdfrwt beam="1">  1        2 0.15510821E+00 0.31602826E+03</pdfrwt>
<pdfrwt beam="2">  1       -2 0.72393170E-01 0.31602826E+03</pdfrwt>
<totfact> 0.46259079E+01</totfact>
</mgrwt>
</event>
<event>
 4    1  0.5387657E-008  0.5103457E+03  0.7818608E-02  0.1011113E+00
          2   -1    0    0  501    0  0.00000000000E+00  0.00000000000E+00  0.21052569128E+03  0.21052569129E+03  0.25500000000E-02 0. -1.
         -2   -1    0    0    0  501 -0.00000000000E+00 -0.00000000000E+00 -0.14434901192E+04  0.14434901192E+04  0.25500000000E-02 0.  1.
    8880022    1    1    2    0    0  0.17018219982E+03  0.45617874903E+03 -0.30380915569E+03  0.59392986817E+03  0.15294330000E+03 0.  0.
    8880022    1    1    2    0    0 -0.17018219982E+03 -0.45617874903E+03 -0.92915527226E+03  0.10600859424E+04  0.15294330000E+03 0.  0.
<mgrwt>
<rscale>  0 0.51034565E+03</rscale>
<asrwt>0</asrwt>
<pdfrwt beam="1">  1        2 0.32388569E-01 0.51034565E+03</pdfrwt>
<pdfrwt beam="2">  1       -2 0.22207540E+00 0.51034565E+03</pdfrwt>
<totfact> 0.16379814E+01</totfact>
</mgrwt>
</event>
<event>
 4    1  0.5387657E-008  0.1017122E+04  0.7818608E-02  0.9289962E-01
          2   -1    0    0  501    0  0.00000000000E+00  0.00000000000E+00  0.61152088349E+03  0.61152088350E+03  0.25500000000E-02 0. -1.
         -2   -1    0    0    0  501 -0.00000000000E+00 -0.00000000000E+00 -0.20326122077E+04  0.20326122077E+04  0.25500000000E-02 0.  1.
    8880022    1    1    2    0    0 -0.71745812002E+03 -0.70455633955E+03 -0.12519461153E+04  0.16130426275E+04  0.15294330000E+03 0.  0.
    8880022    1    1    2    0    0  0.71745812002E+03  0.70455633955E+03 -0.16914520892E+03  0.10310904637E+04  0.15294330000E+03 0.  0.
<mgrwt>
<rscale>  0 0.10171221E+04</rscale>
<asrwt>0</asrwt>
<pdfrwt beam="1">  1        2 0.94080137E-01 0.10171221E+04</pdfrwt>
<pdfrwt beam="2">  1       -2 0.31270957E+00 0.10171221E+04</pdfrwt>
<totfact> 0.12943487E+00</totfact>
</mgrwt>
</event>
<event>
 4    1  0.5387657E-008  0.5503840E+03  0.7818608E-02  0.1001405E+00
         -2   -1    0    0    0  501 -0.00000000000E+00  0.00000000000E+00  0.90296203432E+03  0.90296203432E+03  0.25500000000E-02 0.  1.
          2   -1    0    0  501    0  0.00000000000E+00 -0.00000000000E+00 -0.12923365569E+04  0.12923365569E+04  0.25500000000E-02 0. -1.
    8880022    1    1    2    0    0  0.24743778856E+03 -0.46723167255E+03 -0.11391829935E+04  0.12651720992E+04  0.15294330000E+03 0.  0.
    8880022    1    1    2    0    0 -0.24743778856E+03  0.46723167255E+03  0.74980847090E+03  0.93012649199E+03  0.15294330000E+03 0.  0.
<mgrwt>
<rscale>  0 0.55038400E+03</rscale>
<asrwt>0</asrwt>
<pdfrwt beam="1">  1        2 0.19882101E+00 0.55038400E+03</pdfrwt>
<pdfrwt beam="2">  1       -2 0.13891724E+00 0.55038400E+03</pdfrwt>
<totfact> 0.64635187E+00</totfact>
</mgrwt>
</event>
<event>
 4    1  0.5387657E-008  0.8892293E+03  0.7818608E-02  0.9439146E-01
          2   -1    0    0  501    0  0.00000000000E+00  0.00000000000E+00  0.14852523330E+04  0.14852523330E+04  0.25500000000E-02 0. -1.
         -2   -1    0    0    0  501 -0.00000000000E+00 -0.00000000000E+00 -0.12771258465E+04  0.12771258465E+04  0.25500000000E-02 0.  1.
    8880022    1    1    2    0    0  0.59500758271E+03  0.64288645305E+03 -0.95065963791E+03  0.13017228642E+04  0.15294330000E+03 0.  0.
    8880022    1    1    2    0    0 -0.59500758271E+03 -0.64288645305E+03  0.11587861244E+04  0.14606553153E+04  0.15294330000E+03 0.  0.
<mgrwt>
<rscale>  0 0.88922926E+03</rscale>
<asrwt>0</asrwt>
<pdfrwt beam="1">  1        2 0.22850036E+00 0.88922926E+03</pdfrwt>
<pdfrwt beam="2">  1       -2 0.19648090E+00 0.88922926E+03</pdfrwt>
<totfact> 0.18312737E+00</totfact>
</mgrwt>
</event>
<event>
 4    1  0.5387657E-008  0.4380677E+03  0.7818608E-02  0.1031341E+00
         -2   -1    0    0    0  501 -0.00000000000E+00  0.00000000000E+00  0.65432584260E+03  0.65432584261E+03  0.25500000000E-02 0.  1.
          2   -1    0    0  501    0  0.00000000000E+00 -0.00000000000E+00 -0.65169454518E+03  0.65169454519E+03  0.25500000000E-02 0. -1.
    8880022    1    1    2    0    0  0.28418648493E+03 -0.29622582905E+03 -0.48295512403E+03  0.65203451201E+03  0.15294330000E+03 0.  0.
    8880022    1    1    2    0    0 -0.28418648493E+03  0.29622582905E+03  0.48558642145E+03  0.65398587578E+03  0.15294330000E+03 0.  0.
<mgrwt>
<rscale>  0 0.43806775E+03</rscale>
<asrwt>0</asrwt>
<pdfrwt beam="1">  1        2 0.10026070E+00 0.43806775E+03</pdfrwt>
<pdfrwt beam="2">  1       -2 0.10066551E+00 0.43806775E+03</pdfrwt>
<totfact> 0.38099799E+01</totfact>
</mgrwt>
</event>
<event>
 4    1  0.5387657E-008  0.5154453E+03  0.7818608E-02  0.1009824E+00
         -2   -1    0    0    0  501 -0.00000000000E+00  0.00000000000E+00  0.26401807217E+03  0.26401807218E+03  0.25500000000E-02 0.  1.
          2   -1    0    0  501    0  0.00000000000E+00 -0.00000000000E+00 -0.17035751975E+04  0.17035751975E+04  0.25500000000E-02 0. -1.
    8880022    1    1    2    0    0  0.46996745703E+03 -0.14636527499E+03 -0.13491744083E+04  0.14442837122E+04  0.15294330000E+03 0.  0.
    8880022    1    1    2    0    0 -0.46996745703E+03  0.14636527499E+03 -0.90382717055E+02  0.52330955748E+03  0.15294330000E+03 0.  0.
<mgrwt>
<rscale>  0 0.51544530E+03</rscale>
<asrwt>0</asrwt>
<pdfrwt beam="1">  1        2 0.26208848E+00 0.51544530E+03</pdfrwt>
<pdfrwt beam="2">  1       -2 0.40618166E-01 0.51544530E+03</pdfrwt>
<totfact> 0.59154358E+01</totfact>
</mgrwt>
</event>
<event>
 4    1  0.5387657E-008  0.3012846E+03  0.7818608E-02  0.1084600E+00
          2   -1    0    0  501    0  0.00000000000E+00  0.00000000000E+00  0.12817678130E+04  0.12817678130E+04  0.25500000000E-02 0. -1.
         -2   -1    0    0    0  501 -0.00000000000E+00 -0.00000000000E+00 -0.10970674878E+03  0.10970674881E+03  0.25500000000E-02 0.  1.
    8880022    1    1    2    0    0 -0.25523500036E+03  0.47285072101E+02  0.17180229369E+03  0.34682627436E+03  0.15294330000E+03 0.  0.
    8880022    1    1    2    0    0  0.25523500036E+03 -0.47285072101E+02  0.10002587705E+04  0.10446482875E+04  0.15294330000E+03 0.  0.
<mgrwt>
<rscale>  0 0.30128464E+03</rscale>
<asrwt>0</asrwt>
<pdfrwt beam="1">  1        2 0.19719504E+00 0.30128464E+03</pdfrwt>
<pdfrwt beam="2">  1       -2 0.16877962E-01 0.30128464E+03</pdfrwt>
<totfact> 0.50524355E+02</totfact>
</mgrwt>
</event>
<event>
 4    1  0.5387657E-008  0.5617565E+03  0.7818608E-02  0.9988088E-01
         -2   -1    0    0    0  501 -0.00000000000E+00  0.00000000000E+00  0.52435698294E+03  0.52435698295E+03  0.25500000000E-02 0.  1.
          2   -1    0    0  501    0  0.00000000000E+00 -0.00000000000E+00 -0.74457156029E+03  0.74457156030E+03  0.25500000000E-02 0. -1.
    8880022    1    1    2    0    0  0.14544819575E+03 -0.52059922045E+03  0.16769702581E+03  0.58625307799E+03  0.15294330000E+03 0.  0.
    8880022    1    1    2    0    0 -0.14544819575E+03  0.52059922045E+03 -0.38791160316E+03  0.68267546525E+03  0.15294330000E+03 0.  0.
<mgrwt>
<rscale>  0 0.56175651E+03</rscale>
<asrwt>0</asrwt>
<pdfrwt beam="1">  1        2 0.11454947E+00 0.56175651E+03</pdfrwt>
<pdfrwt beam="2">  1       -2 0.80670305E-01 0.56175651E+03</pdfrwt>
<totfact> 0.52893109E+01</totfact>
</mgrwt>
</event>
<event>
 4    1  0.5387657E-008  0.4505545E+03  0.7818608E-02  0.1027557E+00
          2   -1    0    0  501    0  0.00000000000E+00  0.00000000000E+00  0.25257957293E+04  0.25257957293E+04  0.25500000000E-02 0. -1.
         -2   -1    0    0    0  501 -0.00000000000E+00 -0.00000000000E+00 -0.22088726715E+03  0.22088726716E+03  0.25500000000E-02 0.  1.
    8880022    1    1    2    0    0 -0.11048419047E+03  0.40914658585E+03  0.22478154358E+04  0.22925255879E+04  0.15294330000E+03 0.  0.
    8880022    1    1    2    0    0  0.11048419047E+03 -0.40914658585E+03  0.57093026405E+02  0.45415740855E+03  0.15294330000E+03 0.  1.
<mgrwt>
<rscale>  0 0.45055448E+03</rscale>
<asrwt>0</asrwt>
<pdfrwt beam="1">  1        2 0.38858396E+00 0.45055448E+03</pdfrwt>
<pdfrwt beam="2">  1       -2 0.33982657E-01 0.45055448E+03</pdfrwt>
<totfact> 0.30117285E+01</totfact>
</mgrwt>
</event>
<event>
 4    1  0.5387657E-008  0.1029329E+04  0.7818608E-02  0.9276950E-01
          2   -1    0    0  501    0  0.00000000000E+00  0.00000000000E+00  0.15705162631E+04  0.15705162631E+04  0.25500000000E-02 0. -1.
         -2   -1    0    0    0  501 -0.00000000000E+00 -0.00000000000E+00 -0.11184252060E+04  0.11184252060E+04  0.25500000000E-02 0.  1.
    8880022    1    1    2    0    0  0.68564642315E+03 -0.75233983954E+03  0.10729589629E+04  0.14868620786E+04  0.15294330000E+03 0.  0.
    8880022    1    1    2    0    0 -0.68564642315E+03  0.75233983954E+03 -0.62086790571E+03  0.12020793905E+04  0.15294330000E+03 0.  0.
<mgrwt>
<rscale>  0 0.10293289E+04</rscale>
<asrwt>0</asrwt>
<pdfrwt beam="1">  1        2 0.24161789E+00 0.10293289E+04</pdfrwt>
<pdfrwt beam="2">  1       -2 0.17206542E+00 0.10293289E+04</pdfrwt>
<totfact> 0.23620332E+00</totfact>
</mgrwt>
</event>
<event>
 4    1  0.5387657E-008  0.3774356E+03  0.7818608E-02  0.1051886E+00
         -2   -1    0    0    0  501 -0.00000000000E+00  0.00000000000E+00  0.20433783102E+03  0.20433783104E+03  0.25500000000E-02 0.  1.
          2   -1    0    0  501    0  0.00000000000E+00 -0.00000000000E+00 -0.95090470307E+03  0.95090470308E+03  0.25500000000E-02 0. -1.
    8880022    1    1    2    0    0 -0.27391427152E+03 -0.20984981659E+03 -0.67166159962E+03  0.77044593002E+03  0.15294330000E+03 0.  0.
    8880022    1    1    2    0    0  0.27391427152E+03  0.20984981659E+03 -0.74905272432E+02  0.38479660409E+03  0.15294330000E+03 0.  0.
<mgrwt>
<rscale>  0 0.37743559E+03</rscale>
<asrwt>0</asrwt>
<pdfrwt beam="1">  1        2 0.14629303E+00 0.37743559E+03</pdfrwt>
<pdfrwt beam="2">  1       -2 0.31436590E-01 0.37743559E+03</pdfrwt>
<totfact> 0.26355130E+02</totfact>
</mgrwt>
</event>
<event>
 4    1  0.5387657E-008  0.4848278E+03  0.7818608E-02  0.1017817E+00
         -2   -1    0    0    0  501 -0.00000000000E+00  0.00000000000E+00  0.29102791160E+03  0.29102791161E+03  0.25500000000E-02 0.  1.
          2   -1    0    0  501    0  0.00000000000E+00 -0.00000000000E+00 -0.94185246039E+03  0.94185246039E+03  0.25500000000E-02 0. -1.
    8880022    1    1    2    0    0 -0.46005890254E+03  0.34815111047E+01 -0.55807572813E+03  0.73926077001E+03  0.15294330000E+03 0.  1.
    8880022    1    1    2    0    0  0.46005890254E+03 -0.34815111047E+01 -0.92748820656E+02  0.49361960200E+03  0.15294330000E+03 0.  0.
<mgrwt>
<rscale>  0 0.48482777E+03</rscale>
<asrwt>0</asrwt>
<pdfrwt beam="1">  1        2 0.14490038E+00 0.48482777E+03</pdfrwt>
<pdfrwt beam="2">  1       -2 0.44773525E-01 0.48482777E+03</pdfrwt>
<totfact> 0.13443700E+02</totfact>
</mgrwt>
</event>
<event>
 4    1  0.5387657E-008  0.3802787E+03  0.7818608E-02  0.1050831E+00
         -2   -1    0    0    0  501 -0.00000000000E+00  0.00000000000E+00  0.76836743571E+02  0.76836743614E+02  0.25500000000E-02 0.  1.
          2   -1    0    0  501    0  0.00000000000E+00 -0.00000000000E+00 -0.40963997146E+04  0.40963997146E+04  0.25500000000E-02 0. -1.
    8880022    1    1    2    0    0  0.19546495569E+03  0.28812092437E+03 -0.35439155408E+04  0.35642599834E+04  0.15294330000E+03 0.  0.
    8880022    1    1    2    0    0 -0.19546495569E+03 -0.28812092437E+03 -0.47564743019E+03  0.60897647477E+03  0.15294330000E+03 0.  0.
<mgrwt>
<rscale>  0 0.38027867E+03</rscale>
<asrwt>0</asrwt>
<pdfrwt beam="1">  1        2 0.63021517E+00 0.38027867E+03</pdfrwt>
<pdfrwt beam="2">  1       -2 0.11821041E-01 0.38027867E+03</pdfrwt>
<totfact> 0.18179191E+01</totfact>
</mgrwt>
</event>
<event>
 4    1  0.5387657E-008  0.7298192E+03  0.7818608E-02  0.9667554E-01
         -2   -1    0    0    0  501 -0.00000000000E+00  0.00000000000E+00  0.72063159703E+03  0.72063159703E+03  0.25500000000E-02 0.  1.
          2   -1    0    0  501    0  0.00000000000E+00 -0.00000000000E+00 -0.11474601518E+04  0.11474601518E+04  0.25500000000E-02 0. -1.
    8880022    1    1    2    0    0  0.43805337765E+03 -0.56334151399E+03 -0.77061072638E+03  0.10613561926E+04  0.15294330000E+03 0.  0.
    8880022    1    1    2    0    0 -0.43805337765E+03  0.56334151399E+03  0.34378217162E+03  0.80673555617E+03  0.15294330000E+03 0.  0.
<mgrwt>
<rscale>  0 0.72981921E+03</rscale>
<asrwt>0</asrwt>
<pdfrwt beam="1">  1        2 0.17653233E+00 0.72981921E+03</pdfrwt>
<pdfrwt beam="2">  1       -2 0.11086640E+00 0.72981921E+03</pdfrwt>
<totfact> 0.13413030E+01</totfact>
</mgrwt>
</event>
<event>
 4    1  0.5387657E-008  0.4941840E+03  0.7818608E-02  0.1015308E+00
         -2   -1    0    0    0  501 -0.00000000000E+00  0.00000000000E+00  0.43582664627E+03  0.43582664628E+03  0.25500000000E-02 0.  1.
          2   -1    0    0  501    0  0.00000000000E+00 -0.00000000000E+00 -0.29090460210E+04  0.29090460210E+04  0.25500000000E-02 0. -1.
    8880022    1    1    2    0    0  0.23237253280E+03 -0.40844722953E+03  0.26614195364E+03  0.56129254922E+03  0.15294330000E+03 0.  0.
    8880022    1    1    2    0    0 -0.23237253280E+03  0.40844722953E+03 -0.27393613284E+04  0.27835801181E+04  0.15294330000E+03 0. -1.
<mgrwt>
<rscale>  0 0.49418396E+03</rscale>
<asrwt>0</asrwt>
<pdfrwt beam="1">  1        2 0.44754553E+00 0.49418396E+03</pdfrwt>
<pdfrwt beam="2">  1       -2 0.67050255E-01 0.49418396E+03</pdfrwt>
<totfact> 0.45780155E+00</totfact>
</mgrwt>
</event>
<event>
 4    1  0.5387657E-008  0.6767484E+03  0.7818608E-02  0.9757843E-01
         -2   -1    0    0    0  501 -0.00000000000E+00  0.00000000000E+00  0.13274297957E+04  0.13274297957E+04  0.25500000000E-02 0.  1.
          2   -1    0    0  501    0  0.00000000000E+00 -0.00000000000E+00 -0.48807573901E+03  0.48807573902E+03  0.25500000000E-02 0. -1.
    8880022    1    1    2    0    0 -0.60506080070E+03  0.26172154353E+03  0.91112580255E+03  0.11349619465E+04  0.15294330000E+03 0.  0.
    8880022    1    1    2    0    0  0.60506080070E+03 -0.26172154353E+03 -0.71771745904E+02  0.68054358818E+03  0.15294330000E+03 0.  0.
<mgrwt>
<rscale>  0 0.67674840E+03</rscale>
<asrwt>0</asrwt>
<pdfrwt beam="1">  1        2 0.75088576E-01 0.67674840E+03</pdfrwt>
<pdfrwt beam="2">  1       -2 0.20421997E+00 0.67674840E+03</pdfrwt>
<totfact> 0.81320345E+00</totfact>
</mgrwt>
</event>
<event>
 4    1  0.5387657E-008  0.6779012E+03  0.7818608E-02  0.9755789E-01
         -2   -1    0    0    0  501 -0.00000000000E+00  0.00000000000E+00  0.10011369337E+04  0.10011369337E+04  0.25500000000E-02 0.  1.
          2   -1    0    0  501    0  0.00000000000E+00 -0.00000000000E+00 -0.12174976686E+04  0.12174976686E+04  0.25500000000E-02 0. -1.
    8880022    1    1    2    0    0  0.12527140411E+03  0.64843307982E+03 -0.98375018583E+03  0.11947026680E+04  0.15294330000E+03 0.  0.
    8880022    1    1    2    0    0 -0.12527140411E+03 -0.64843307982E+03  0.76738945090E+03  0.10239319343E+04  0.15294330000E+03 0.  1.
<mgrwt>
<rscale>  0 0.67790120E+03</rscale>
<asrwt>0</asrwt>
<pdfrwt beam="1">  1        2 0.18730733E+00 0.67790120E+03</pdfrwt>
<pdfrwt beam="2">  1       -2 0.15402107E+00 0.67790120E+03</pdfrwt>
<totfact> 0.53329938E+00</totfact>
</mgrwt>
</event>
<event>
 4    1  0.5387657E-008  0.2244188E+03  0.7818608E-02  0.1130631E+00
          2   -1    0    0  501    0  0.00000000000E+00  0.00000000000E+00  0.82127773184E+03  0.82127773184E+03  0.25500000000E-02 0. -1.
         -2   -1    0    0    0  501 -0.00000000000E+00 -0.00000000000E+00 -0.47153074075E+03  0.47153074076E+03  0.25500000000E-02 0.  1.
    8880022    1    1    2    0    0  0.12437561816E+03 -0.10725129085E+03 -0.42803408596E+03  0.48329800904E+03  0.15294330000E+03 0.  0.
    8880022    1    1    2    0    0 -0.12437561816E+03  0.10725129085E+03  0.77778107705E+03  0.80951046356E+03  0.15294330000E+03 0. -1.
<mgrwt>
<rscale>  0 0.22441878E+03</rscale>
<asrwt>0</asrwt>
<pdfrwt beam="1">  1        2 0.12635042E+00 0.22441878E+03</pdfrwt>
<pdfrwt beam="2">  1       -2 0.72543192E-01 0.22441878E+03</pdfrwt>
<totfact> 0.62058220E+01</totfact>
</mgrwt>
</event>
<event>
 4    1  0.5387657E-008  0.3486131E+03  0.7818608E-02  0.1063186E+00
          2   -1    0    0  501    0  0.00000000000E+00  0.00000000000E+00  0.36779256313E+04  0.36779256313E+04  0.25500000000E-02 0. -1.
         -2   -1    0    0    0  501 -0.00000000000E+00 -0.00000000000E+00 -0.75134365503E+03  0.75134365504E+03  0.25500000000E-02 0.  1.
    8880022    1    1    2    0    0  0.65436788197E+02 -0.30636170938E+03  0.36286793167E+04  0.36453867705E+04  0.15294330000E+03 0.  0.
    8880022    1    1    2    0    0 -0.65436788197E+02  0.30636170938E+03 -0.70209734041E+03  0.78388251584E+03  0.15294330000E+03 0.  0.
<mgrwt>
<rscale>  0 0.34861314E+03</rscale>
<asrwt>0</asrwt>
<pdfrwt beam="1">  1        2 0.56583470E+00 0.34861314E+03</pdfrwt>
<pdfrwt beam="2">  1       -2 0.11559133E+00 0.34861314E+03</pdfrwt>
<totfact> 0.45203021E-01</totfact>
</mgrwt>
</event>
<event>
 4    1  0.5387657E-008  0.8643943E+03  0.7818608E-02  0.9471218E-01
          2   -1    0    0  501    0  0.00000000000E+00  0.00000000000E+00  0.22622487834E+04  0.22622487834E+04  0.25500000000E-02 0. -1.
         -2   -1    0    0    0  501 -0.00000000000E+00 -0.00000000000E+00 -0.42130338992E+03  0.42130338992E+03  0.25500000000E-02 0.  1.
    8880022    1    1    2    0    0 -0.50437264828E+03 -0.68512344120E+03  0.29679970055E+03  0.91392976387E+03  0.15294330000E+03 0.  0.
    8880022    1    1    2    0    0  0.50437264828E+03  0.68512344120E+03  0.15441456929E+04  0.17696224094E+04  0.15294330000E+03 0.  0.
<mgrwt>
<rscale>  0 0.86439433E+03</rscale>
<asrwt>0</asrwt>
<pdfrwt beam="1">  1        2 0.34803827E+00 0.86439433E+03</pdfrwt>
<pdfrwt beam="2">  1       -2 0.64815907E-01 0.86439433E+03</pdfrwt>
<totfact> 0.10717560E+01</totfact>
</mgrwt>
</event>
<event>
 4    1  0.5387657E-008  0.4909466E+03  0.7818608E-02  0.1016169E+00
         -2   -1    0    0    0  501 -0.00000000000E+00  0.00000000000E+00  0.16676585196E+03  0.16676585198E+03  0.25500000000E-02 0.  1.
          2   -1    0    0  501    0  0.00000000000E+00 -0.00000000000E+00 -0.19761796981E+04  0.19761796981E+04  0.25500000000E-02 0. -1.
    8880022    1    1    2    0    0  0.28671672069E+03 -0.36800880480E+03 -0.34936397709E+03  0.60256435328E+03  0.15294330000E+03 0.  0.
    8880022    1    1    2    0    0 -0.28671672069E+03  0.36800880480E+03 -0.14600498690E+04  0.15403811968E+04  0.15294330000E+03 0.  0.
<mgrwt>
<rscale>  0 0.49094665E+03</rscale>
<asrwt>0</asrwt>
<pdfrwt beam="1">  1        2 0.30402763E+00 0.49094665E+03</pdfrwt>
<pdfrwt beam="2">  1       -2 0.25656286E-01 0.49094665E+03</pdfrwt>
<totfact> 0.99927803E+01</totfact>
</mgrwt>
</event>
<event>
 4    1  0.5387657E-008  0.5651492E+03  0.7818608E-02  0.9980471E-01
          2   -1    0    0  501    0  0.00000000000E+00  0.00000000000E+00  0.23245486129E+04  0.23245486129E+04  0.25500000000E-02 0. -1.
         -2   -1    0    0    0  501 -0.00000000000E+00 -0.00000000000E+00 -0.23239948365E+03  0.23239948366E+03  0.25500000000E-02 0.  1.
    8880022    1    1    2    0    0 -0.48513587562E+03  0.24626224585E+03  0.18634740959E+04  0.19472876703E+04  0.15294330000E+03 0.  0.
    8880022    1    1    2    0    0  0.48513587562E+03 -0.24626224585E+03  0.22867503337E+03  0.60966042634E+03  0.15294330000E+03 0.  0.
<mgrwt>
<rscale>  0 0.56514915E+03</rscale>
<asrwt>0</asrwt>
<pdfrwt beam="1">  1        2 0.35762286E+00 0.56514915E+03</pdfrwt>
<pdfrwt beam="2">  1       -2 0.35753767E-01 0.56514915E+03</pdfrwt>
<totfact> 0.34532452E+01</totfact>
</mgrwt>
</event>
<event>
 4    1  0.5387657E-008  0.7831398E+03  0.7818608E-02  0.9584747E-01
         -2   -1    0    0    0  501 -0.00000000000E+00  0.00000000000E+00  0.38699644795E+03  0.38699644796E+03  0.25500000000E-02 0.  1.
          2   -1    0    0  501    0  0.00000000000E+00 -0.00000000000E+00 -0.20307988553E+04  0.20307988553E+04  0.25500000000E-02 0. -1.
    8880022    1    1    2    0    0  0.30311209616E+03  0.70571899608E+03 -0.13884379391E+04  0.15940727111E+04  0.15294330000E+03 0.  0.
    8880022    1    1    2    0    0 -0.30311209616E+03 -0.70571899608E+03 -0.25536446822E+03  0.82372259221E+03  0.15294330000E+03 0.  0.
<mgrwt>
<rscale>  0 0.78313977E+03</rscale>
<asrwt>0</asrwt>
<pdfrwt beam="1">  1        2 0.31243059E+00 0.78313977E+03</pdfrwt>
<pdfrwt beam="2">  1       -2 0.59537916E-01 0.78313977E+03</pdfrwt>
<totfact> 0.17421385E+01</totfact>
</mgrwt>
</event>
<event>
 4    1  0.5387657E-008  0.2985429E+03  0.7818608E-02  0.1085971E+00
         -2   -1    0    0    0  501 -0.00000000000E+00  0.00000000000E+00  0.18960486876E+03  0.18960486878E+03  0.25500000000E-02 0.  1.
          2   -1    0    0  501    0  0.00000000000E+00 -0.00000000000E+00 -0.90090839686E+03  0.90090839687E+03  0.25500000000E-02 0. -1.
    8880022    1    1    2    0    0  0.23456813365E+03 -0.10350834470E+03 -0.73271752508E+03  0.79120339440E+03  0.15294330000E+03 0.  0.
    8880022    1    1    2    0    0 -0.23456813365E+03  0.10350834470E+03  0.21413996978E+02  0.29930987125E+03  0.15294330000E+03 0.  0.
<mgrwt>
<rscale>  0 0.29854286E+03</rscale>
<asrwt>0</asrwt>
<pdfrwt beam="1">  1        2 0.13860129E+00 0.29854286E+03</pdfrwt>
<pdfrwt beam="2">  1       -2 0.29169980E-01 0.29854286E+03</pdfrwt>
<totfact> 0.32813063E+02</totfact>
</mgrwt>
</event>
<event>
 4    1  0.5387657E-008  0.2628953E+03  0.7818608E-02  0.1105416E+00
          2   -1    0    0  501    0  0.00000000000E+00  0.00000000000E+00  0.14545585958E+04  0.14545585958E+04  0.25500000000E-02 0. -1.
         -2   -1    0    0    0  501 -0.00000000000E+00 -0.00000000000E+00 -0.15177432928E+04  0.15177432928E+04  0.25500000000E-02 0.  1.
    8880022    1    1    2    0    0 -0.15525835872E+03 -0.14702757334E+03  0.14311104459E+04  0.14550570527E+04  0.15294330000E+03 0.  0.
    8880022    1    1    2    0    0  0.15525835872E+03  0.14702757334E+03 -0.14942951429E+04  0.15172448360E+04  0.15294330000E+03 0.  1.
<mgrwt>
<rscale>  0 0.26289526E+03</rscale>
<asrwt>0</asrwt>
<pdfrwt beam="1">  1        2 0.22377824E+00 0.26289526E+03</pdfrwt>
<pdfrwt beam="2">  1       -2 0.23349897E+00 0.26289526E+03</pdfrwt>
<totfact> 0.13272048E+00</totfact>
</mgrwt>
</event>
<event>
 4    1  0.5387657E-008  0.6917752E+03  0.7818608E-02  0.9731402E-01
         -2   -1    0    0    0  501 -0.00000000000E+00  0.00000000000E+00  0.41377257265E+03  0.41377257266E+03  0.25500000000E-02 0.  1.
          2   -1    0    0  501    0  0.00000000000E+00 -0.00000000000E+00 -0.12725952880E+04  0.12725952880E+04  0.25500000000E-02 0. -1.
    8880022    1    1    2    0    0  0.17936121342E+02  0.67441794283E+03 -0.68401915472E+03  0.97284897240E+03  0.15294330000E+03 0.  0.
    8880022    1    1    2    0    0 -0.17936121342E+02 -0.67441794283E+03 -0.17480356061E+03  0.71351888824E+03  0.15294330000E+03 0.  0.
<mgrwt>
<rscale>  0 0.69177519E+03</rscale>
<asrwt>0</asrwt>
<pdfrwt beam="1">  1        2 0.19578389E+00 0.69177519E+03</pdfrwt>
<pdfrwt beam="2">  1       -2 0.63657319E-01 0.69177519E+03</pdfrwt>
<totfact> 0.40163363E+01</totfact>
</mgrwt>
</event>
<event>
 4    1  0.5418146E-008  0.6181578E+03  0.7818608E-02  0.9868434E-01
         -2   -1    0    0    0  501 -0.00000000000E+00  0.00000000000E+00  0.10465815314E+04  0.10465815314E+04  0.25500000000E-02 0.  1.
          2   -1    0    0  501    0  0.00000000000E+00 -0.00000000000E+00 -0.22235396380E+04  0.22235396380E+04  0.25500000000E-02 0. -1.
    8880022    1    1    2    0    0 -0.55577104484E+03  0.22326212040E+03 -0.20832831634E+04  0.21730595529E+04  0.15294330000E+03 0.  0.
    8880022    1    1    2    0    0  0.55577104484E+03 -0.22326212040E+03  0.90632505686E+03  0.10970616165E+04  0.15294330000E+03 0.  0.
<mgrwt>
<rscale>  0 0.61815781E+03</rscale>
<asrwt>0</asrwt>
<pdfrwt beam="1">  1        2 0.34208302E+00 0.61815781E+03</pdfrwt>
<pdfrwt beam="2">  1       -2 0.16101254E+00 0.61815781E+03</pdfrwt>
<totfact> 0.13345229E+00</totfact>
</mgrwt>
</event>
<event>
 4    1  0.5387657E-008  0.8965948E+03  0.7818608E-02  0.9429848E-01
         -2   -1    0    0    0  501 -0.00000000000E+00  0.00000000000E+00  0.75140582394E+03  0.75140582395E+03  0.25500000000E-02 0.  1.
          2   -1    0    0  501    0  0.00000000000E+00 -0.00000000000E+00 -0.27012246918E+04  0.27012246918E+04  0.25500000000E-02 0. -1.
    8880022    1    1    2    0    0 -0.80037050557E+03 -0.37402883553E+03  0.36667580271E+03  0.96867606211E+03  0.15294330000E+03 0.  0.
    8880022    1    1    2    0    0  0.80037050557E+03  0.37402883553E+03 -0.23164946706E+04  0.24839544536E+04  0.15294330000E+03 0.  0.
<mgrwt>
<rscale>  0 0.89659476E+03</rscale>
<asrwt>0</asrwt>
<pdfrwt beam="1">  1        2 0.41557302E+00 0.89659476E+03</pdfrwt>
<pdfrwt beam="2">  1       -2 0.11560090E+00 0.89659476E+03</pdfrwt>
<totfact> 0.15874451E+00</totfact>
</mgrwt>
</event>
<event>
 4    1  0.5387657E-008  0.4021356E+03  0.7818608E-02  0.1043043E+00
         -2   -1    0    0    0  501 -0.00000000000E+00  0.00000000000E+00  0.14676702423E+03  0.14676702425E+03  0.25500000000E-02 0.  1.
          2   -1    0    0  501    0  0.00000000000E+00 -0.00000000000E+00 -0.16128833054E+04  0.16128833054E+04  0.25500000000E-02 0. -1.
    8880022    1    1    2    0    0 -0.35105396620E+03  0.12281079508E+03 -0.23780650455E+03  0.46718836158E+03  0.15294330000E+03 0.  0.
    8880022    1    1    2    0    0  0.35105396620E+03 -0.12281079508E+03 -0.12283097767E+04  0.12924619681E+04  0.15294330000E+03 0.  0.
<mgrwt>
<rscale>  0 0.40213559E+03</rscale>
<asrwt>0</asrwt>
<pdfrwt beam="1">  1        2 0.24813588E+00 0.40213559E+03</pdfrwt>
<pdfrwt beam="2">  1       -2 0.22579543E-01 0.40213559E+03</pdfrwt>
<totfact> 0.19916867E+02</totfact>
</mgrwt>
</event>
<event>
 4    1  0.5387657E-008  0.8302968E+03  0.7818608E-02  0.9517170E-01
         -2   -1    0    0    0  501 -0.00000000000E+00  0.00000000000E+00  0.10835280893E+04  0.10835280893E+04  0.25500000000E-02 0.  1.
          2   -1    0    0  501    0  0.00000000000E+00 -0.00000000000E+00 -0.22639129823E+04  0.22639129823E+04  0.25500000000E-02 0. -1.
    8880022    1    1    2    0    0 -0.36744416880E+03  0.72868780763E+03 -0.20093661778E+04  0.21741539107E+04  0.15294330000E+03 0.  0.
    8880022    1    1    2    0    0  0.36744416880E+03 -0.72868780763E+03  0.82898128485E+03  0.11732871609E+04  0.15294330000E+03 0.  0.
<mgrwt>
<rscale>  0 0.83029681E+03</rscale>
<asrwt>0</asrwt>
<pdfrwt beam="1">  1        2 0.34829430E+00 0.83029681E+03</pdfrwt>
<pdfrwt beam="2">  1       -2 0.16669663E+00 0.83029681E+03</pdfrwt>
<totfact> 0.11020833E+00</totfact>
</mgrwt>
</event>
<event>
 4    1  0.5387657E-008  0.1799497E+03  0.7818608E-02  0.1167852E+00
         -2   -1    0    0    0  501 -0.00000000000E+00  0.00000000000E+00  0.24299071681E+03  0.24299071682E+03  0.25500000000E-02 0.  1.
          2   -1    0    0  501    0  0.00000000000E+00 -0.00000000000E+00 -0.15113533267E+03  0.15113533269E+03  0.25500000000E-02 0. -1.
    8880022    1    1    2    0    0 -0.66959127598E+01 -0.94580198746E+02 -0.21836652599E+02  0.18126980348E+03  0.15294330000E+03 0.  1.
    8880022    1    1    2    0    0  0.66959127598E+01  0.94580198746E+02  0.11369203674E+03  0.21285624603E+03  0.15294330000E+03 0.  1.
<mgrwt>
<rscale>  0 0.17994972E+03</rscale>
<asrwt>0</asrwt>
<pdfrwt beam="1">  1        2 0.23251590E-01 0.17994972E+03</pdfrwt>
<pdfrwt beam="2">  1       -2 0.37383187E-01 0.17994972E+03</pdfrwt>
<totfact> 0.15623495E+03</totfact>
</mgrwt>
</event>
<event>
 4    1  0.5387657E-008  0.1022604E+04  0.7818608E-02  0.9284095E-01
         -2   -1    0    0    0  501 -0.00000000000E+00  0.00000000000E+00  0.13882368639E+04  0.13882368639E+04  0.25500000000E-02 0.  1.
          2   -1    0    0  501    0  0.00000000000E+00 -0.00000000000E+00 -0.84640309983E+03  0.84640309983E+03  0.25500000000E-02 0. -1.
    8880022    1    1    2    0    0 -0.10093858049E+04 -0.58890226710E+02  0.64154402567E+03  0.12071860469E+04  0.15294330000E+03 0.  0.
    8880022    1    1    2    0    0  0.10093858049E+04  0.58890226710E+02 -0.99710261577E+02  0.10274539168E+04  0.15294330000E+03 0.  0.
<mgrwt>
<rscale>  0 0.10226042E+04</rscale>
<asrwt>0</asrwt>
<pdfrwt beam="1">  1        2 0.13021586E+00 0.10226042E+04</pdfrwt>
<pdfrwt beam="2">  1       -2 0.21357490E+00 0.10226042E+04</pdfrwt>
<totfact> 0.34365548E+00</totfact>
</mgrwt>
</event>
<event>
 4    1  0.5387657E-008  0.8579033E+03  0.7818608E-02  0.9479790E-01
          2   -1    0    0  501    0  0.00000000000E+00  0.00000000000E+00  0.70571513347E+03  0.70571513348E+03  0.25500000000E-02 0. -1.
         -2   -1    0    0    0  501 -0.00000000000E+00 -0.00000000000E+00 -0.14362485512E+04  0.14362485512E+04  0.25500000000E-02 0.  1.
    8880022    1    1    2    0    0  0.70416555581E+03 -0.46557199008E+03 -0.92573367733E+03  0.12621334725E+04  0.15294330000E+03 0.  0.
    8880022    1    1    2    0    0 -0.70416555581E+03  0.46557199008E+03  0.19520025962E+03  0.87983021220E+03  0.15294330000E+03 0.  0.
<mgrwt>
<rscale>  0 0.85790329E+03</rscale>
<asrwt>0</asrwt>
<pdfrwt beam="1">  1        2 0.10857156E+00 0.85790329E+03</pdfrwt>
<pdfrwt beam="2">  1       -2 0.22096131E+00 0.85790329E+03</pdfrwt>
<totfact> 0.39942817E+00</totfact>
</mgrwt>
</event>
<event>
 4    1  0.5387657E-008  0.3497753E+03  0.7818608E-02  0.1062707E+00
          2   -1    0    0  501    0  0.00000000000E+00  0.00000000000E+00  0.30695577256E+03  0.30695577257E+03  0.25500000000E-02 0. -1.
         -2   -1    0    0    0  501 -0.00000000000E+00 -0.00000000000E+00 -0.40400292699E+03  0.40400292699E+03  0.25500000000E-02 0.  1.
    8880022    1    1    2    0    0  0.28043441646E+03 -0.14250477747E+03 -0.72927719392E+01  0.34985126994E+03  0.15294330000E+03 0.  1.
    8880022    1    1    2    0    0 -0.28043441646E+03  0.14250477747E+03 -0.89754382490E+02  0.36110742962E+03  0.15294330000E+03 0.  0.
<mgrwt>
<rscale>  0 0.34977525E+03</rscale>
<asrwt>0</asrwt>
<pdfrwt beam="1">  1        2 0.47223965E-01 0.34977525E+03</pdfrwt>
<pdfrwt beam="2">  1       -2 0.62154296E-01 0.34977525E+03</pdfrwt>
<totfact> 0.26277406E+02</totfact>
</mgrwt>
</event>
<event>
 4    1  0.5387657E-008  0.3958488E+03  0.7818608E-02  0.1045227E+00
          2   -1    0    0  501    0  0.00000000000E+00  0.00000000000E+00  0.12492022299E+04  0.12492022299E+04  0.25500000000E-02 0. -1.
         -2   -1    0    0    0  501 -0.00000000000E+00 -0.00000000000E+00 -0.64195082976E+03  0.64195082976E+03  0.25500000000E-02 0.  1.
    8880022    1    1    2    0    0  0.28936578482E+03 -0.22264786874E+03 -0.54455179303E+03  0.67322577133E+03  0.15294330000E+03 0.  0.
    8880022    1    1    2    0    0 -0.28936578482E+03  0.22264786874E+03  0.11518031932E+04  0.12179272884E+04  0.15294330000E+03 0. -1.
<mgrwt>
<rscale>  0 0.39584881E+03</rscale>
<asrwt>0</asrwt>
<pdfrwt beam="1">  1        2 0.19218496E+00 0.39584881E+03</pdfrwt>
<pdfrwt beam="2">  1       -2 0.98761666E-01 0.39584881E+03</pdfrwt>
<totfact> 0.16273912E+01</totfact>
</mgrwt>
</event>
<event>
 4    1  0.5387657E-008  0.2490677E+03  0.7818608E-02  0.1113895E+00
          2   -1    0    0  501    0  0.00000000000E+00  0.00000000000E+00  0.21679212550E+04  0.21679212550E+04  0.25500000000E-02 0. -1.
         -2   -1    0    0    0  501 -0.00000000000E+00 -0.00000000000E+00 -0.29339910008E+03  0.29339910009E+03  0.25500000000E-02 0.  1.
    8880022    1    1    2    0    0  0.19288371718E+03  0.37933106854E+02 -0.23184750396E+03  0.34027630987E+03  0.15294330000E+03 0.  0.
    8880022    1    1    2    0    0 -0.19288371718E+03 -0.37933106854E+02  0.21063696589E+04  0.21210440453E+04  0.15294330000E+03 0. -1.
<mgrwt>
<rscale>  0 0.24906767E+03</rscale>
<asrwt>0</asrwt>
<pdfrwt beam="1">  1        2 0.33352635E+00 0.24906767E+03</pdfrwt>
<pdfrwt beam="2">  1       -2 0.45138323E-01 0.24906767E+03</pdfrwt>
<totfact> 0.29189202E+01</totfact>
</mgrwt>
</event>
<event>
 4    1  0.5387657E-008  0.3738311E+03  0.7818608E-02  0.1053238E+00
         -2   -1    0    0    0  501 -0.00000000000E+00  0.00000000000E+00  0.30288808094E+03  0.30288808095E+03  0.25500000000E-02 0.  1.
          2   -1    0    0  501    0  0.00000000000E+00 -0.00000000000E+00 -0.64986332006E+03  0.64986332007E+03  0.25500000000E-02 0. -1.
    8880022    1    1    2    0    0  0.26017557965E+03 -0.22060524465E+03 -0.43003231736E+03  0.56980475007E+03  0.15294330000E+03 0. -1.
    8880022    1    1    2    0    0 -0.26017557965E+03  0.22060524465E+03  0.83057078238E+02  0.38294665095E+03  0.15294330000E+03 0.  0.
<mgrwt>
<rscale>  0 0.37383106E+03</rscale>
<asrwt>0</asrwt>
<pdfrwt beam="1">  1        2 0.99978972E-01 0.37383106E+03</pdfrwt>
<pdfrwt beam="2">  1       -2 0.46598166E-01 0.37383106E+03</pdfrwt>
<totfact> 0.20287233E+02</totfact>
</mgrwt>
</event>
<event>
 4    1  0.5387657E-008  0.3474643E+03  0.7818608E-02  0.1063661E+00
          2   -1    0    0  501    0  0.00000000000E+00  0.00000000000E+00  0.35218020350E+04  0.35218020350E+04  0.25500000000E-02 0. -1.
         -2   -1    0    0    0  501 -0.00000000000E+00 -0.00000000000E+00 -0.10582303275E+03  0.10582303278E+03  0.25500000000E-02 0.  1.
    8880022    1    1    2    0    0 -0.71015676242E+02 -0.30380348396E+03  0.21662957609E+03  0.40946283029E+03  0.15294330000E+03 0.  0.
    8880022    1    1    2    0    0  0.71015676242E+02  0.30380348396E+03  0.31993494262E+04  0.32181622375E+04  0.15294330000E+03 0. -1.
<mgrwt>
<rscale>  0 0.34746429E+03</rscale>
<asrwt>0</asrwt>
<pdfrwt beam="1">  1        2 0.54181569E+00 0.34746429E+03</pdfrwt>
<pdfrwt beam="2">  1       -2 0.16280467E-01 0.34746429E+03</pdfrwt>
<totfact> 0.28483499E+01</totfact>
</mgrwt>
</event>
<event>
 4    1  0.5387657E-008  0.1059939E+04  0.7818608E-02  0.9245143E-01
          2   -1    0    0  501    0  0.00000000000E+00  0.00000000000E+00  0.18036588052E+04  0.18036588052E+04  0.25500000000E-02 0. -1.
         -2   -1    0    0    0  501 -0.00000000000E+00 -0.00000000000E+00 -0.73680524150E+03  0.73680524150E+03  0.25500000000E-02 0.  1.
    8880022    1    1    2    0    0 -0.69080220315E+03  0.78922171561E+03  0.33957234803E+02  0.10604826010E+04  0.15294330000E+03 0.  0.
    8880022    1    1    2    0    0  0.69080220315E+03 -0.78922171561E+03  0.10328963289E+04  0.14799814457E+04  0.15294330000E+03 0.  0.
<mgrwt>
<rscale>  0 0.10599388E+04</rscale>
<asrwt>0</asrwt>
<pdfrwt beam="1">  1        2 0.27748597E+00 0.10599388E+04</pdfrwt>
<pdfrwt beam="2">  1       -2 0.11335465E+00 0.10599388E+04</pdfrwt>
<totfact> 0.51949726E+00</totfact>
</mgrwt>
</event>
<event>
 4    1  0.5387657E-008  0.4330226E+03  0.7818608E-02  0.1032909E+00
          2   -1    0    0  501    0  0.00000000000E+00  0.00000000000E+00  0.20918032987E+04  0.20918032987E+04  0.25500000000E-02 0. -1.
         -2   -1    0    0    0  501 -0.00000000000E+00 -0.00000000000E+00 -0.16276940812E+03  0.16276940814E+03  0.25500000000E-02 0.  1.
    8880022    1    1    2    0    0 -0.35859180516E+03 -0.18849102956E+03  0.17201219060E+04  0.17737891575E+04  0.15294330000E+03 0.  0.
    8880022    1    1    2    0    0  0.35859180516E+03  0.18849102956E+03  0.20891198460E+03  0.48078354930E+03  0.15294330000E+03 0.  0.
<mgrwt>
<rscale>  0 0.43302264E+03</rscale>
<asrwt>0</asrwt>
<pdfrwt beam="1">  1        2 0.32181589E+00 0.43302264E+03</pdfrwt>
<pdfrwt beam="2">  1       -2 0.25041448E-01 0.43302264E+03</pdfrwt>
<totfact> 0.91381960E+01</totfact>
</mgrwt>
</event>
<event>
 4    1  0.5387657E-008  0.1987960E+03  0.7818608E-02  0.1150759E+00
          2   -1    0    0  501    0  0.00000000000E+00  0.00000000000E+00  0.80546236665E+03  0.80546236665E+03  0.25500000000E-02 0. -1.
         -2   -1    0    0    0  501 -0.00000000000E+00 -0.00000000000E+00 -0.74986237562E+02  0.74986237605E+02  0.25500000000E-02 0.  1.
    8880022    1    1    2    0    0  0.12630743028E+03  0.13215427109E+02  0.62406686000E+03  0.65496512367E+03  0.15294330000E+03 0.  0.
    8880022    1    1    2    0    0 -0.12630743028E+03 -0.13215427109E+02  0.10640926909E+03  0.22548348059E+03  0.15294330000E+03 0.  0.
<mgrwt>
<rscale>  0 0.19879604E+03</rscale>
<asrwt>0</asrwt>
<pdfrwt beam="1">  1        2 0.12391729E+00 0.19879604E+03</pdfrwt>
<pdfrwt beam="2">  1       -2 0.11536344E-01 0.19879604E+03</pdfrwt>
<totfact> 0.18460779E+03</totfact>
</mgrwt>
</event>
<event>
 4    1  0.5387657E-008  0.9043822E+03  0.7818608E-02  0.9420120E-01
         -2   -1    0    0    0  501 -0.00000000000E+00  0.00000000000E+00  0.38765865034E+03  0.38765865034E+03  0.25500000000E-02 0.  1.
          2   -1    0    0  501    0  0.00000000000E+00 -0.00000000000E+00 -0.23993155154E+04  0.23993155154E+04  0.25500000000E-02 0. -1.
    8880022    1    1    2    0    0  0.61687760100E+03 -0.64341091534E+03 -0.52182684387E+03  0.10441314518E+04  0.15294330000E+03 0.  0.
    8880022    1    1    2    0    0 -0.61687760100E+03  0.64341091534E+03 -0.14898300212E+04  0.17428427140E+04  0.15294330000E+03 0.  0.
<mgrwt>
<rscale>  0 0.90438224E+03</rscale>
<asrwt>0</asrwt>
<pdfrwt beam="1">  1        2 0.36912546E+00 0.90438224E+03</pdfrwt>
<pdfrwt beam="2">  1       -2 0.59639794E-01 0.90438224E+03</pdfrwt>
<totfact> 0.10668926E+01</totfact>
</mgrwt>
</event>
<event>
 4    1  0.5387657E-008  0.1810131E+03  0.7818608E-02  0.1166826E+00
          2   -1    0    0  501    0  0.00000000000E+00  0.00000000000E+00  0.18378436303E+04  0.18378436303E+04  0.25500000000E-02 0. -1.
         -2   -1    0    0    0  501 -0.00000000000E+00 -0.00000000000E+00 -0.75258579996E+02  0.75258580039E+02  0.25500000000E-02 0.  1.
    8880022    1    1    2    0    0 -0.41097036801E+02 -0.87664836201E+02  0.45688742112E+02  0.18669012858E+03  0.15294330000E+03 0.  1.
    8880022    1    1    2    0    0  0.41097036801E+02  0.87664836201E+02  0.17168963082E+04  0.17264120818E+04  0.15294330000E+03 0.  0.
<mgrwt>
<rscale>  0 0.18101310E+03</rscale>
<asrwt>0</asrwt>
<pdfrwt beam="1">  1        2 0.28274518E+00 0.18101310E+03</pdfrwt>
<pdfrwt beam="2">  1       -2 0.11578243E-01 0.18101310E+03</pdfrwt>
<totfact> 0.48356677E+02</totfact>
</mgrwt>
</event>
<event>
 4    1  0.5387657E-008  0.8335977E+03  0.7818608E-02  0.9512620E-01
          2   -1    0    0  501    0  0.00000000000E+00  0.00000000000E+00  0.12648032388E+04  0.12648032388E+04  0.25500000000E-02 0. -1.
         -2   -1    0    0    0  501 -0.00000000000E+00 -0.00000000000E+00 -0.71706773565E+03  0.71706773565E+03  0.25500000000E-02 0.  1.
    8880022    1    1    2    0    0 -0.42482697125E+03 -0.70072503569E+03 -0.20530013103E+03  0.85850645191E+03  0.15294330000E+03 0.  0.
    8880022    1    1    2    0    0  0.42482697125E+03  0.70072503569E+03  0.75303563420E+03  0.11233645226E+04  0.15294330000E+03 0.  0.
<mgrwt>
<rscale>  0 0.83359774E+03</rscale>
<asrwt>0</asrwt>
<pdfrwt beam="1">  1        2 0.19458511E+00 0.83359774E+03</pdfrwt>
<pdfrwt beam="2">  1       -2 0.11031811E+00 0.83359774E+03</pdfrwt>
<totfact> 0.11429771E+01</totfact>
</mgrwt>
</event>
<event>
 4    1  0.5387657E-008  0.3343936E+03  0.7818608E-02  0.1069209E+00
         -2   -1    0    0    0  501 -0.00000000000E+00  0.00000000000E+00  0.15855700669E+04  0.15855700669E+04  0.25500000000E-02 0.  1.
          2   -1    0    0  501    0  0.00000000000E+00 -0.00000000000E+00 -0.10563506663E+03  0.10563506666E+03  0.25500000000E-02 0. -1.
    8880022    1    1    2    0    0  0.29661116625E+03 -0.21195695500E+02  0.25244947181E+03  0.41898667077E+03  0.15294330000E+03 0.  0.
    8880022    1    1    2    0    0 -0.29661116625E+03  0.21195695500E+02  0.12274855284E+04  0.12722184628E+04  0.15294330000E+03 0.  0.
<mgrwt>
<rscale>  0 0.33439362E+03</rscale>
<asrwt>0</asrwt>
<pdfrwt beam="1">  1        2 0.16251550E-01 0.33439362E+03</pdfrwt>
<pdfrwt beam="2">  1       -2 0.24393384E+00 0.33439362E+03</pdfrwt>
<totfact> 0.27333284E+01</totfact>
</mgrwt>
</event>
<event>
 4    1  0.5387657E-008  0.7827140E+03  0.7818608E-02  0.9585380E-01
         -2   -1    0    0    0  501 -0.00000000000E+00  0.00000000000E+00  0.50450588877E+03  0.50450588878E+03  0.25500000000E-02 0.  1.
          2   -1    0    0  501    0  0.00000000000E+00 -0.00000000000E+00 -0.29171525195E+04  0.29171525195E+04  0.25500000000E-02 0. -1.
    8880022    1    1    2    0    0 -0.34165494815E+03 -0.68740194721E+03 -0.25134287714E+04  0.26324827412E+04  0.15294330000E+03 0.  0.
    8880022    1    1    2    0    0  0.34165494815E+03  0.68740194721E+03  0.10078214070E+03  0.78917566709E+03  0.15294330000E+03 0.  0.
<mgrwt>
<rscale>  0 0.78271399E+03</rscale>
<asrwt>0</asrwt>
<pdfrwt beam="1">  1        2 0.44879268E+00 0.78271399E+03</pdfrwt>
<pdfrwt beam="2">  1       -2 0.77616292E-01 0.78271399E+03</pdfrwt>
<totfact> 0.30668330E+00</totfact>
</mgrwt>
</event>
<event>
 4    1  0.5387657E-008  0.1639657E+03  0.7818608E-02  0.1184291E+00
          2   -1    0    0  501    0  0.00000000000E+00  0.00000000000E+00  0.10300875548E+04  0.10300875548E+04  0.25500000000E-02 0. -1.
         -2   -1    0    0    0  501 -0.00000000000E+00 -0.00000000000E+00 -0.33423000390E+03  0.33423000391E+03  0.25500000000E-02 0.  1.
    8880022    1    1    2    0    0 -0.64323780837E+01  0.58751347885E+02 -0.30705435885E+03  0.34809069029E+03  0.15294330000E+03 0.  1.
    8880022    1    1    2    0    0  0.64323780837E+01 -0.58751347885E+02  0.10029119098E+04  0.10162268684E+04  0.15294330000E+03 0.  0.
<mgrwt>
<rscale>  0 0.16396570E+03</rscale>
<asrwt>0</asrwt>
<pdfrwt beam="1">  1        2 0.15847501E+00 0.16396570E+03</pdfrwt>
<pdfrwt beam="2">  1       -2 0.51420001E-01 0.16396570E+03</pdfrwt>
<totfact> 0.95172961E+01</totfact>
</mgrwt>
</event>
<event>
 4    1  0.5387657E-008  0.5462718E+03  0.7818608E-02  0.1002361E+00
         -2   -1    0    0    0  501 -0.00000000000E+00  0.00000000000E+00  0.14060949089E+04  0.14060949089E+04  0.25500000000E-02 0.  1.
          2   -1    0    0  501    0  0.00000000000E+00 -0.00000000000E+00 -0.11993075828E+04  0.11993075828E+04  0.25500000000E-02 0. -1.
    8880022    1    1    2    0    0 -0.49798644295E+03  0.16441033474E+03  0.12852252470E+04  0.13965016448E+04  0.15294330000E+03 0.  0.
    8880022    1    1    2    0    0  0.49798644295E+03 -0.16441033474E+03 -0.10784379209E+04  0.12089008469E+04  0.15294330000E+03 0.  0.
<mgrwt>
<rscale>  0 0.54627183E+03</rscale>
<asrwt>0</asrwt>
<pdfrwt beam="1">  1        2 0.18450886E+00 0.54627183E+03</pdfrwt>
<pdfrwt beam="2">  1       -2 0.21632229E+00 0.54627183E+03</pdfrwt>
<totfact> 0.21203149E+00</totfact>
</mgrwt>
</event>
<event>
 4    1  0.5387657E-008  0.4028586E+03  0.7818608E-02  0.1042794E+00
         -2   -1    0    0    0  501 -0.00000000000E+00  0.00000000000E+00  0.35188409982E+03  0.35188409983E+03  0.25500000000E-02 0.  1.
          2   -1    0    0  501    0  0.00000000000E+00 -0.00000000000E+00 -0.71706780584E+03  0.71706780584E+03  0.25500000000E-02 0. -1.
    8880022    1    1    2    0    0  0.17149169545E+03 -0.33089880090E+03 -0.50184935382E+03  0.64354319590E+03  0.15294330000E+03 0. -1.
    8880022    1    1    2    0    0 -0.17149169545E+03  0.33089880090E+03  0.13666564781E+03  0.42540870977E+03  0.15294330000E+03 0.  0.
<mgrwt>
<rscale>  0 0.40285862E+03</rscale>
<asrwt>0</asrwt>
<pdfrwt beam="1">  1        2 0.11031812E+00 0.40285862E+03</pdfrwt>
<pdfrwt beam="2">  1       -2 0.54136016E-01 0.40285862E+03</pdfrwt>
<totfact> 0.13253131E+02</totfact>
</mgrwt>
</event>
<event>
 4    1  0.5387657E-008  0.4298576E+03  0.7818608E-02  0.1033905E+00
          2   -1    0    0  501    0  0.00000000000E+00  0.00000000000E+00  0.12949853333E+04  0.12949853333E+04  0.25500000000E-02 0. -1.
         -2   -1    0    0    0  501 -0.00000000000E+00 -0.00000000000E+00 -0.32566784096E+03  0.32566784097E+03  0.25500000000E-02 0.  1.
    8880022    1    1    2    0    0 -0.75460309563E+02 -0.39457782588E+03 -0.12274219548E+03  0.44703827416E+03  0.15294330000E+03 0.  0.
    8880022    1    1    2    0    0  0.75460309563E+02  0.39457782588E+03  0.10920596878E+04  0.11736149001E+04  0.15294330000E+03 0. -1.
<mgrwt>
<rscale>  0 0.42985762E+03</rscale>
<asrwt>0</asrwt>
<pdfrwt beam="1">  1        2 0.19922851E+00 0.42985762E+03</pdfrwt>
<pdfrwt beam="2">  1       -2 0.50102746E-01 0.42985762E+03</pdfrwt>
<totfact> 0.66375644E+01</totfact>
</mgrwt>
</event>
<event>
 4    1  0.5387657E-008  0.4804145E+03  0.7818608E-02  0.1019021E+00
          2   -1    0    0  501    0  0.00000000000E+00  0.00000000000E+00  0.13232744639E+04  0.13232744639E+04  0.25500000000E-02 0. -1.
         -2   -1    0    0    0  501 -0.00000000000E+00 -0.00000000000E+00 -0.47511720777E+03  0.47511720777E+03  0.25500000000E-02 0.  1.
    8880022    1    1    2    0    0 -0.44641802224E+03 -0.90096473445E+02 -0.29127811039E+03  0.56181937997E+03  0.15294330000E+03 0.  0.
    8880022    1    1    2    0    0  0.44641802224E+03  0.90096473445E+02  0.11394353665E+04  0.12365722917E+04  0.15294330000E+03 0.  0.
<mgrwt>
<rscale>  0 0.48041449E+03</rscale>
<asrwt>0</asrwt>
<pdfrwt beam="1">  1        2 0.20358068E+00 0.48041449E+03</pdfrwt>
<pdfrwt beam="2">  1       -2 0.73094957E-01 0.48041449E+03</pdfrwt>
<totfact> 0.28682637E+01</totfact>
</mgrwt>
</event>
<event>
 4    1  0.5387657E-008  0.6951784E+03  0.7818608E-02  0.9725514E-01
          2   -1    0    0  501    0  0.00000000000E+00  0.00000000000E+00  0.76050261643E+03  0.76050261644E+03  0.25500000000E-02 0. -1.
         -2   -1    0    0    0  501 -0.00000000000E+00 -0.00000000000E+00 -0.98874327664E+03  0.98874327665E+03  0.25500000000E-02 0.  1.
    8880022    1    1    2    0    0 -0.67810401925E+03  0.74988540143E+01  0.40868190984E+03  0.80640799239E+03  0.15294330000E+03 0.  0.
    8880022    1    1    2    0    0  0.67810401925E+03 -0.74988540143E+01 -0.63692257005E+03  0.94283790070E+03  0.15294330000E+03 0.  0.
<mgrwt>
<rscale>  0 0.69517836E+03</rscale>
<asrwt>0</asrwt>
<pdfrwt beam="1">  1        2 0.11700040E+00 0.69517836E+03</pdfrwt>
<pdfrwt beam="2">  1       -2 0.15211435E+00 0.69517836E+03</pdfrwt>
<totfact> 0.10868224E+01</totfact>
</mgrwt>
</event>
<event>
 4    1  0.5387657E-008  0.1304496E+04  0.7818608E-02  0.9026007E-01
         -2   -1    0    0    0  501 -0.00000000000E+00  0.00000000000E+00  0.57755160881E+03  0.57755160881E+03  0.25500000000E-02 0.  1.
          2   -1    0    0  501    0  0.00000000000E+00 -0.00000000000E+00 -0.36568621256E+04  0.36568621256E+04  0.25500000000E-02 0. -1.
    8880022    1    1    2    0    0  0.12674141366E+04  0.26828931645E+03 -0.60645798152E+03  0.14385759234E+04  0.15294330000E+03 0.  0.
    8880022    1    1    2    0    0 -0.12674141366E+04 -0.26828931645E+03 -0.24728525353E+04  0.27958378110E+04  0.15294330000E+03 0.  0.
<mgrwt>
<rscale>  0 0.13044958E+04</rscale>
<asrwt>0</asrwt>
<pdfrwt beam="1">  1        2 0.56259416E+00 0.13044958E+04</pdfrwt>
<pdfrwt beam="2">  1       -2 0.88854096E-01 0.13044958E+04</pdfrwt>
<totfact> 0.67725383E-01</totfact>
</mgrwt>
</event>
<event>
 4    1  0.5387657E-008  0.8359958E+03  0.7818608E-02  0.9509328E-01
         -2   -1    0    0    0  501 -0.00000000000E+00  0.00000000000E+00  0.70648873719E+03  0.70648873720E+03  0.25500000000E-02 0.  1.
          2   -1    0    0  501    0  0.00000000000E+00 -0.00000000000E+00 -0.13660654933E+04  0.13660654933E+04  0.25500000000E-02 0. -1.
    8880022    1    1    2    0    0  0.25763451387E+03  0.78046251172E+03 -0.87405117095E+03  0.12094851704E+04  0.15294330000E+03 0.  0.
    8880022    1    1    2    0    0 -0.25763451387E+03 -0.78046251172E+03  0.21447441482E+03  0.86306906014E+03  0.15294330000E+03 0.  0.
<mgrwt>
<rscale>  0 0.83599577E+03</rscale>
<asrwt>0</asrwt>
<pdfrwt beam="1">  1        2 0.21016392E+00 0.83599577E+03</pdfrwt>
<pdfrwt beam="2">  1       -2 0.10869057E+00 0.83599577E+03</pdfrwt>
<totfact> 0.10354611E+01</totfact>
</mgrwt>
</event>
<event>
 4    1  0.5387657E-008  0.5442188E+03  0.7818608E-02  0.1002841E+00
          2   -1    0    0  501    0  0.00000000000E+00  0.00000000000E+00  0.82945216811E+03  0.82945216811E+03  0.25500000000E-02 0. -1.
         -2   -1    0    0    0  501 -0.00000000000E+00 -0.00000000000E+00 -0.57769601987E+03  0.57769601987E+03  0.25500000000E-02 0.  1.
    8880022    1    1    2    0    0  0.47247481548E+03 -0.22259827833E+03  0.56067513990E+03  0.78136464618E+03  0.15294330000E+03 0.  0.
    8880022    1    1    2    0    0 -0.47247481548E+03  0.22259827833E+03 -0.30891899166E+03  0.62578354181E+03  0.15294330000E+03 0.  0.
<mgrwt>
<rscale>  0 0.54421880E+03</rscale>
<asrwt>0</asrwt>
<pdfrwt beam="1">  1        2 0.12760803E+00 0.54421880E+03</pdfrwt>
<pdfrwt beam="2">  1       -2 0.88876311E-01 0.54421880E+03</pdfrwt>
<totfact> 0.36966266E+01</totfact>
</mgrwt>
</event>
<event>
 4    1  0.5387657E-008  0.2727110E+03  0.7818608E-02  0.1099738E+00
         -2   -1    0    0    0  501 -0.00000000000E+00  0.00000000000E+00  0.67713788584E+02  0.67713788632E+02  0.25500000000E-02 0.  1.
          2   -1    0    0  501    0  0.00000000000E+00 -0.00000000000E+00 -0.23400635544E+04  0.23400635544E+04  0.25500000000E-02 0. -1.
    8880022    1    1    2    0    0  0.22011512187E+03 -0.50288906022E+02 -0.20131529944E+04  0.20315403694E+04  0.15294330000E+03 0.  0.
    8880022    1    1    2    0    0 -0.22011512187E+03  0.50288906022E+02 -0.25919677142E+03  0.37623697356E+03  0.15294330000E+03 0.  1.
<mgrwt>
<rscale>  0 0.27271101E+03</rscale>
<asrwt>0</asrwt>
<pdfrwt beam="1">  1        2 0.36000972E+00 0.27271101E+03</pdfrwt>
<pdfrwt beam="2">  1       -2 0.10417508E-01 0.27271101E+03</pdfrwt>
<totfact> 0.30502587E+02</totfact>
</mgrwt>
</event>
<event>
 4    1  0.5387657E-008  0.1636092E+03  0.7818608E-02  0.1184681E+00
          2   -1    0    0  501    0  0.00000000000E+00  0.00000000000E+00  0.15663523939E+04  0.15663523939E+04  0.25500000000E-02 0. -1.
         -2   -1    0    0    0  501 -0.00000000000E+00 -0.00000000000E+00 -0.41260455293E+02  0.41260455372E+02  0.25500000000E-02 0.  1.
    8880022    1    1    2    0    0  0.65756649941E+01  0.57732918159E+02  0.13777688838E+04  0.13874491268E+04  0.15294330000E+03 0.  0.
    8880022    1    1    2    0    0 -0.65756649941E+01 -0.57732918159E+02  0.14732305479E+03  0.22016372248E+03  0.15294330000E+03 0.  1.
<mgrwt>
<rscale>  0 0.16360924E+03</rscale>
<asrwt>0</asrwt>
<pdfrwt beam="1">  1        2 0.24097729E+00 0.16360924E+03</pdfrwt>
<pdfrwt beam="2">  1       -2 0.63477625E-02 0.16360924E+03</pdfrwt>
<totfact> 0.17141422E+03</totfact>
</mgrwt>
</event>
<event>
 4    1  0.5387657E-008  0.2234109E+03  0.7818608E-02  0.1131365E+00
         -2   -1    0    0    0  501 -0.00000000000E+00  0.00000000000E+00  0.11748136223E+03  0.11748136226E+03  0.25500000000E-02 0.  1.
          2   -1    0    0  501    0  0.00000000000E+00 -0.00000000000E+00 -0.73230070156E+03  0.73230070157E+03  0.25500000000E-02 0. -1.
    8880022    1    1    2    0    0 -0.85423708129E+02 -0.13864909089E+03 -0.32102375160E+02  0.22570555115E+03  0.15294330000E+03 0.  0.
    8880022    1    1    2    0    0  0.85423708129E+02  0.13864909089E+03 -0.58271696417E+03  0.62407651267E+03  0.15294330000E+03 0.  0.
<mgrwt>
<rscale>  0 0.22341091E+03</rscale>
<asrwt>0</asrwt>
<pdfrwt beam="1">  1        2 0.11266164E+00 0.22341091E+03</pdfrwt>
<pdfrwt beam="2">  1       -2 0.18074056E-01 0.22341091E+03</pdfrwt>
<totfact> 0.99420584E+02</totfact>
</mgrwt>
</event>
<event>
 4    1  0.5387657E-008  0.2349075E+03  0.7818608E-02  0.1123233E+00
          2   -1    0    0  501    0  0.00000000000E+00  0.00000000000E+00  0.99994584249E+03  0.99994584249E+03  0.25500000000E-02 0. -1.
         -2   -1    0    0    0  501 -0.00000000000E+00 -0.00000000000E+00 -0.23242095027E+03  0.23242095029E+03  0.25500000000E-02 0.  1.
    8880022    1    1    2    0    0 -0.17710376270E+03  0.20594983254E+02 -0.15432000812E+03  0.28106265141E+03  0.15294330000E+03 0.  0.
    8880022    1    1    2    0    0  0.17710376270E+03 -0.20594983254E+02  0.92184490034E+03  0.95130414137E+03  0.15294330000E+03 0. -1.
<mgrwt>
<rscale>  0 0.23490753E+03</rscale>
<asrwt>0</asrwt>
<pdfrwt beam="1">  1        2 0.15383782E+00 0.23490753E+03</pdfrwt>
<pdfrwt beam="2">  1       -2 0.35757070E-01 0.23490753E+03</pdfrwt>
<totfact> 0.19685022E+02</totfact>
</mgrwt>
</event>
<event>
 4    1  0.5387657E-008  0.1539432E+03  0.7818608E-02  0.1195710E+00
         -2   -1    0    0    0  501 -0.00000000000E+00  0.00000000000E+00  0.30528737011E+03  0.30528737012E+03  0.25500000000E-02 0.  1.
          2   -1    0    0  501    0  0.00000000000E+00 -0.00000000000E+00 -0.88559300036E+03  0.88559300036E+03  0.25500000000E-02 0. -1.
    8880022    1    1    2    0    0 -0.38738264322E+01 -0.17083311490E+02 -0.85889787154E+03  0.87258469664E+03  0.15294330000E+03 0.  0.
    8880022    1    1    2    0    0  0.38738264322E+01  0.17083311490E+02  0.27859224130E+03  0.31829567384E+03  0.15294330000E+03 0.  1.
<mgrwt>
<rscale>  0 0.15394317E+03</rscale>
<asrwt>0</asrwt>
<pdfrwt beam="1">  1        2 0.13624508E+00 0.15394317E+03</pdfrwt>
<pdfrwt beam="2">  1       -2 0.46967288E-01 0.15394317E+03</pdfrwt>
<totfact> 0.14011388E+02</totfact>
</mgrwt>
</event>
<event>
 4    1  0.5387657E-008  0.2625192E+03  0.7818608E-02  0.1105639E+00
          2   -1    0    0  501    0  0.00000000000E+00  0.00000000000E+00  0.42687575425E+03  0.42687575425E+03  0.25500000000E-02 0. -1.
         -2   -1    0    0    0  501 -0.00000000000E+00 -0.00000000000E+00 -0.60515647792E+03  0.60515647792E+03  0.25500000000E-02 0.  1.
    8880022    1    1    2    0    0  0.20870075279E+03  0.44369628285E+02  0.35271535860E+03  0.43968675820E+03  0.15294330000E+03 0.  0.
    8880022    1    1    2    0    0 -0.20870075279E+03 -0.44369628285E+02 -0.53099608227E+03  0.59234547397E+03  0.15294330000E+03 0.  1.
<mgrwt>
<rscale>  0 0.26251918E+03</rscale>
<asrwt>0</asrwt>
<pdfrwt beam="1">  1        2 0.65673193E-01 0.26251918E+03</pdfrwt>
<pdfrwt beam="2">  1       -2 0.93100996E-01 0.26251918E+03</pdfrwt>
<totfact> 0.76102296E+01</totfact>
</mgrwt>
</event>
<event>
 4    1  0.5387657E-008  0.2379128E+03  0.7818608E-02  0.1121191E+00
         -2   -1    0    0    0  501 -0.00000000000E+00  0.00000000000E+00  0.18823668361E+03  0.18823668363E+03  0.25500000000E-02 0.  1.
          2   -1    0    0  501    0  0.00000000000E+00 -0.00000000000E+00 -0.97189248381E+03  0.97189248381E+03  0.25500000000E-02 0. -1.
    8880022    1    1    2    0    0  0.18123152044E+03 -0.19130865185E+02 -0.87387695298E+03  0.90568396032E+03  0.15294330000E+03 0.  0.
    8880022    1    1    2    0    0 -0.18123152044E+03  0.19130865185E+02  0.90221152789E+02  0.25444520712E+03  0.15294330000E+03 0.  1.
<mgrwt>
<rscale>  0 0.23791281E+03</rscale>
<asrwt>0</asrwt>
<pdfrwt beam="1">  1        2 0.14952192E+00 0.23791281E+03</pdfrwt>
<pdfrwt beam="2">  1       -2 0.28959490E-01 0.23791281E+03</pdfrwt>
<totfact> 0.30180627E+02</totfact>
</mgrwt>
</event>
<event>
 4    1  0.5387657E-008  0.6617753E+03  0.7818608E-02  0.9784931E-01
          2   -1    0    0  501    0  0.00000000000E+00  0.00000000000E+00  0.14859946167E+04  0.14859946167E+04  0.25500000000E-02 0. -1.
         -2   -1    0    0    0  501 -0.00000000000E+00 -0.00000000000E+00 -0.34309048101E+03  0.34309048101E+03  0.25500000000E-02 0.  1.
    8880022    1    1    2    0    0  0.34522675938E+03  0.54348261808E+03  0.22804649986E+03  0.69996552105E+03  0.15294330000E+03 0.  0.
    8880022    1    1    2    0    0 -0.34522675938E+03 -0.54348261808E+03  0.91485763583E+03  0.11291195767E+04  0.15294330000E+03 0.  0.
<mgrwt>
<rscale>  0 0.66177528E+03</rscale>
<asrwt>0</asrwt>
<pdfrwt beam="1">  1        2 0.22861456E+00 0.66177528E+03</pdfrwt>
<pdfrwt beam="2">  1       -2 0.52783151E-01 0.66177528E+03</pdfrwt>
<totfact> 0.45178444E+01</totfact>
</mgrwt>
</event>
<event>
 4    1  0.5387657E-008  0.6388495E+03  0.7818608E-02  0.9827930E-01
          2   -1    0    0  501    0  0.00000000000E+00  0.00000000000E+00  0.54153312882E+03  0.54153312882E+03  0.25500000000E-02 0. -1.
         -2   -1    0    0    0  501 -0.00000000000E+00 -0.00000000000E+00 -0.14041700321E+04  0.14041700321E+04  0.25500000000E-02 0.  1.
    8880022    1    1    2    0    0  0.45629560292E+03 -0.42015630967E+03  0.23084577214E+03  0.67927787048E+03  0.15294330000E+03 0.  0.
    8880022    1    1    2    0    0 -0.45629560292E+03  0.42015630967E+03 -0.10934826754E+04  0.12664252905E+04  0.15294330000E+03 0.  0.
<mgrwt>
<rscale>  0 0.63884948E+03</rscale>
<asrwt>0</asrwt>
<pdfrwt beam="1">  1        2 0.83312790E-01 0.63884948E+03</pdfrwt>
<pdfrwt beam="2">  1       -2 0.21602616E+00 0.63884948E+03</pdfrwt>
<totfact> 0.60945762E+00</totfact>
</mgrwt>
</event>
<event>
 4    1  0.5387657E-008  0.7775078E+03  0.7818608E-02  0.9593157E-01
         -2   -1    0    0    0  501 -0.00000000000E+00  0.00000000000E+00  0.32449712871E+03  0.32449712872E+03  0.25500000000E-02 0.  1.
          2   -1    0    0  501    0  0.00000000000E+00 -0.00000000000E+00 -0.20416108004E+04  0.20416108004E+04  0.25500000000E-02 0. -1.
    8880022    1    1    2    0    0 -0.74125273365E+03  0.17796378856E+03 -0.50857459830E+03  0.92906754342E+03  0.15294330000E+03 0.  0.
    8880022    1    1    2    0    0  0.74125273365E+03 -0.17796378856E+03 -0.12085390734E+04  0.14370403857E+04  0.15294330000E+03 0.  0.
<mgrwt>
<rscale>  0 0.77750780E+03</rscale>
<asrwt>0</asrwt>
<pdfrwt beam="1">  1        2 0.31409396E+00 0.77750780E+03</pdfrwt>
<pdfrwt beam="2">  1       -2 0.49922636E-01 0.77750780E+03</pdfrwt>
<totfact> 0.24776688E+01</totfact>
</mgrwt>
</event>
<event>
 4    1  0.5387657E-008  0.4392747E+03  0.7818608E-02  0.1030970E+00
          2   -1    0    0  501    0  0.00000000000E+00  0.00000000000E+00  0.19827182616E+04  0.19827182616E+04  0.25500000000E-02 0. -1.
         -2   -1    0    0    0  501 -0.00000000000E+00 -0.00000000000E+00 -0.10473990696E+03  0.10473990699E+03  0.25500000000E-02 0.  1.
    8880022    1    1    2    0    0  0.41134776256E+03  0.19069299885E+02  0.66122903279E+03  0.79384262092E+03  0.15294330000E+03 0.  0.
    8880022    1    1    2    0    0 -0.41134776256E+03 -0.19069299885E+02  0.12167493218E+04  0.12936155477E+04  0.15294330000E+03 0.  0.
<mgrwt>
<rscale>  0 0.43927471E+03</rscale>
<asrwt>0</asrwt>
<pdfrwt beam="1">  1        2 0.30503357E+00 0.43927471E+03</pdfrwt>
<pdfrwt beam="2">  1       -2 0.16113832E-01 0.43927471E+03</pdfrwt>
<totfact> 0.22449680E+02</totfact>
</mgrwt>
</event>
<event>
 4    1  0.5387657E-008  0.1023773E+04  0.7818608E-02  0.9282849E-01
         -2   -1    0    0    0  501 -0.00000000000E+00  0.00000000000E+00  0.10057372106E+04  0.10057372106E+04  0.25500000000E-02 0.  1.
          2   -1    0    0  501    0  0.00000000000E+00 -0.00000000000E+00 -0.12520650165E+04  0.12520650165E+04  0.25500000000E-02 0. -1.
    8880022    1    1    2    0    0  0.84357472505E+03  0.55955445901E+03 -0.58541994418E+03  0.11793335717E+04  0.15294330000E+03 0.  0.
    8880022    1    1    2    0    0 -0.84357472505E+03 -0.55955445901E+03  0.33909213822E+03  0.10784686553E+04  0.15294330000E+03 0.  0.
<mgrwt>
<rscale>  0 0.10237730E+04</rscale>
<asrwt>0</asrwt>
<pdfrwt beam="1">  1        2 0.19262539E+00 0.10237730E+04</pdfrwt>
<pdfrwt beam="2">  1       -2 0.15472880E+00 0.10237730E+04</pdfrwt>
<totfact> 0.48110119E+00</totfact>
</mgrwt>
</event>
<event>
 4    1  0.5387657E-008  0.6010160E+03  0.7818608E-02  0.9903300E-01
         -2   -1    0    0    0  501 -0.00000000000E+00  0.00000000000E+00  0.16451859246E+04  0.16451859246E+04  0.25500000000E-02 0.  1.
          2   -1    0    0  501    0  0.00000000000E+00 -0.00000000000E+00 -0.54649359766E+03  0.54649359766E+03  0.25500000000E-02 0. -1.
    8880022    1    1    2    0    0  0.46737104347E+03 -0.34553276254E+03  0.13969306406E+04  0.15207351676E+04  0.15294330000E+03 0.  0.
    8880022    1    1    2    0    0 -0.46737104347E+03  0.34553276254E+03 -0.29823831369E+03  0.67094435465E+03  0.15294330000E+03 0.  0.
<mgrwt>
<rscale>  0 0.60101600E+03</rscale>
<asrwt>0</asrwt>
<pdfrwt beam="1">  1        2 0.84075938E-01 0.60101600E+03</pdfrwt>
<pdfrwt beam="2">  1       -2 0.25310553E+00 0.60101600E+03</pdfrwt>
<totfact> 0.35969153E+00</totfact>
</mgrwt>
</event>
<event>
 4    1  0.5387657E-008  0.3344544E+03  0.7818608E-02  0.1069183E+00
          2   -1    0    0  501    0  0.00000000000E+00  0.00000000000E+00  0.19073059735E+04  0.19073059735E+04  0.25500000000E-02 0. -1.
         -2   -1    0    0    0  501 -0.00000000000E+00 -0.00000000000E+00 -0.72359764862E+02  0.72359764907E+02  0.25500000000E-02 0.  1.
    8880022    1    1    2    0    0 -0.15540077340E+02  0.29702959182E+03  0.13483563480E+04  0.13892172496E+04  0.15294330000E+03 0.  0.
    8880022    1    1    2    0    0  0.15540077340E+02 -0.29702959182E+03  0.48658986059E+03  0.59044848875E+03  0.15294330000E+03 0.  1.
<mgrwt>
<rscale>  0 0.33445437E+03</rscale>
<asrwt>0</asrwt>
<pdfrwt beam="1">  1        2 0.29343170E+00 0.33445437E+03</pdfrwt>
<pdfrwt beam="2">  1       -2 0.11132271E-01 0.33445437E+03</pdfrwt>
<totfact> 0.46064804E+02</totfact>
</mgrwt>
</event>
<event>
 4    1  0.5387657E-008  0.9089688E+03  0.7818608E-02  0.9414439E-01
          2   -1    0    0  501    0  0.00000000000E+00  0.00000000000E+00  0.15066143559E+04  0.15066143559E+04  0.25500000000E-02 0. -1.
         -2   -1    0    0    0  501 -0.00000000000E+00 -0.00000000000E+00 -0.10969311832E+04  0.10969311832E+04  0.25500000000E-02 0.  1.
    8880022    1    1    2    0    0 -0.86694540197E+03 -0.22635890045E+03 -0.71570746486E+03  0.11569189730E+04  0.15294330000E+03 0.  0.
    8880022    1    1    2    0    0  0.86694540197E+03  0.22635890045E+03  0.11253906375E+04  0.14466265661E+04  0.15294330000E+03 0.  0.
<mgrwt>
<rscale>  0 0.90896883E+03</rscale>
<asrwt>0</asrwt>
<pdfrwt beam="1">  1        2 0.23178682E+00 0.90896883E+03</pdfrwt>
<pdfrwt beam="2">  1       -2 0.16875864E+00 0.90896883E+03</pdfrwt>
<totfact> 0.27493361E+00</totfact>
</mgrwt>
</event>
<event>
 4    1  0.5387657E-008  0.9024713E+03  0.7818608E-02  0.9422497E-01
          2   -1    0    0  501    0  0.00000000000E+00  0.00000000000E+00  0.52284733267E+04  0.52284733267E+04  0.25500000000E-02 0. -1.
         -2   -1    0    0    0  501 -0.00000000000E+00 -0.00000000000E+00 -0.23411311977E+03  0.23411311978E+03  0.25500000000E-02 0.  1.
    8880022    1    1    2    0    0  0.44471398687E+03  0.77025465502E+03  0.91721366125E+03  0.12867537904E+04  0.15294330000E+03 0.  0.
    8880022    1    1    2    0    0 -0.44471398687E+03 -0.77025465502E+03  0.40771465456E+04  0.41758326561E+04  0.15294330000E+03 0.  0.
<mgrwt>
<rscale>  0 0.90247128E+03</rscale>
<asrwt>0</asrwt>
<pdfrwt beam="1">  1        2 0.80438044E+00 0.90247128E+03</pdfrwt>
<pdfrwt beam="2">  1       -2 0.36017406E-01 0.90247128E+03</pdfrwt>
<totfact> 0.13964054E-01</totfact>
</mgrwt>
</event>
<event>
 4    1  0.5387657E-008  0.1227428E+04  0.7818608E-02  0.9089182E-01
         -2   -1    0    0    0  501 -0.00000000000E+00  0.00000000000E+00  0.15917528863E+04  0.15917528863E+04  0.25500000000E-02 0.  1.
          2   -1    0    0  501    0  0.00000000000E+00 -0.00000000000E+00 -0.15493127148E+04  0.15493127148E+04  0.25500000000E-02 0. -1.
    8880022    1    1    2    0    0 -0.12176082867E+04 -0.24873004930E+02  0.10008720291E+04  0.15837692629E+04  0.15294330000E+03 0.  0.
    8880022    1    1    2    0    0  0.12176082867E+04  0.24873004930E+02 -0.95843185765E+03  0.15572963382E+04  0.15294330000E+03 0.  0.
<mgrwt>
<rscale>  0 0.12274283E+04</rscale>
<asrwt>0</asrwt>
<pdfrwt beam="1">  1        2 0.23835580E+00 0.12274283E+04</pdfrwt>
<pdfrwt beam="2">  1       -2 0.24488506E+00 0.12274283E+04</pdfrwt>
<totfact> 0.79650880E-01</totfact>
</mgrwt>
</event>
<event>
 4    1  0.5387657E-008  0.4596973E+03  0.7818608E-02  0.1024869E+00
          2   -1    0    0  501    0  0.00000000000E+00  0.00000000000E+00  0.15231402848E+04  0.15231402848E+04  0.25500000000E-02 0. -1.
         -2   -1    0    0    0  501 -0.00000000000E+00 -0.00000000000E+00 -0.27920296014E+03  0.27920296015E+03  0.25500000000E-02 0.  1.
    8880022    1    1    2    0    0 -0.41585269420E+03  0.12246033243E+03 -0.17217291773E+02  0.46001965659E+03  0.15294330000E+03 0.  0.
    8880022    1    1    2    0    0  0.41585269420E+03 -0.12246033243E+03  0.12611546164E+04  0.13423235883E+04  0.15294330000E+03 0.  0.
<mgrwt>
<rscale>  0 0.45969735E+03</rscale>
<asrwt>0</asrwt>
<pdfrwt beam="1">  1        2 0.23432927E+00 0.45969735E+03</pdfrwt>
<pdfrwt beam="2">  1       -2 0.42954302E-01 0.45969735E+03</pdfrwt>
<totfact> 0.67044206E+01</totfact>
</mgrwt>
</event>
<event>
 4    1  0.5387657E-008  0.6410774E+03  0.7818608E-02  0.9823667E-01
         -2   -1    0    0    0  501 -0.00000000000E+00  0.00000000000E+00  0.29351915867E+03  0.29351915868E+03  0.25500000000E-02 0.  1.
          2   -1    0    0  501    0  0.00000000000E+00 -0.00000000000E+00 -0.18713818038E+04  0.18713818038E+04  0.25500000000E-02 0. -1.
    8880022    1    1    2    0    0  0.59339058488E+03  0.18835123512E+03 -0.24576928144E+03  0.68657320565E+03  0.15294330000E+03 0.  0.
    8880022    1    1    2    0    0 -0.59339058488E+03 -0.18835123512E+03 -0.13320933637E+04  0.14783277568E+04  0.15294330000E+03 0.  0.
<mgrwt>
<rscale>  0 0.64107740E+03</rscale>
<asrwt>0</asrwt>
<pdfrwt beam="1">  1        2 0.28790489E+00 0.64107740E+03</pdfrwt>
<pdfrwt beam="2">  1       -2 0.45156795E-01 0.64107740E+03</pdfrwt>
<totfact> 0.38240292E+01</totfact>
</mgrwt>
</event>
<event>
 4    1  0.5387657E-008  0.1005106E+04  0.7818608E-02  0.9302963E-01
         -2   -1    0    0    0  501 -0.00000000000E+00  0.00000000000E+00  0.57904333653E+03  0.57904333654E+03  0.25500000000E-02 0.  1.
          2   -1    0    0  501    0  0.00000000000E+00 -0.00000000000E+00 -0.31326282678E+04  0.31326282678E+04  0.25500000000E-02 0. -1.
    8880022    1    1    2    0    0  0.98538988112E+03  0.12590685425E+03 -0.41488324256E+02  0.10059615737E+04  0.15294330000E+03 0.  0.
    8880022    1    1    2    0    0 -0.98538988112E+03 -0.12590685425E+03 -0.25120966071E+04  0.27057100307E+04  0.15294330000E+03 0.  0.
<mgrwt>
<rscale>  0 0.10051057E+04</rscale>
<asrwt>0</asrwt>
<pdfrwt beam="1">  1        2 0.48194280E+00 0.10051057E+04</pdfrwt>
<pdfrwt beam="2">  1       -2 0.89083592E-01 0.10051057E+04</pdfrwt>
<totfact> 0.15873903E+00</totfact>
</mgrwt>
</event>
<event>
 4    1  0.5387657E-008  0.9241722E+03  0.7818608E-02  0.9395859E-01
          2   -1    0    0  501    0  0.00000000000E+00  0.00000000000E+00  0.24290678113E+04  0.24290678113E+04  0.25500000000E-02 0. -1.
         -2   -1    0    0    0  501 -0.00000000000E+00 -0.00000000000E+00 -0.66163219921E+03  0.66163219922E+03  0.25500000000E-02 0.  1.
    8880022    1    1    2    0    0 -0.60965966882E+03 -0.67750848880E+03  0.19415386412E+04  0.21502712881E+04  0.15294330000E+03 0.  0.
    8880022    1    1    2    0    0  0.60965966882E+03  0.67750848880E+03 -0.17410302910E+03  0.94042872242E+03  0.15294330000E+03 0.  0.
<mgrwt>
<rscale>  0 0.92417223E+03</rscale>
<asrwt>0</asrwt>
<pdfrwt beam="1">  1        2 0.37370274E+00 0.92417223E+03</pdfrwt>
<pdfrwt beam="2">  1       -2 0.10178957E+00 0.92417223E+03</pdfrwt>
<totfact> 0.30842638E+00</totfact>
</mgrwt>
</event>
<event>
 4    1  0.5387657E-008  0.8049201E+03  0.7818608E-02  0.9552923E-01
         -2   -1    0    0    0  501 -0.00000000000E+00  0.00000000000E+00  0.61542837605E+03  0.61542837606E+03  0.25500000000E-02 0.  1.
          2   -1    0    0  501    0  0.00000000000E+00 -0.00000000000E+00 -0.12837152234E+04  0.12837152234E+04  0.25500000000E-02 0. -1.
    8880022    1    1    2    0    0 -0.36934212237E+03 -0.69863514832E+03 -0.73691655325E+03  0.10913030438E+04  0.15294330000E+03 0.  0.
    8880022    1    1    2    0    0  0.36934212237E+03  0.69863514832E+03  0.68629705943E+02  0.80784055567E+03  0.15294330000E+03 0. -1.
<mgrwt>
<rscale>  0 0.80492007E+03</rscale>
<asrwt>0</asrwt>
<pdfrwt beam="1">  1        2 0.19749465E+00 0.80492007E+03</pdfrwt>
<pdfrwt beam="2">  1       -2 0.94681289E-01 0.80492007E+03</pdfrwt>
<totfact> 0.16098048E+01</totfact>
</mgrwt>
</event>
<event>
 4    1  0.5387657E-008  0.8327462E+03  0.7818608E-02  0.9513792E-01
          2   -1    0    0  501    0  0.00000000000E+00  0.00000000000E+00  0.51344784433E+04  0.51344784433E+04  0.25500000000E-02 0. -1.
         -2   -1    0    0    0  501 -0.00000000000E+00 -0.00000000000E+00 -0.54894040077E+03  0.54894040078E+03  0.25500000000E-02 0.  1.
    8880022    1    1    2    0    0 -0.77595861192E+03  0.26069672531E+03  0.47602518438E+04  0.48325421694E+04  0.15294330000E+03 0.  0.
    8880022    1    1    2    0    0  0.77595861192E+03 -0.26069672531E+03 -0.17471380131E+03  0.85087667460E+03  0.15294330000E+03 0.  0.
<mgrwt>
<rscale>  0 0.83274618E+03</rscale>
<asrwt>0</asrwt>
<pdfrwt beam="1">  1        2 0.78991976E+00 0.83274618E+03</pdfrwt>
<pdfrwt beam="2">  1       -2 0.84452370E-01 0.83274618E+03</pdfrwt>
<totfact> 0.32532752E-02</totfact>
</mgrwt>
</event>
<event>
 4    1  0.5387657E-008  0.7383303E+03  0.7818608E-02  0.9653838E-01
         -2   -1    0    0    0  501 -0.00000000000E+00  0.00000000000E+00  0.21563538881E+04  0.21563538881E+04  0.25500000000E-02 0.  1.
          2   -1    0    0  501    0  0.00000000000E+00 -0.00000000000E+00 -0.39200678374E+03  0.39200678375E+03  0.25500000000E-02 0. -1.
    8880022    1    1    2    0    0 -0.59074509450E+03  0.41564441337E+03  0.16414682639E+04  0.17998749288E+04  0.15294330000E+03 0.  0.
    8880022    1    1    2    0    0  0.59074509450E+03 -0.41564441337E+03  0.12287884044E+03  0.74848574300E+03  0.15294330000E+03 0.  0.
<mgrwt>
<rscale>  0 0.73833034E+03</rscale>
<asrwt>0</asrwt>
<pdfrwt beam="1">  1        2 0.60308736E-01 0.73833034E+03</pdfrwt>
<pdfrwt beam="2">  1       -2 0.33174675E+00 0.73833034E+03</pdfrwt>
<totfact> 0.17304994E+00</totfact>
</mgrwt>
</event>
<event>
 4    1  0.5387657E-008  0.6858699E+03  0.7818608E-02  0.9741706E-01
         -2   -1    0    0    0  501 -0.00000000000E+00  0.00000000000E+00  0.11091031894E+04  0.11091031894E+04  0.25500000000E-02 0.  1.
          2   -1    0    0  501    0  0.00000000000E+00 -0.00000000000E+00 -0.80825125646E+03  0.80825125647E+03  0.25500000000E-02 0. -1.
    8880022    1    1    2    0    0  0.32801850133E+03  0.58260595274E+03  0.81131185458E+03  0.10623767749E+04  0.15294330000E+03 0.  0.
    8880022    1    1    2    0    0 -0.32801850133E+03 -0.58260595274E+03 -0.51045992161E+03  0.85497767103E+03  0.15294330000E+03 0.  0.
<mgrwt>
<rscale>  0 0.68586988E+03</rscale>
<asrwt>0</asrwt>
<pdfrwt beam="1">  1        2 0.12434635E+00 0.68586988E+03</pdfrwt>
<pdfrwt beam="2">  1       -2 0.17063126E+00 0.68586988E+03</pdfrwt>
<totfact> 0.73567720E+00</totfact>
</mgrwt>
</event>
<event>
 4    1  0.1090342E-007  0.7805942E+03  0.7818608E-02  0.9588539E-01
         -2   -1    0    0    0  501 -0.00000000000E+00  0.00000000000E+00  0.25496401722E+04  0.25496401722E+04  0.25500000000E-02 0.  1.
          2   -1    0    0  501    0  0.00000000000E+00 -0.00000000000E+00 -0.22897164835E+04  0.22897164835E+04  0.25500000000E-02 0. -1.
    8880022    1    1    2    0    0 -0.50047381091E+03 -0.57919046658E+03  0.24198860897E+04  0.25426710310E+04  0.15294330000E+03 0.  0.
    8880022    1    1    2    0    0  0.50047381091E+03  0.57919046658E+03 -0.21599624009E+04  0.22966856246E+04  0.15294330000E+03 0.  0.
<mgrwt>
<rscale>  0 0.78059419E+03</rscale>
<asrwt>0</asrwt>
<pdfrwt beam="1">  1        2 0.35226408E+00 0.78059419E+03</pdfrwt>
<pdfrwt beam="2">  1       -2 0.39225233E+00 0.78059419E+03</pdfrwt>
<totfact> 0.41632857E-02</totfact>
</mgrwt>
</event>
<event>
 4    1  0.5387657E-008  0.1371926E+04  0.7818608E-02  0.8974394E-01
         -2   -1    0    0    0  501 -0.00000000000E+00  0.00000000000E+00  0.14705387090E+04  0.14705387090E+04  0.25500000000E-02 0.  1.
          2   -1    0    0  501    0  0.00000000000E+00 -0.00000000000E+00 -0.23762488458E+04  0.23762488458E+04  0.25500000000E-02 0. -1.
    8880022    1    1    2    0    0 -0.89083767310E+03  0.10320841856E+04 -0.17593009331E+04  0.22309910247E+04  0.15294330000E+03 0.  0.
    8880022    1    1    2    0    0  0.89083767310E+03 -0.10320841856E+04  0.85359079636E+03  0.16157965301E+04  0.15294330000E+03 0.  0.
<mgrwt>
<rscale>  0 0.13719261E+04</rscale>
<asrwt>0</asrwt>
<pdfrwt beam="1">  1        2 0.36557675E+00 0.13719261E+04</pdfrwt>
<pdfrwt beam="2">  1       -2 0.22623672E+00 0.13719261E+04</pdfrwt>
<totfact> 0.35273654E-01</totfact>
</mgrwt>
</event>
<event>
 4    1  0.5387657E-008  0.4024008E+03  0.7818608E-02  0.1042952E+00
          2   -1    0    0  501    0  0.00000000000E+00  0.00000000000E+00  0.42773520087E+03  0.42773520088E+03  0.25500000000E-02 0. -1.
         -2   -1    0    0    0  501 -0.00000000000E+00 -0.00000000000E+00 -0.70435825912E+03  0.70435825912E+03  0.25500000000E-02 0.  1.
    8880022    1    1    2    0    0  0.18373450593E+03 -0.32369180579E+03  0.24665700481E+03  0.47198102170E+03  0.15294330000E+03 0.  0.
    8880022    1    1    2    0    0 -0.18373450593E+03  0.32369180579E+03 -0.52328006305E+03  0.66011243831E+03  0.15294330000E+03 0. -1.
<mgrwt>
<rscale>  0 0.40240080E+03</rscale>
<asrwt>0</asrwt>
<pdfrwt beam="1">  1        2 0.65805415E-01 0.40240080E+03</pdfrwt>
<pdfrwt beam="2">  1       -2 0.10836281E+00 0.40240080E+03</pdfrwt>
<totfact> 0.52279729E+01</totfact>
</mgrwt>
</event>
<event>
 4    1  0.5544257E-008  0.1013304E+04  0.7818608E-02  0.9294072E-01
          2   -1    0    0  501    0  0.00000000000E+00  0.00000000000E+00  0.12998909473E+04  0.12998909473E+04  0.25500000000E-02 0. -1.
         -2   -1    0    0    0  501 -0.00000000000E+00 -0.00000000000E+00 -0.22866711943E+04  0.22866711943E+04  0.25500000000E-02 0.  1.
    8880022    1    1    2    0    0 -0.95867533791E+02 -0.99709734037E+03 -0.19442452427E+04  0.21924586443E+04  0.15294330000E+03 0.  0.
    8880022    1    1    2    0    0  0.95867533791E+02  0.99709734037E+03  0.95746499568E+03  0.13941034973E+04  0.15294330000E+03 0.  0.
<mgrwt>
<rscale>  0 0.10133042E+04</rscale>
<asrwt>0</asrwt>
<pdfrwt beam="1">  1        2 0.19998322E+00 0.10133042E+04</pdfrwt>
<pdfrwt beam="2">  1       -2 0.35179557E+00 0.10133042E+04</pdfrwt>
<totfact> 0.25303917E-01</totfact>
</mgrwt>
</event>
<event>
 4    1  0.5387657E-008  0.6102964E+03  0.7818608E-02  0.9884272E-01
         -2   -1    0    0    0  501 -0.00000000000E+00  0.00000000000E+00  0.52123825061E+03  0.52123825062E+03  0.25500000000E-02 0.  1.
          2   -1    0    0  501    0  0.00000000000E+00 -0.00000000000E+00 -0.30731746405E+04  0.30731746405E+04  0.25500000000E-02 0. -1.
    8880022    1    1    2    0    0 -0.57815622294E+03 -0.12167751710E+03 -0.28504289430E+04  0.29150311917E+04  0.15294330000E+03 0.  0.
    8880022    1    1    2    0    0  0.57815622294E+03  0.12167751710E+03  0.29849255310E+03  0.67938169946E+03  0.15294330000E+03 0.  0.
<mgrwt>
<rscale>  0 0.61029639E+03</rscale>
<asrwt>0</asrwt>
<pdfrwt beam="1">  1        2 0.47279609E+00 0.61029639E+03</pdfrwt>
<pdfrwt beam="2">  1       -2 0.80190502E-01 0.61029639E+03</pdfrwt>
<totfact> 0.23796657E+00</totfact>
</mgrwt>
</event>
<event>
 4    1  0.5387657E-008  0.5782917E+03  0.7818608E-02  0.9951496E-01
         -2   -1    0    0    0  501 -0.00000000000E+00  0.00000000000E+00  0.25270951000E+04  0.25270951000E+04  0.25500000000E-02 0.  1.
          2   -1    0    0  501    0  0.00000000000E+00 -0.00000000000E+00 -0.42696316463E+03  0.42696316463E+03  0.25500000000E-02 0. -1.
    8880022    1    1    2    0    0  0.17291686379E+03  0.53021631840E+03  0.22770291713E+04  0.23493154505E+04  0.15294330000E+03 0.  0.
    8880022    1    1    2    0    0 -0.17291686379E+03 -0.53021631840E+03 -0.17689723596E+03  0.60474281408E+03  0.15294330000E+03 0. -1.
<mgrwt>
<rscale>  0 0.57829166E+03</rscale>
<asrwt>0</asrwt>
<pdfrwt beam="1">  1        2 0.65686639E-01 0.57829166E+03</pdfrwt>
<pdfrwt beam="2">  1       -2 0.38878387E+00 0.57829166E+03</pdfrwt>
<totfact> 0.71409037E-01</totfact>
</mgrwt>
</event>
<event>
 4    1  0.5387657E-008  0.1925492E+03  0.7818608E-02  0.1156182E+00
          2   -1    0    0  501    0  0.00000000000E+00  0.00000000000E+00  0.33703869074E+03  0.33703869075E+03  0.25500000000E-02 0. -1.
         -2   -1    0    0    0  501 -0.00000000000E+00 -0.00000000000E+00 -0.69036630424E+03  0.69036630425E+03  0.25500000000E-02 0.  1.
    8880022    1    1    2    0    0  0.62174623212E+02 -0.99085149359E+02 -0.64766491282E+03  0.67568116957E+03  0.15294330000E+03 0.  0.
    8880022    1    1    2    0    0 -0.62174623212E+02  0.99085149359E+02  0.29433729931E+03  0.35172382543E+03  0.15294330000E+03 0. -1.
<mgrwt>
<rscale>  0 0.19254922E+03</rscale>
<asrwt>0</asrwt>
<pdfrwt beam="1">  1        2 0.51852107E-01 0.19254922E+03</pdfrwt>
<pdfrwt beam="2">  1       -2 0.10621020E+00 0.19254922E+03</pdfrwt>
<totfact> 0.73229696E+01</totfact>
</mgrwt>
</event>
<event>
 4    1  0.5387657E-008  0.4095636E+03  0.7818608E-02  0.1040518E+00
         -2   -1    0    0    0  501 -0.00000000000E+00  0.00000000000E+00  0.16510741323E+03  0.16510741325E+03  0.25500000000E-02 0.  1.
          2   -1    0    0  501    0  0.00000000000E+00 -0.00000000000E+00 -0.36762326873E+04  0.36762326873E+04  0.25500000000E-02 0. -1.
    8880022    1    1    2    0    0 -0.37838212633E+03 -0.34316679313E+02 -0.33894211606E+04  0.34140764673E+04  0.15294330000E+03 0.  0.
    8880022    1    1    2    0    0  0.37838212633E+03  0.34316679313E+02 -0.12170411348E+03  0.42726363320E+03  0.15294330000E+03 0.  0.
<mgrwt>
<rscale>  0 0.40956357E+03</rscale>
<asrwt>0</asrwt>
<pdfrwt beam="1">  1        2 0.56557420E+00 0.40956357E+03</pdfrwt>
<pdfrwt beam="2">  1       -2 0.25401143E-01 0.40956357E+03</pdfrwt>
<totfact> 0.10078006E+01</totfact>
</mgrwt>
</event>
<event>
 4    1  0.5387657E-008  0.1710105E+03  0.7818608E-02  0.1176798E+00
          2   -1    0    0  501    0  0.00000000000E+00  0.00000000000E+00  0.14214116124E+04  0.14214116124E+04  0.25500000000E-02 0. -1.
         -2   -1    0    0    0  501 -0.00000000000E+00 -0.00000000000E+00 -0.23218480785E+03  0.23218480786E+03  0.25500000000E-02 0.  1.
    8880022    1    1    2    0    0 -0.27160242113E+02 -0.71521109068E+02  0.13839299453E+04  0.13944556982E+04  0.15294330000E+03 0. -1.
    8880022    1    1    2    0    0  0.27160242113E+02  0.71521109068E+02 -0.19470314074E+03  0.25914072205E+03  0.15294330000E+03 0.  0.
<mgrwt>
<rscale>  0 0.17101053E+03</rscale>
<asrwt>0</asrwt>
<pdfrwt beam="1">  1        2 0.21867871E+00 0.17101053E+03</pdfrwt>
<pdfrwt beam="2">  1       -2 0.35720740E-01 0.17101053E+03</pdfrwt>
<totfact> 0.11592048E+02</totfact>
</mgrwt>
</event>
<event>
 4    1  0.5387657E-008  0.5095814E+03  0.7818608E-02  0.1011308E+00
         -2   -1    0    0    0  501 -0.00000000000E+00  0.00000000000E+00  0.30643809480E+03  0.30643809481E+03  0.25500000000E-02 0.  1.
          2   -1    0    0  501    0  0.00000000000E+00 -0.00000000000E+00 -0.21207446620E+04  0.21207446620E+04  0.25500000000E-02 0. -1.
    8880022    1    1    2    0    0  0.19358422237E+03 -0.44587750228E+03  0.33225034972E+02  0.51066344509E+03  0.15294330000E+03 0.  0.
    8880022    1    1    2    0    0 -0.19358422237E+03  0.44587750228E+03 -0.18475316022E+04  0.19165193117E+04  0.15294330000E+03 0.  0.
<mgrwt>
<rscale>  0 0.50958145E+03</rscale>
<asrwt>0</asrwt>
<pdfrwt beam="1">  1        2 0.32626840E+00 0.50958145E+03</pdfrwt>
<pdfrwt beam="2">  1       -2 0.47144324E-01 0.50958145E+03</pdfrwt>
<totfact> 0.26304481E+01</totfact>
</mgrwt>
</event>
<event>
 4    1  0.5387657E-008  0.3778976E+03  0.7818608E-02  0.1051714E+00
          2   -1    0    0  501    0  0.00000000000E+00  0.00000000000E+00  0.33230955357E+04  0.33230955357E+04  0.25500000000E-02 0. -1.
         -2   -1    0    0    0  501 -0.00000000000E+00 -0.00000000000E+00 -0.23605357368E+03  0.23605357369E+03  0.25500000000E-02 0.  1.
    8880022    1    1    2    0    0 -0.34289343841E+03  0.42884040122E+02  0.31529769435E+04  0.31755425064E+04  0.15294330000E+03 0.  0.
    8880022    1    1    2    0    0  0.34289343841E+03 -0.42884040122E+02 -0.65934981509E+02  0.38360660292E+03  0.15294330000E+03 0.  0.
<mgrwt>
<rscale>  0 0.37789761E+03</rscale>
<asrwt>0</asrwt>
<pdfrwt beam="1">  1        2 0.51124549E+00 0.37789761E+03</pdfrwt>
<pdfrwt beam="2">  1       -2 0.36315933E-01 0.37789761E+03</pdfrwt>
<totfact> 0.91162088E+00</totfact>
</mgrwt>
</event>
<event>
 4    1  0.5387657E-008  0.3776048E+03  0.7818608E-02  0.1051823E+00
         -2   -1    0    0    0  501 -0.00000000000E+00  0.00000000000E+00  0.41069940061E+03  0.41069940062E+03  0.25500000000E-02 0.  1.
          2   -1    0    0  501    0  0.00000000000E+00 -0.00000000000E+00 -0.39863470600E+03  0.39863470601E+03  0.25500000000E-02 0. -1.
    8880022    1    1    2    0    0 -0.30223071618E+03 -0.16688426064E+03  0.15142256997E+03  0.40683437658E+03  0.15294330000E+03 0.  0.
    8880022    1    1    2    0    0  0.30223071618E+03  0.16688426064E+03 -0.13935787535E+03  0.40249973005E+03  0.15294330000E+03 0.  0.
<mgrwt>
<rscale>  0 0.37760484E+03</rscale>
<asrwt>0</asrwt>
<pdfrwt beam="1">  1        2 0.61328416E-01 0.37760484E+03</pdfrwt>
<pdfrwt beam="2">  1       -2 0.63184523E-01 0.37760484E+03</pdfrwt>
<totfact> 0.19031326E+02</totfact>
</mgrwt>
</event>
<event>
 4    1  0.5387657E-008  0.7528455E+03  0.7818608E-02  0.9630897E-01
         -2   -1    0    0    0  501 -0.00000000000E+00  0.00000000000E+00  0.28007333699E+03  0.28007333700E+03  0.25500000000E-02 0.  1.
          2   -1    0    0  501    0  0.00000000000E+00 -0.00000000000E+00 -0.25761284516E+04  0.25761284516E+04  0.25500000000E-02 0. -1.
    8880022    1    1    2    0    0 -0.49033384989E+03  0.55041564050E+03 -0.18093671404E+04  0.19597412491E+04  0.15294330000E+03 0.  0.
    8880022    1    1    2    0    0  0.49033384989E+03 -0.55041564050E+03 -0.48668797427E+03  0.89646053955E+03  0.15294330000E+03 0.  0.
<mgrwt>
<rscale>  0 0.75284548E+03</rscale>
<asrwt>0</asrwt>
<pdfrwt beam="1">  1        2 0.39632744E+00 0.75284548E+03</pdfrwt>
<pdfrwt beam="2">  1       -2 0.43088207E-01 0.75284548E+03</pdfrwt>
<totfact> 0.16822750E+01</totfact>
</mgrwt>
</event>
<event>
 4    1  0.5387657E-008  0.4578587E+03  0.7818608E-02  0.1025404E+00
         -2   -1    0    0    0  501 -0.00000000000E+00  0.00000000000E+00  0.45514938018E+03  0.45514938018E+03  0.25500000000E-02 0.  1.
          2   -1    0    0  501    0  0.00000000000E+00 -0.00000000000E+00 -0.61217419839E+03  0.61217419840E+03  0.25500000000E-02 0. -1.
    8880022    1    1    2    0    0  0.43014127239E+03  0.34948269086E+02 -0.34407327393E+03  0.57273114685E+03  0.15294330000E+03 0.  0.
    8880022    1    1    2    0    0 -0.43014127239E+03 -0.34948269086E+02  0.18704845571E+03  0.49459243173E+03  0.15294330000E+03 0.  0.
<mgrwt>
<rscale>  0 0.45785866E+03</rscale>
<asrwt>0</asrwt>
<pdfrwt beam="1">  1        2 0.94180646E-01 0.45785866E+03</pdfrwt>
<pdfrwt beam="2">  1       -2 0.70022981E-01 0.45785866E+03</pdfrwt>
<totfact> 0.92965726E+01</totfact>
</mgrwt>
</event>
<event>
 4    1  0.5387657E-008  0.6321626E+03  0.7818608E-02  0.9840838E-01
         -2   -1    0    0    0  501 -0.00000000000E+00  0.00000000000E+00  0.28557342594E+03  0.28557342596E+03  0.25500000000E-02 0.  1.
          2   -1    0    0  501    0  0.00000000000E+00 -0.00000000000E+00 -0.19272535240E+04  0.19272535240E+04  0.25500000000E-02 0. -1.
    8880022    1    1    2    0    0 -0.32481684169E+03  0.52031902774E+03 -0.13998786575E+04  0.15359979753E+04  0.15294330000E+03 0.  0.
    8880022    1    1    2    0    0  0.32481684169E+03 -0.52031902774E+03 -0.24180144050E+03  0.67682897464E+03  0.15294330000E+03 0.  0.
<mgrwt>
<rscale>  0 0.63216258E+03</rscale>
<asrwt>0</asrwt>
<pdfrwt beam="1">  1        2 0.29650053E+00 0.63216258E+03</pdfrwt>
<pdfrwt beam="2">  1       -2 0.43934374E-01 0.63216258E+03</pdfrwt>
<totfact> 0.37710450E+01</totfact>
</mgrwt>
</event>
<event>
 4    1  0.5387657E-008  0.9022817E+03  0.7818608E-02  0.9422734E-01
         -2   -1    0    0    0  501 -0.00000000000E+00  0.00000000000E+00  0.10483785722E+04  0.10483785722E+04  0.25500000000E-02 0.  1.
          2   -1    0    0  501    0  0.00000000000E+00 -0.00000000000E+00 -0.10313199900E+04  0.10313199900E+04  0.25500000000E-02 0. -1.
    8880022    1    1    2    0    0 -0.44429657720E+03  0.77027337667E+03 -0.50830682805E+03  0.10356099689E+04  0.15294330000E+03 0.  0.
    8880022    1    1    2    0    0  0.44429657720E+03 -0.77027337667E+03  0.52536541019E+03  0.10440885933E+04  0.15294330000E+03 0.  0.
<mgrwt>
<rscale>  0 0.90228165E+03</rscale>
<asrwt>0</asrwt>
<pdfrwt beam="1">  1        2 0.15866461E+00 0.90228165E+03</pdfrwt>
<pdfrwt beam="2">  1       -2 0.16128901E+00 0.90228165E+03</pdfrwt>
<totfact> 0.59349965E+00</totfact>
</mgrwt>
</event>
<event>
 4    1  0.5387657E-008  0.4392735E+03  0.7818608E-02  0.1030970E+00
         -2   -1    0    0    0  501 -0.00000000000E+00  0.00000000000E+00  0.61975405224E+03  0.61975405225E+03  0.25500000000E-02 0.  1.
          2   -1    0    0  501    0  0.00000000000E+00 -0.00000000000E+00 -0.41368998222E+03  0.41368998223E+03  0.25500000000E-02 0. -1.
    8880022    1    1    2    0    0  0.15371728673E+03  0.38202164039E+03  0.36003581333E+03  0.56796740916E+03  0.15294330000E+03 0.  0.
    8880022    1    1    2    0    0 -0.15371728673E+03 -0.38202164039E+03 -0.15397174331E+03  0.46547662532E+03  0.15294330000E+03 0.  0.
<mgrwt>
<rscale>  0 0.43927348E+03</rscale>
<asrwt>0</asrwt>
<pdfrwt beam="1">  1        2 0.63644613E-01 0.43927348E+03</pdfrwt>
<pdfrwt beam="2">  1       -2 0.95346777E-01 0.43927348E+03</pdfrwt>
<totfact> 0.73097838E+01</totfact>
</mgrwt>
</event>
<event>
 4    1  0.5387657E-008  0.5087973E+03  0.7818608E-02  0.1011508E+00
          2   -1    0    0  501    0  0.00000000000E+00  0.00000000000E+00  0.20254770594E+04  0.20254770594E+04  0.25500000000E-02 0. -1.
         -2   -1    0    0    0  501 -0.00000000000E+00 -0.00000000000E+00 -0.32172265209E+03  0.32172265210E+03  0.25500000000E-02 0.  1.
    8880022    1    1    2    0    0 -0.35809335335E+01  0.48525269706E+03  0.17630131204E+04  0.18349631928E+04  0.15294330000E+03 0.  0.
    8880022    1    1    2    0    0  0.35809335335E+01 -0.48525269706E+03 -0.59258713037E+02  0.51223651878E+03  0.15294330000E+03 0.  0.
<mgrwt>
<rscale>  0 0.50879726E+03</rscale>
<asrwt>0</asrwt>
<pdfrwt beam="1">  1        2 0.31161185E+00 0.50879726E+03</pdfrwt>
<pdfrwt beam="2">  1       -2 0.49495794E-01 0.50879726E+03</pdfrwt>
<totfact> 0.26859020E+01</totfact>
</mgrwt>
</event>
<event>
 4    1  0.5387657E-008  0.4969725E+03  0.7818608E-02  0.1014572E+00
          2   -1    0    0  501    0  0.00000000000E+00  0.00000000000E+00  0.30367779859E+04  0.30367779859E+04  0.25500000000E-02 0. -1.
         -2   -1    0    0    0  501 -0.00000000000E+00 -0.00000000000E+00 -0.15388640878E+03  0.15388640880E+03  0.25500000000E-02 0.  1.
    8880022    1    1    2    0    0 -0.13631926117E+03 -0.45277705876E+03  0.25368852697E+04  0.25851051295E+04  0.15294330000E+03 0.  0.
    8880022    1    1    2    0    0  0.13631926117E+03  0.45277705876E+03  0.34600630744E+03  0.60555926524E+03  0.15294330000E+03 0.  0.
<mgrwt>
<rscale>  0 0.49697249E+03</rscale>
<asrwt>0</asrwt>
<pdfrwt beam="1">  1        2 0.46719659E+00 0.49697249E+03</pdfrwt>
<pdfrwt beam="2">  1       -2 0.23674833E-01 0.49697249E+03</pdfrwt>
<totfact> 0.29043023E+01</totfact>
</mgrwt>
</event>
<event>
 4    1  0.5387657E-008  0.7104945E+03  0.7818608E-02  0.9699452E-01
         -2   -1    0    0    0  501 -0.00000000000E+00  0.00000000000E+00  0.10072211205E+04  0.10072211205E+04  0.25500000000E-02 0.  1.
          2   -1    0    0  501    0  0.00000000000E+00 -0.00000000000E+00 -0.78214662870E+03  0.78214662871E+03  0.25500000000E-02 0. -1.
    8880022    1    1    2    0    0  0.46854239444E+03 -0.51174096794E+03 -0.42369176805E+03  0.82723464688E+03  0.15294330000E+03 0.  0.
    8880022    1    1    2    0    0 -0.46854239444E+03  0.51174096794E+03  0.64876625982E+03  0.96213310231E+03  0.15294330000E+03 0.  0.
<mgrwt>
<rscale>  0 0.71049451E+03</rscale>
<asrwt>0</asrwt>
<pdfrwt beam="1">  1        2 0.12033025E+00 0.71049451E+03</pdfrwt>
<pdfrwt beam="2">  1       -2 0.15495709E+00 0.71049451E+03</pdfrwt>
<totfact> 0.99561612E+00</totfact>
</mgrwt>
</event>
<event>
 4    1  0.5387657E-008  0.4643562E+03  0.7818608E-02  0.1023525E+00
         -2   -1    0    0    0  501 -0.00000000000E+00  0.00000000000E+00  0.17311450451E+04  0.17311450451E+04  0.25500000000E-02 0.  1.
          2   -1    0    0  501    0  0.00000000000E+00 -0.00000000000E+00 -0.92282717029E+03  0.92282717030E+03  0.25500000000E-02 0. -1.
    8880022    1    1    2    0    0 -0.23342493611E+03 -0.37114390017E+03  0.16383462429E+04  0.17028813993E+04  0.15294330000E+03 0.  0.
    8880022    1    1    2    0    0  0.23342493611E+03  0.37114390017E+03 -0.83002836815E+03  0.95109081605E+03  0.15294330000E+03 0.  0.
<mgrwt>
<rscale>  0 0.46435617E+03</rscale>
<asrwt>0</asrwt>
<pdfrwt beam="1">  1        2 0.14197341E+00 0.46435617E+03</pdfrwt>
<pdfrwt beam="2">  1       -2 0.26633000E+00 0.46435617E+03</pdfrwt>
<totfact> 0.15954566E+00</totfact>
</mgrwt>
</event>
<event>
 4    1  0.5387657E-008  0.3045321E+03  0.7818608E-02  0.1082997E+00
         -2   -1    0    0    0  501 -0.00000000000E+00  0.00000000000E+00  0.37339261059E+02  0.37339261146E+02  0.25500000000E-02 0.  1.
          2   -1    0    0  501    0  0.00000000000E+00 -0.00000000000E+00 -0.33808477002E+04  0.33808477002E+04  0.25500000000E-02 0. -1.
    8880022    1    1    2    0    0 -0.26334032523E+03 -0.27184678082E-01 -0.25521608744E+04  0.25702655329E+04  0.15294330000E+03 0.  0.
    8880022    1    1    2    0    0  0.26334032523E+03  0.27184678082E-01 -0.79134756472E+03  0.84792142846E+03  0.15294330000E+03 0.  0.
<mgrwt>
<rscale>  0 0.30453207E+03</rscale>
<asrwt>0</asrwt>
<pdfrwt beam="1">  1        2 0.52013018E+00 0.30453207E+03</pdfrwt>
<pdfrwt beam="2">  1       -2 0.57445044E-02 0.30453207E+03</pdfrwt>
<totfact> 0.19007661E+02</totfact>
</mgrwt>
</event>
<event>
 4    1  0.5387657E-008  0.6295855E+03  0.7818608E-02  0.9845858E-01
         -2   -1    0    0    0  501 -0.00000000000E+00  0.00000000000E+00  0.63434765451E+03  0.63434765452E+03  0.25500000000E-02 0.  1.
          2   -1    0    0  501    0  0.00000000000E+00 -0.00000000000E+00 -0.11601419074E+04  0.11601419074E+04  0.25500000000E-02 0. -1.
    8880022    1    1    2    0    0 -0.33832138683E+03 -0.50845340897E+03  0.34656545170E+03  0.71866925300E+03  0.15294330000E+03 0.  0.
    8880022    1    1    2    0    0  0.33832138683E+03  0.50845340897E+03 -0.87235970459E+03  0.10758203089E+04  0.15294330000E+03 0.  0.
<mgrwt>
<rscale>  0 0.62958548E+03</rscale>
<asrwt>0</asrwt>
<pdfrwt beam="1">  1        2 0.17848337E+00 0.62958548E+03</pdfrwt>
<pdfrwt beam="2">  1       -2 0.97591947E-01 0.62958548E+03</pdfrwt>
<totfact> 0.18106937E+01</totfact>
</mgrwt>
</event>
<event>
 4    1  0.5387657E-008  0.6145749E+03  0.7818608E-02  0.9875621E-01
          2   -1    0    0  501    0  0.00000000000E+00  0.00000000000E+00  0.26445363089E+04  0.26445363089E+04  0.25500000000E-02 0. -1.
         -2   -1    0    0    0  501 -0.00000000000E+00 -0.00000000000E+00 -0.65783530321E+03  0.65783530322E+03  0.25500000000E-02 0.  1.
    8880022    1    1    2    0    0  0.56732107417E+03 -0.18015938966E+03 -0.46763496901E+03  0.77225949275E+03  0.15294330000E+03 0.  0.
    8880022    1    1    2    0    0 -0.56732107417E+03  0.18015938966E+03  0.24543359747E+04  0.25301121194E+04  0.15294330000E+03 0.  0.
<mgrwt>
<rscale>  0 0.61457486E+03</rscale>
<asrwt>0</asrwt>
<pdfrwt beam="1">  1        2 0.40685174E+00 0.61457486E+03</pdfrwt>
<pdfrwt beam="2">  1       -2 0.10120543E+00 0.61457486E+03</pdfrwt>
<totfact> 0.24996491E+00</totfact>
</mgrwt>
</event>
<event>
 4    1  0.5387657E-008  0.7242175E+03  0.7818608E-02  0.9676690E-01
          2   -1    0    0  501    0  0.00000000000E+00  0.00000000000E+00  0.24861687360E+04  0.24861687360E+04  0.25500000000E-02 0. -1.
         -2   -1    0    0    0  501 -0.00000000000E+00 -0.00000000000E+00 -0.25936451686E+03  0.25936451687E+03  0.25500000000E-02 0.  1.
    8880022    1    1    2    0    0  0.50615512670E+03  0.49488013592E+03  0.52038340296E+03  0.89179027821E+03  0.15294330000E+03 0.  0.
    8880022    1    1    2    0    0 -0.50615512670E+03 -0.49488013592E+03  0.17064208161E+04  0.18537429746E+04  0.15294330000E+03 0. -1.
<mgrwt>
<rscale>  0 0.72421752E+03</rscale>
<asrwt>0</asrwt>
<pdfrwt beam="1">  1        2 0.38248751E+00 0.72421752E+03</pdfrwt>
<pdfrwt beam="2">  1       -2 0.39902232E-01 0.72421752E+03</pdfrwt>
<totfact> 0.22104772E+01</totfact>
</mgrwt>
</event>
<event>
 4    1  0.5387657E-008  0.2059556E+03  0.7818608E-02  0.1144809E+00
         -2   -1    0    0    0  501 -0.00000000000E+00  0.00000000000E+00  0.35356390267E+02  0.35356390359E+02  0.25500000000E-02 0.  1.
          2   -1    0    0  501    0  0.00000000000E+00 -0.00000000000E+00 -0.22991344013E+04  0.22991344013E+04  0.25500000000E-02 0. -1.
    8880022    1    1    2    0    0  0.84697460951E+02  0.10886874062E+03 -0.32472646889E+03  0.38453217705E+03  0.15294330000E+03 0.  0.
    8880022    1    1    2    0    0 -0.84697460951E+02 -0.10886874062E+03 -0.19390515421E+04  0.19499586146E+04  0.15294330000E+03 0.  0.
<mgrwt>
<rscale>  0 0.20595562E+03</rscale>
<asrwt>0</asrwt>
<pdfrwt beam="1">  1        2 0.35371287E+00 0.20595562E+03</pdfrwt>
<pdfrwt beam="2">  1       -2 0.54394464E-02 0.20595562E+03</pdfrwt>
<totfact> 0.89691976E+02</totfact>
</mgrwt>
</event>
<event>
 4    1  0.5387657E-008  0.4200559E+03  0.7818608E-02  0.1037048E+00
         -2   -1    0    0    0  501 -0.00000000000E+00  0.00000000000E+00  0.11445284433E+03  0.11445284436E+03  0.25500000000E-02 0.  1.
          2   -1    0    0  501    0  0.00000000000E+00 -0.00000000000E+00 -0.20723080090E+04  0.20723080090E+04  0.25500000000E-02 0. -1.
    8880022    1    1    2    0    0  0.62325118049E+02  0.38622642363E+03 -0.15322127333E+04  0.15887488108E+04  0.15294330000E+03 0.  1.
    8880022    1    1    2    0    0 -0.62325118049E+02 -0.38622642363E+03 -0.42564243132E+03  0.59801204252E+03  0.15294330000E+03 0.  0.
<mgrwt>
<rscale>  0 0.42005586E+03</rscale>
<asrwt>0</asrwt>
<pdfrwt beam="1">  1        2 0.31881659E+00 0.42005586E+03</pdfrwt>
<pdfrwt beam="2">  1       -2 0.17608131E-01 0.42005586E+03</pdfrwt>
<totfact> 0.17344593E+02</totfact>
</mgrwt>
</event>
<event>
 4    1  0.5387657E-008  0.6035280E+03  0.7818608E-02  0.9898114E-01
          2   -1    0    0  501    0  0.00000000000E+00  0.00000000000E+00  0.60030269056E+03  0.60030269057E+03  0.25500000000E-02 0. -1.
         -2   -1    0    0    0  501 -0.00000000000E+00 -0.00000000000E+00 -0.10610294200E+04  0.10610294200E+04  0.25500000000E-02 0.  1.
    8880022    1    1    2    0    0  0.51368434489E+03 -0.27745771265E+03 -0.77388197692E+03  0.98139663527E+03  0.15294330000E+03 0.  1.
    8880022    1    1    2    0    0 -0.51368434489E+03  0.27745771265E+03  0.31315524750E+03  0.67993547528E+03  0.15294330000E+03 0.  0.
<mgrwt>
<rscale>  0 0.60352800E+03</rscale>
<asrwt>0</asrwt>
<pdfrwt beam="1">  1        2 0.92354260E-01 0.60352800E+03</pdfrwt>
<pdfrwt beam="2">  1       -2 0.16323529E+00 0.60352800E+03</pdfrwt>
<totfact> 0.12206251E+01</totfact>
</mgrwt>
</event>
<event>
 4    1  0.5387657E-008  0.2492734E+03  0.7818608E-02  0.1113765E+00
         -2   -1    0    0    0  501 -0.00000000000E+00  0.00000000000E+00  0.25322021846E+03  0.25322021847E+03  0.25500000000E-02 0.  1.
          2   -1    0    0  501    0  0.00000000000E+00 -0.00000000000E+00 -0.36338129995E+03  0.36338129996E+03  0.25500000000E-02 0. -1.
    8880022    1    1    2    0    0 -0.19376130278E+03 -0.34672004686E+02  0.12059920211E+03  0.27691408583E+03  0.15294330000E+03 0.  0.
    8880022    1    1    2    0    0  0.19376130278E+03  0.34672004686E+02 -0.23076028361E+03  0.33968743260E+03  0.15294330000E+03 0.  0.
<mgrwt>
<rscale>  0 0.24927343E+03</rscale>
<asrwt>0</asrwt>
<pdfrwt beam="1">  1        2 0.55904815E-01 0.24927343E+03</pdfrwt>
<pdfrwt beam="2">  1       -2 0.38956957E-01 0.24927343E+03</pdfrwt>
<totfact> 0.55842550E+02</totfact>
</mgrwt>
</event>
<event>
 4    1  0.5387657E-008  0.4010369E+03  0.7818608E-02  0.1043421E+00
          2   -1    0    0  501    0  0.00000000000E+00  0.00000000000E+00  0.86245358179E+03  0.86245358180E+03  0.25500000000E-02 0. -1.
         -2   -1    0    0    0  501 -0.00000000000E+00 -0.00000000000E+00 -0.34173245683E+03  0.34173245684E+03  0.25500000000E-02 0.  1.
    8880022    1    1    2    0    0  0.83100723680E+02 -0.36129377144E+03 -0.14546495167E+03  0.42660359203E+03  0.15294330000E+03 0.  0.
    8880022    1    1    2    0    0 -0.83100723680E+02  0.36129377144E+03  0.66618607663E+03  0.77758244661E+03  0.15294330000E+03 0.  0.
<mgrwt>
<rscale>  0 0.40103687E+03</rscale>
<asrwt>0</asrwt>
<pdfrwt beam="1">  1        2 0.13268517E+00 0.40103687E+03</pdfrwt>
<pdfrwt beam="2">  1       -2 0.52574224E-01 0.40103687E+03</pdfrwt>
<totfact> 0.11090105E+02</totfact>
</mgrwt>
</event>
<event>
 4    1  0.5387657E-008  0.1873377E+03  0.7818608E-02  0.1160885E+00
          2   -1    0    0  501    0  0.00000000000E+00  0.00000000000E+00  0.14000101994E+04  0.14000101994E+04  0.25500000000E-02 0. -1.
         -2   -1    0    0    0  501 -0.00000000000E+00 -0.00000000000E+00 -0.15972145837E+03  0.15972145839E+03  0.25500000000E-02 0.  1.
    8880022    1    1    2    0    0 -0.10795156452E+03  0.70859931966E+01  0.13362005101E+04  0.13492691384E+04  0.15294330000E+03 0. -1.
    8880022    1    1    2    0    0  0.10795156452E+03 -0.70859931966E+01 -0.95911769123E+02  0.21046251935E+03  0.15294330000E+03 0.  0.
<mgrwt>
<rscale>  0 0.18733768E+03</rscale>
<asrwt>0</asrwt>
<pdfrwt beam="1">  1        2 0.21538619E+00 0.18733768E+03</pdfrwt>
<pdfrwt beam="2">  1       -2 0.24572531E-01 0.18733768E+03</pdfrwt>
<totfact> 0.23268298E+02</totfact>
</mgrwt>
</event>
<event>
 4    1  0.5387657E-008  0.2289447E+03  0.7818608E-02  0.1127385E+00
          2   -1    0    0  501    0  0.00000000000E+00  0.00000000000E+00  0.16445538826E+04  0.16445538826E+04  0.25500000000E-02 0. -1.
         -2   -1    0    0    0  501 -0.00000000000E+00 -0.00000000000E+00 -0.30637257840E+03  0.30637257841E+03  0.25500000000E-02 0.  1.
    8880022    1    1    2    0    0  0.15478757148E+03 -0.71167590338E+02 -0.25424025540E+03  0.34213123020E+03  0.15294330000E+03 0.  0.
    8880022    1    1    2    0    0 -0.15478757148E+03  0.71167590338E+02  0.15924215596E+04  0.16087952308E+04  0.15294330000E+03 0.  0.
<mgrwt>
<rscale>  0 0.22894469E+03</rscale>
<asrwt>0</asrwt>
<pdfrwt beam="1">  1        2 0.25300830E+00 0.22894469E+03</pdfrwt>
<pdfrwt beam="2">  1       -2 0.47134241E-01 0.22894469E+03</pdfrwt>
<totfact> 0.50843299E+01</totfact>
</mgrwt>
</event>
<event>
 4    1  0.5387657E-008  0.1132845E+04  0.7818608E-02  0.9173757E-01
          2   -1    0    0  501    0  0.00000000000E+00  0.00000000000E+00  0.22046186124E+04  0.22046186124E+04  0.25500000000E-02 0. -1.
         -2   -1    0    0    0  501 -0.00000000000E+00 -0.00000000000E+00 -0.13441192257E+04  0.13441192257E+04  0.25500000000E-02 0.  1.
    8880022    1    1    2    0    0 -0.30332877079E+03  0.10807115920E+04 -0.90574346692E+03  0.14504167571E+04  0.15294330000E+03 0.  0.
    8880022    1    1    2    0    0  0.30332877079E+03 -0.10807115920E+04  0.17662428536E+04  0.20983210811E+04  0.15294330000E+03 0.  0.
<mgrwt>
<rscale>  0 0.11328449E+04</rscale>
<asrwt>0</asrwt>
<pdfrwt beam="1">  1        2 0.33917209E+00 0.11328449E+04</pdfrwt>
<pdfrwt beam="2">  1       -2 0.20678757E+00 0.11328449E+04</pdfrwt>
<totfact> 0.60539595E-01</totfact>
</mgrwt>
</event>
<event>
 4    1  0.5387657E-008  0.5127180E+03  0.7818608E-02  0.1010512E+00
          2   -1    0    0  501    0  0.00000000000E+00  0.00000000000E+00  0.16294907171E+04  0.16294907171E+04  0.25500000000E-02 0. -1.
         -2   -1    0    0    0  501 -0.00000000000E+00 -0.00000000000E+00 -0.19931920257E+03  0.19931920258E+03  0.25500000000E-02 0.  1.
    8880022    1    1    2    0    0  0.47482328866E+03  0.11845246651E+03  0.31586332678E+03  0.60220381641E+03  0.15294330000E+03 0.  0.
    8880022    1    1    2    0    0 -0.47482328866E+03 -0.11845246651E+03  0.11143081878E+04  0.12266061033E+04  0.15294330000E+03 0.  0.
<mgrwt>
<rscale>  0 0.51271805E+03</rscale>
<asrwt>0</asrwt>
<pdfrwt beam="1">  1        2 0.25069088E+00 0.51271805E+03</pdfrwt>
<pdfrwt beam="2">  1       -2 0.30664493E-01 0.51271805E+03</pdfrwt>
<totfact> 0.11060060E+02</totfact>
</mgrwt>
</event>
<event>
 4    1  0.5387657E-008  0.3490116E+03  0.7818608E-02  0.1063021E+00
          2   -1    0    0  501    0  0.00000000000E+00  0.00000000000E+00  0.19726659525E+04  0.19726659525E+04  0.25500000000E-02 0. -1.
         -2   -1    0    0    0  501 -0.00000000000E+00 -0.00000000000E+00 -0.14962187636E+03  0.14962187638E+03  0.25500000000E-02 0.  1.
    8880022    1    1    2    0    0 -0.25803326062E+03  0.17842718734E+03  0.17247372682E+04  0.17596953493E+04  0.15294330000E+03 0.  0.
    8880022    1    1    2    0    0  0.25803326062E+03 -0.17842718734E+03  0.98306807887E+02  0.36259247960E+03  0.15294330000E+03 0.  0.
<mgrwt>
<rscale>  0 0.34901157E+03</rscale>
<asrwt>0</asrwt>
<pdfrwt beam="1">  1        2 0.30348707E+00 0.34901157E+03</pdfrwt>
<pdfrwt beam="2">  1       -2 0.23018751E-01 0.34901157E+03</pdfrwt>
<totfact> 0.12497567E+02</totfact>
</mgrwt>
</event>
<event>
 4    1  0.5387657E-008  0.5672402E+03  0.7818608E-02  0.9975804E-01
          2   -1    0    0  501    0  0.00000000000E+00  0.00000000000E+00  0.31252837067E+03  0.31252837068E+03  0.25500000000E-02 0. -1.
         -2   -1    0    0    0  501 -0.00000000000E+00 -0.00000000000E+00 -0.19720876590E+04  0.19720876590E+04  0.25500000000E-02 0.  1.
    8880022    1    1    2    0    0  0.30333533242E+03  0.45426584744E+03 -0.16194958579E+04  0.17159627825E+04  0.15294330000E+03 0.  0.
    8880022    1    1    2    0    0 -0.30333533242E+03 -0.45426584744E+03 -0.40063430368E+02  0.56865324716E+03  0.15294330000E+03 0.  0.
<mgrwt>
<rscale>  0 0.56724019E+03</rscale>
<asrwt>0</asrwt>
<pdfrwt beam="1">  1        2 0.48081289E-01 0.56724019E+03</pdfrwt>
<pdfrwt beam="2">  1       -2 0.30339809E+00 0.56724019E+03</pdfrwt>
<totfact> 0.34053103E+00</totfact>
</mgrwt>
</event>
<event>
 4    1  0.5387657E-008  0.3891204E+03  0.7818608E-02  0.1047613E+00
         -2   -1    0    0    0  501 -0.00000000000E+00  0.00000000000E+00  0.52803883956E+03  0.52803883956E+03  0.25500000000E-02 0.  1.
          2   -1    0    0  501    0  0.00000000000E+00 -0.00000000000E+00 -0.76518062403E+03  0.76518062403E+03  0.25500000000E-02 0. -1.
    8880022    1    1    2    0    0 -0.54401015964E+02 -0.35364327972E+03  0.39272243150E+03  0.55285224160E+03  0.15294330000E+03 0.  1.
    8880022    1    1    2    0    0  0.54401015964E+02  0.35364327972E+03 -0.62986421597E+03  0.74036722199E+03  0.15294330000E+03 0.  0.
<mgrwt>
<rscale>  0 0.38912041E+03</rscale>
<asrwt>0</asrwt>
<pdfrwt beam="1">  1        2 0.11772010E+00 0.38912041E+03</pdfrwt>
<pdfrwt beam="2">  1       -2 0.81236744E-01 0.38912041E+03</pdfrwt>
<totfact> 0.51354836E+01</totfact>
</mgrwt>
</event>
<event>
 4    1  0.5387657E-008  0.9443339E+03  0.7818608E-02  0.9371798E-01
          2   -1    0    0  501    0  0.00000000000E+00  0.00000000000E+00  0.16001835670E+04  0.16001835670E+04  0.25500000000E-02 0. -1.
         -2   -1    0    0    0  501 -0.00000000000E+00 -0.00000000000E+00 -0.63190450184E+03  0.63190450185E+03  0.25500000000E-02 0.  1.
    8880022    1    1    2    0    0  0.72651773869E+03  0.58356386359E+03  0.10063814848E+03  0.94968126099E+03  0.15294330000E+03 0.  0.
    8880022    1    1    2    0    0 -0.72651773869E+03 -0.58356386359E+03  0.86764091665E+03  0.12824068078E+04  0.15294330000E+03 0.  0.
<mgrwt>
<rscale>  0 0.94433387E+03</rscale>
<asrwt>0</asrwt>
<pdfrwt beam="1">  1        2 0.24618209E+00 0.94433387E+03</pdfrwt>
<pdfrwt beam="2">  1       -2 0.97216078E-01 0.94433387E+03</pdfrwt>
<totfact> 0.98672492E+00</totfact>
</mgrwt>
</event>
<event>
 4    1  0.5387657E-008  0.1118716E+04  0.7818608E-02  0.9187140E-01
          2   -1    0    0  501    0  0.00000000000E+00  0.00000000000E+00  0.34397744132E+04  0.34397744132E+04  0.25500000000E-02 0. -1.
         -2   -1    0    0    0  501 -0.00000000000E+00 -0.00000000000E+00 -0.98359250128E+03  0.98359250128E+03  0.25500000000E-02 0.  1.
    8880022    1    1    2    0    0 -0.32560583781E+02 -0.11077336326E+04 -0.52750551959E+03  0.12368458751E+04  0.15294330000E+03 0.  0.
    8880022    1    1    2    0    0  0.32560583781E+02  0.11077336326E+04  0.29836874315E+04  0.31865210394E+04  0.15294330000E+03 0.  0.
<mgrwt>
<rscale>  0 0.11187161E+04</rscale>
<asrwt>0</asrwt>
<pdfrwt beam="1">  1        2 0.52919606E+00 0.11187161E+04</pdfrwt>
<pdfrwt beam="2">  1       -2 0.15132192E+00 0.11187161E+04</pdfrwt>
<totfact> 0.26383700E-01</totfact>
</mgrwt>
</event>
<event>
 4    1  0.5387657E-008  0.8515834E+03  0.7818608E-02  0.9488214E-01
          2   -1    0    0  501    0  0.00000000000E+00  0.00000000000E+00  0.98311874360E+03  0.98311874360E+03  0.25500000000E-02 0. -1.
         -2   -1    0    0    0  501 -0.00000000000E+00 -0.00000000000E+00 -0.11295333089E+04  0.11295333089E+04  0.25500000000E-02 0.  1.
    8880022    1    1    2    0    0 -0.83608479659E+03 -0.52581906889E+02 -0.69540536865E+03  0.10994466444E+04  0.15294330000E+03 0.  0.
    8880022    1    1    2    0    0  0.83608479659E+03  0.52581906889E+02  0.54899080332E+03  0.10132054082E+04  0.15294330000E+03 0.  0.
<mgrwt>
<rscale>  0 0.85158341E+03</rscale>
<asrwt>0</asrwt>
<pdfrwt beam="1">  1        2 0.15124904E+00 0.85158341E+03</pdfrwt>
<pdfrwt beam="2">  1       -2 0.17377436E+00 0.85158341E+03</pdfrwt>
<totfact> 0.52149201E+00</totfact>
</mgrwt>
</event>
<event>
 4    1  0.5387657E-008  0.3201541E+03  0.7818608E-02  0.1075578E+00
         -2   -1    0    0    0  501 -0.00000000000E+00  0.00000000000E+00  0.59483486857E+03  0.59483486858E+03  0.25500000000E-02 0.  1.
          2   -1    0    0  501    0  0.00000000000E+00 -0.00000000000E+00 -0.87387409826E+03  0.87387409827E+03  0.25500000000E-02 0. -1.
    8880022    1    1    2    0    0  0.25303771337E+03  0.12279630883E+03  0.51846176488E+03  0.60934495363E+03  0.15294330000E+03 0.  0.
    8880022    1    1    2    0    0 -0.25303771337E+03 -0.12279630883E+03 -0.79750099458E+03  0.85936401322E+03  0.15294330000E+03 0.  0.
<mgrwt>
<rscale>  0 0.32015414E+03</rscale>
<asrwt>0</asrwt>
<pdfrwt beam="1">  1        2 0.13444217E+00 0.32015414E+03</pdfrwt>
<pdfrwt beam="2">  1       -2 0.91513056E-01 0.32015414E+03</pdfrwt>
<totfact> 0.33406040E+01</totfact>
</mgrwt>
</event>
<event>
 4    1  0.5387657E-008  0.2983256E+03  0.7818608E-02  0.1086081E+00
         -2   -1    0    0    0  501 -0.00000000000E+00  0.00000000000E+00  0.14652490310E+03  0.14652490312E+03  0.25500000000E-02 0.  1.
          2   -1    0    0  501    0  0.00000000000E+00 -0.00000000000E+00 -0.76939434361E+03  0.76939434362E+03  0.25500000000E-02 0. -1.
    8880022    1    1    2    0    0 -0.22315940557E+03 -0.12572356076E+03 -0.52157636456E+03  0.60086611745E+03  0.15294330000E+03 0.  0.
    8880022    1    1    2    0    0  0.22315940557E+03  0.12572356076E+03 -0.10129307595E+03  0.31505312929E+03  0.15294330000E+03 0.  0.
<mgrwt>
<rscale>  0 0.29832564E+03</rscale>
<asrwt>0</asrwt>
<pdfrwt beam="1">  1        2 0.11836836E+00 0.29832564E+03</pdfrwt>
<pdfrwt beam="2">  1       -2 0.22542293E-01 0.29832564E+03</pdfrwt>
<totfact> 0.63828969E+02</totfact>
</mgrwt>
</event>
<event>
 4    1  0.5387657E-008  0.5729482E+03  0.7818608E-02  0.9963176E-01
          2   -1    0    0  501    0  0.00000000000E+00  0.00000000000E+00  0.19416713528E+03  0.19416713529E+03  0.25500000000E-02 0. -1.
         -2   -1    0    0    0  501 -0.00000000000E+00 -0.00000000000E+00 -0.34430448219E+04  0.34430448219E+04  0.25500000000E-02 0.  1.
    8880022    1    1    2    0    0 -0.41704234810E+03 -0.36187527333E+03 -0.32701281471E+03  0.65970225674E+03  0.15294330000E+03 0.  0.
    8880022    1    1    2    0    0  0.41704234810E+03  0.36187527333E+03 -0.29218648719E+04  0.29775097004E+04  0.15294330000E+03 0.  0.
<mgrwt>
<rscale>  0 0.57294824E+03</rscale>
<asrwt>0</asrwt>
<pdfrwt beam="1">  1        2 0.29871870E-01 0.57294824E+03</pdfrwt>
<pdfrwt beam="2">  1       -2 0.52969916E+00 0.57294824E+03</pdfrwt>
<totfact> 0.21211192E-01</totfact>
</mgrwt>
</event>
<event>
 4    1  0.5387657E-008  0.1097384E+04  0.7818608E-02  0.9207745E-01
         -2   -1    0    0    0  501 -0.00000000000E+00  0.00000000000E+00  0.20580836076E+04  0.20580836076E+04  0.25500000000E-02 0.  1.
          2   -1    0    0  501    0  0.00000000000E+00 -0.00000000000E+00 -0.63667527432E+03  0.63667527433E+03  0.25500000000E-02 0. -1.
    8880022    1    1    2    0    0  0.81075913834E+03  0.72355404737E+03  0.32733868572E+03  0.11451651008E+04  0.15294330000E+03 0.  0.
    8880022    1    1    2    0    0 -0.81075913834E+03 -0.72355404737E+03  0.10940696476E+04  0.15495937812E+04  0.15294330000E+03 0.  0.
<mgrwt>
<rscale>  0 0.10973844E+04</rscale>
<asrwt>0</asrwt>
<pdfrwt beam="1">  1        2 0.97950042E-01 0.10973844E+04</pdfrwt>
<pdfrwt beam="2">  1       -2 0.31662825E+00 0.10973844E+04</pdfrwt>
<totfact> 0.11543758E+00</totfact>
</mgrwt>
</event>
<event>
 4    1  0.5387657E-008  0.1894153E+03  0.7818608E-02  0.1158990E+00
         -2   -1    0    0    0  501 -0.00000000000E+00  0.00000000000E+00  0.41627178579E+03  0.41627178580E+03  0.25500000000E-02 0.  1.
          2   -1    0    0  501    0  0.00000000000E+00 -0.00000000000E+00 -0.66461143160E+03  0.66461143160E+03  0.25500000000E-02 0. -1.
    8880022    1    1    2    0    0  0.10315989483E+03 -0.42948173485E+02 -0.62835182152E+03  0.65628056053E+03  0.15294330000E+03 0.  0.
    8880022    1    1    2    0    0 -0.10315989483E+03  0.42948173485E+02  0.38001217572E+03  0.42460265686E+03  0.15294330000E+03 0.  1.
<mgrwt>
<rscale>  0 0.18941532E+03</rscale>
<asrwt>0</asrwt>
<pdfrwt beam="1">  1        2 0.10224791E+00 0.18941532E+03</pdfrwt>
<pdfrwt beam="2">  1       -2 0.64041813E-01 0.18941532E+03</pdfrwt>
<totfact> 0.10582137E+02</totfact>
</mgrwt>
</event>
<event>
 4    1  0.5387657E-008  0.1936897E+03  0.7818608E-02  0.1155175E+00
          2   -1    0    0  501    0  0.00000000000E+00  0.00000000000E+00  0.22871971601E+04  0.22871971601E+04  0.25500000000E-02 0. -1.
         -2   -1    0    0    0  501 -0.00000000000E+00 -0.00000000000E+00 -0.12555078562E+03  0.12555078564E+03  0.25500000000E-02 0.  1.
    8880022    1    1    2    0    0 -0.73279127818E+02 -0.93564058708E+02  0.22056372338E+04  0.22141254083E+04  0.15294330000E+03 0. -1.
    8880022    1    1    2    0    0  0.73279127818E+02  0.93564058708E+02 -0.43990859308E+02  0.19862253743E+03  0.15294330000E+03 0.  0.
<mgrwt>
<rscale>  0 0.19368974E+03</rscale>
<asrwt>0</asrwt>
<pdfrwt beam="1">  1        2 0.35187645E+00 0.19368974E+03</pdfrwt>
<pdfrwt beam="2">  1       -2 0.19315508E-01 0.19368974E+03</pdfrwt>
<totfact> 0.12087973E+02</totfact>
</mgrwt>
</event>
<event>
 4    1  0.5387657E-008  0.9627597E+03  0.7818608E-02  0.9350360E-01
          2   -1    0    0  501    0  0.00000000000E+00  0.00000000000E+00  0.17294480125E+04  0.17294480125E+04  0.25500000000E-02 0. -1.
         -2   -1    0    0    0  501 -0.00000000000E+00 -0.00000000000E+00 -0.84256507957E+03  0.84256507958E+03  0.25500000000E-02 0.  1.
    8880022    1    1    2    0    0 -0.13373317039E+03  0.94107919510E+03  0.12192145077E+04  0.15535090219E+04  0.15294330000E+03 0.  0.
    8880022    1    1    2    0    0  0.13373317039E+03 -0.94107919510E+03 -0.33233157480E+03  0.10185040702E+04  0.15294330000E+03 0.  0.
<mgrwt>
<rscale>  0 0.96275971E+03</rscale>
<asrwt>0</asrwt>
<pdfrwt beam="1">  1        2 0.26606892E+00 0.96275971E+03</pdfrwt>
<pdfrwt beam="2">  1       -2 0.12962540E+00 0.96275971E+03</pdfrwt>
<totfact> 0.41311289E+00</totfact>
</mgrwt>
</event>
<event>
 4    1  0.5387657E-008  0.4960304E+03  0.7818608E-02  0.1014820E+00
         -2   -1    0    0    0  501 -0.00000000000E+00  0.00000000000E+00  0.31106571941E+03  0.31106571942E+03  0.25500000000E-02 0.  1.
          2   -1    0    0  501    0  0.00000000000E+00 -0.00000000000E+00 -0.17537537650E+04  0.17537537650E+04  0.25500000000E-02 0. -1.
    8880022    1    1    2    0    0 -0.17815283456E+03 -0.43693942263E+03  0.43601237225E+02  0.49794298108E+03  0.15294330000E+03 0.  0.
    8880022    1    1    2    0    0  0.17815283456E+03  0.43693942263E+03 -0.14862892828E+04  0.15668765034E+04  0.15294330000E+03 0. -1.
<mgrwt>
<rscale>  0 0.49603039E+03</rscale>
<asrwt>0</asrwt>
<pdfrwt beam="1">  1        2 0.26980827E+00 0.49603039E+03</pdfrwt>
<pdfrwt beam="2">  1       -2 0.47856266E-01 0.49603039E+03</pdfrwt>
<totfact> 0.40340827E+01</totfact>
</mgrwt>
</event>
<event>
 4    1  0.5387657E-008  0.1060120E+04  0.7818608E-02  0.9244958E-01
         -2   -1    0    0    0  501 -0.00000000000E+00  0.00000000000E+00  0.67599174684E+03  0.67599174684E+03  0.25500000000E-02 0.  1.
          2   -1    0    0  501    0  0.00000000000E+00 -0.00000000000E+00 -0.28556256116E+04  0.28556256116E+04  0.25500000000E-02 0. -1.
    8880022    1    1    2    0    0 -0.36532824954E+03 -0.98336042720E+03  0.51565793956E+02  0.10613732349E+04  0.15294330000E+03 0.  0.
    8880022    1    1    2    0    0  0.36532824954E+03  0.98336042720E+03 -0.22311996587E+04  0.24702441235E+04  0.15294330000E+03 0.  0.
<mgrwt>
<rscale>  0 0.10601199E+04</rscale>
<asrwt>0</asrwt>
<pdfrwt beam="1">  1        2 0.43932701E+00 0.10601199E+04</pdfrwt>
<pdfrwt beam="2">  1       -2 0.10399873E+00 0.10601199E+04</pdfrwt>
<totfact> 0.16195876E+00</totfact>
</mgrwt>
</event>
<event>
 4    1  0.5387657E-008  0.6894155E+03  0.7818608E-02  0.9735506E-01
          2   -1    0    0  501    0  0.00000000000E+00  0.00000000000E+00  0.11098297556E+04  0.11098297556E+04  0.25500000000E-02 0. -1.
         -2   -1    0    0    0  501 -0.00000000000E+00 -0.00000000000E+00 -0.65809941623E+03  0.65809941624E+03  0.25500000000E-02 0.  1.
    8880022    1    1    2    0    0  0.62931403378E+03  0.23635979017E+03 -0.29653464642E+03  0.75048421240E+03  0.15294330000E+03 0.  0.
    8880022    1    1    2    0    0 -0.62931403378E+03 -0.23635979017E+03  0.74826498581E+03  0.10174449595E+04  0.15294330000E+03 0.  0.
<mgrwt>
<rscale>  0 0.68941552E+03</rscale>
<asrwt>0</asrwt>
<pdfrwt beam="1">  1        2 0.17074304E+00 0.68941552E+03</pdfrwt>
<pdfrwt beam="2">  1       -2 0.10124606E+00 0.68941552E+03</pdfrwt>
<totfact> 0.17664419E+01</totfact>
</mgrwt>
</event>
<event>
 4    1  0.5387657E-008  0.1181835E+04  0.7818608E-02  0.9128907E-01
         -2   -1    0    0    0  501 -0.00000000000E+00  0.00000000000E+00  0.25652297369E+04  0.25652297369E+04  0.25500000000E-02 0.  1.
          2   -1    0    0  501    0  0.00000000000E+00 -0.00000000000E+00 -0.54976264098E+03  0.54976264099E+03  0.25500000000E-02 0. -1.
    8880022    1    1    2    0    0  0.31962214291E+03 -0.11274677658E+04  0.85515676689E+03  0.14587757285E+04  0.15294330000E+03 0.  0.
    8880022    1    1    2    0    0 -0.31962214291E+03  0.11274677658E+04  0.11603103290E+04  0.16562166494E+04  0.15294330000E+03 0.  0.
<mgrwt>
<rscale>  0 0.11818348E+04</rscale>
<asrwt>0</asrwt>
<pdfrwt beam="1">  1        2 0.84578867E-01 0.11818348E+04</pdfrwt>
<pdfrwt beam="2">  1       -2 0.39465073E+00 0.11818348E+04</pdfrwt>
<totfact> 0.44080166E-01</totfact>
</mgrwt>
</event>
<event>
 4    1  0.5387657E-008  0.5773109E+03  0.7818608E-02  0.9953630E-01
         -2   -1    0    0    0  501 -0.00000000000E+00  0.00000000000E+00  0.19847504397E+03  0.19847504399E+03  0.25500000000E-02 0.  1.
          2   -1    0    0  501    0  0.00000000000E+00 -0.00000000000E+00 -0.22226709409E+04  0.22226709409E+04  0.25500000000E-02 0. -1.
    8880022    1    1    2    0    0 -0.55667459033E+03  0.31072160505E+01 -0.41351516981E+03  0.71012865242E+03  0.15294330000E+03 0.  0.
    8880022    1    1    2    0    0  0.55667459033E+03 -0.31072160505E+01 -0.16106807271E+04  0.17110173325E+04  0.15294330000E+03 0.  0.
<mgrwt>
<rscale>  0 0.57731093E+03</rscale>
<asrwt>0</asrwt>
<pdfrwt beam="1">  1        2 0.34194936E+00 0.57731093E+03</pdfrwt>
<pdfrwt beam="2">  1       -2 0.30534624E-01 0.57731093E+03</pdfrwt>
<totfact> 0.52718125E+01</totfact>
</mgrwt>
</event>
<event>
 4    1  0.5387657E-008  0.5981082E+03  0.7818608E-02  0.9909339E-01
         -2   -1    0    0    0  501 -0.00000000000E+00  0.00000000000E+00  0.11887310998E+04  0.11887310998E+04  0.25500000000E-02 0.  1.
          2   -1    0    0  501    0  0.00000000000E+00 -0.00000000000E+00 -0.53469136182E+03  0.53469136182E+03  0.25500000000E-02 0. -1.
    8880022    1    1    2    0    0 -0.50441402856E+03 -0.28268057341E+03 -0.24273729670E+03  0.64548808434E+03  0.15294330000E+03 0.  0.
    8880022    1    1    2    0    0  0.50441402856E+03  0.28268057341E+03  0.89677703469E+03  0.10779343773E+04  0.15294330000E+03 0.  0.
<mgrwt>
<rscale>  0 0.59810824E+03</rscale>
<asrwt>0</asrwt>
<pdfrwt beam="1">  1        2 0.82260210E-01 0.59810824E+03</pdfrwt>
<pdfrwt beam="2">  1       -2 0.18288171E+00 0.59810824E+03</pdfrwt>
<totfact> 0.10212312E+01</totfact>
</mgrwt>
</event>
<event>
 4    1  0.5387657E-008  0.6810518E+03  0.7818608E-02  0.9750196E-01
         -2   -1    0    0    0  501 -0.00000000000E+00  0.00000000000E+00  0.59355575867E+03  0.59355575867E+03  0.25500000000E-02 0.  1.
          2   -1    0    0  501    0  0.00000000000E+00 -0.00000000000E+00 -0.17241555314E+04  0.17241555315E+04  0.25500000000E-02 0. -1.
    8880022    1    1    2    0    0  0.43687770578E+03 -0.49957755872E+03 -0.14221999364E+04  0.15768589598E+04  0.15294330000E+03 0.  0.
    8880022    1    1    2    0    0 -0.43687770578E+03  0.49957755872E+03  0.29160016358E+03  0.74085233036E+03  0.15294330000E+03 0.  0.
<mgrwt>
<rscale>  0 0.68105177E+03</rscale>
<asrwt>0</asrwt>
<pdfrwt beam="1">  1        2 0.26525469E+00 0.68105177E+03</pdfrwt>
<pdfrwt beam="2">  1       -2 0.91316271E-01 0.68105177E+03</pdfrwt>
<totfact> 0.10103489E+01</totfact>
</mgrwt>
</event>
<event>
 4    1  0.5387657E-008  0.3973031E+03  0.7818608E-02  0.1044718E+00
          2   -1    0    0  501    0  0.00000000000E+00  0.00000000000E+00  0.14500868088E+04  0.14500868088E+04  0.25500000000E-02 0. -1.
         -2   -1    0    0    0  501 -0.00000000000E+00 -0.00000000000E+00 -0.20612374967E+03  0.20612374968E+03  0.25500000000E-02 0.  1.
    8880022    1    1    2    0    0  0.59107737885E+02  0.36189002635E+03  0.11908440569E+04  0.12553721905E+04  0.15294330000E+03 0.  0.
    8880022    1    1    2    0    0 -0.59107737885E+02 -0.36189002635E+03  0.53119002271E+02  0.40083836801E+03  0.15294330000E+03 0.  1.
<mgrwt>
<rscale>  0 0.39730312E+03</rscale>
<asrwt>0</asrwt>
<pdfrwt beam="1">  1        2 0.22309027E+00 0.39730312E+03</pdfrwt>
<pdfrwt beam="2">  1       -2 0.31711347E-01 0.39730312E+03</pdfrwt>
<totfact> 0.13236952E+02</totfact>
</mgrwt>
</event>
<event>
 4    1  0.5387657E-008  0.5389708E+03  0.7818608E-02  0.1004079E+00
         -2   -1    0    0    0  501 -0.00000000000E+00  0.00000000000E+00  0.41058802294E+03  0.41058802295E+03  0.25500000000E-02 0.  1.
          2   -1    0    0  501    0  0.00000000000E+00 -0.00000000000E+00 -0.10268094005E+04  0.10268094005E+04  0.25500000000E-02 0. -1.
    8880022    1    1    2    0    0  0.20026764679E+03 -0.47643544611E+03  0.92673240871E+02  0.54688010318E+03  0.15294330000E+03 0.  0.
    8880022    1    1    2    0    0 -0.20026764679E+03  0.47643544611E+03 -0.70889461843E+03  0.89051732028E+03  0.15294330000E+03 0.  0.
<mgrwt>
<rscale>  0 0.53897079E+03</rscale>
<asrwt>0</asrwt>
<pdfrwt beam="1">  1        2 0.15797068E+00 0.53897079E+03</pdfrwt>
<pdfrwt beam="2">  1       -2 0.63167389E-01 0.53897079E+03</pdfrwt>
<totfact> 0.58295743E+01</totfact>
</mgrwt>
</event>
<event>
 4    1  0.5387657E-008  0.2509239E+03  0.7818608E-02  0.1112722E+00
         -2   -1    0    0    0  501 -0.00000000000E+00  0.00000000000E+00  0.40183740871E+03  0.40183740872E+03  0.25500000000E-02 0.  1.
          2   -1    0    0  501    0  0.00000000000E+00 -0.00000000000E+00 -0.20888804511E+04  0.20888804511E+04  0.25500000000E-02 0. -1.
    8880022    1    1    2    0    0 -0.18175541927E+03  0.80846370886E+02 -0.20412627935E+04  0.20566274853E+04  0.15294330000E+03 0. -1.
    8880022    1    1    2    0    0  0.18175541927E+03 -0.80846370886E+02  0.35421975114E+03  0.43409037450E+03  0.15294330000E+03 0.  0.
<mgrwt>
<rscale>  0 0.25092393E+03</rscale>
<asrwt>0</asrwt>
<pdfrwt beam="1">  1        2 0.32136622E+00 0.25092393E+03</pdfrwt>
<pdfrwt beam="2">  1       -2 0.61821141E-01 0.25092393E+03</pdfrwt>
<totfact> 0.16993708E+01</totfact>
</mgrwt>
</event>
<event>
 4    1  0.5387657E-008  0.3611978E+03  0.7818608E-02  0.1058111E+00
          2   -1    0    0  501    0  0.00000000000E+00  0.00000000000E+00  0.95222115655E+03  0.95222115655E+03  0.25500000000E-02 0. -1.
         -2   -1    0    0    0  501 -0.00000000000E+00 -0.00000000000E+00 -0.30821863654E+03  0.30821863655E+03  0.25500000000E-02 0.  1.
    8880022    1    1    2    0    0 -0.16843641228E+03  0.28053762745E+03 -0.14770405369E+03  0.39023111855E+03  0.15294330000E+03 0.  0.
    8880022    1    1    2    0    0  0.16843641228E+03 -0.28053762745E+03  0.79170657370E+03  0.87020867455E+03  0.15294330000E+03 0.  0.
<mgrwt>
<rscale>  0 0.36119778E+03</rscale>
<asrwt>0</asrwt>
<pdfrwt beam="1">  1        2 0.14649556E+00 0.36119778E+03</pdfrwt>
<pdfrwt beam="2">  1       -2 0.47418253E-01 0.36119778E+03</pdfrwt>
<totfact> 0.11985843E+02</totfact>
</mgrwt>
</event>
<event>
 4    1  0.5387657E-008  0.2801531E+03  0.7818608E-02  0.1095605E+00
          2   -1    0    0  501    0  0.00000000000E+00  0.00000000000E+00  0.15174784656E+04  0.15174784656E+04  0.25500000000E-02 0. -1.
         -2   -1    0    0    0  501 -0.00000000000E+00 -0.00000000000E+00 -0.18839969489E+03  0.18839969490E+03  0.25500000000E-02 0.  1.
    8880022    1    1    2    0    0  0.20310947445E+03  0.11764628269E+03 -0.61947970124E+02  0.28692039046E+03  0.15294330000E+03 0.  1.
    8880022    1    1    2    0    0 -0.20310947445E+03 -0.11764628269E+03  0.13910267408E+04  0.14189577700E+04  0.15294330000E+03 0.  0.
<mgrwt>
<rscale>  0 0.28015310E+03</rscale>
<asrwt>0</asrwt>
<pdfrwt beam="1">  1        2 0.23345823E+00 0.28015310E+03</pdfrwt>
<pdfrwt beam="2">  1       -2 0.28984568E-01 0.28015310E+03</pdfrwt>
<totfact> 0.14664173E+02</totfact>
</mgrwt>
</event>
<event>
 4    1  0.5387657E-008  0.6667564E+03  0.7818608E-02  0.9775835E-01
         -2   -1    0    0    0  501 -0.00000000000E+00  0.00000000000E+00  0.11703276976E+04  0.11703276976E+04  0.25500000000E-02 0.  1.
          2   -1    0    0  501    0  0.00000000000E+00 -0.00000000000E+00 -0.73377284769E+03  0.73377284770E+03  0.25500000000E-02 0. -1.
    8880022    1    1    2    0    0 -0.11791581848E+03 -0.63817573284E+03  0.87946617481E+03  0.11036416139E+04  0.15294330000E+03 0.  0.
    8880022    1    1    2    0    0  0.11791581848E+03  0.63817573284E+03 -0.44291132487E+03  0.80045893145E+03  0.15294330000E+03 0.  0.
<mgrwt>
<rscale>  0 0.66675637E+03</rscale>
<asrwt>0</asrwt>
<pdfrwt beam="1">  1        2 0.11288813E+00 0.66675637E+03</pdfrwt>
<pdfrwt beam="2">  1       -2 0.18005041E+00 0.66675637E+03</pdfrwt>
<totfact> 0.71948269E+00</totfact>
</mgrwt>
</event>
<event>
 4    1  0.5387657E-008  0.3188505E+03  0.7818608E-02  0.1076180E+00
          2   -1    0    0  501    0  0.00000000000E+00  0.00000000000E+00  0.85323169898E+03  0.85323169898E+03  0.25500000000E-02 0. -1.
         -2   -1    0    0    0  501 -0.00000000000E+00 -0.00000000000E+00 -0.47990504908E+03  0.47990504909E+03  0.25500000000E-02 0.  1.
    8880022    1    1    2    0    0 -0.87640270063E+01 -0.27963755552E+03  0.76458780417E+03  0.82840819282E+03  0.15294330000E+03 0.  0.
    8880022    1    1    2    0    0  0.87640270063E+01  0.27963755552E+03 -0.39126115428E+03  0.50472855525E+03  0.15294330000E+03 0.  0.
<mgrwt>
<rscale>  0 0.31885047E+03</rscale>
<asrwt>0</asrwt>
<pdfrwt beam="1">  1        2 0.13126641E+00 0.31885047E+03</pdfrwt>
<pdfrwt beam="2">  1       -2 0.73831547E-01 0.31885047E+03</pdfrwt>
<totfact> 0.55705136E+01</totfact>
</mgrwt>
</event>
<event>
 4    1  0.5387657E-008  0.5619720E+03  0.7818608E-02  0.9987603E-01
          2   -1    0    0  501    0  0.00000000000E+00  0.00000000000E+00  0.16422320317E+04  0.16422320317E+04  0.25500000000E-02 0. -1.
         -2   -1    0    0    0  501 -0.00000000000E+00 -0.00000000000E+00 -0.22868163833E+03  0.22868163835E+03  0.25500000000E-02 0.  1.
    8880022    1    1    2    0    0  0.50841962608E+03 -0.18420181636E+03  0.10798606434E+04  0.12173378691E+04  0.15294330000E+03 0.  0.
    8880022    1    1    2    0    0 -0.50841962608E+03  0.18420181636E+03  0.33368974992E+03  0.65357580092E+03  0.15294330000E+03 0.  0.
<mgrwt>
<rscale>  0 0.56197196E+03</rscale>
<asrwt>0</asrwt>
<pdfrwt beam="1">  1        2 0.25265108E+00 0.56197196E+03</pdfrwt>
<pdfrwt beam="2">  1       -2 0.35181790E-01 0.56197196E+03</pdfrwt>
<totfact> 0.83586666E+01</totfact>
</mgrwt>
</event>
<event>
 4    1  0.5387657E-008  0.6294855E+03  0.7818608E-02  0.9846053E-01
          2   -1    0    0  501    0  0.00000000000E+00  0.00000000000E+00  0.29706437424E+04  0.29706437424E+04  0.25500000000E-02 0. -1.
         -2   -1    0    0    0  501 -0.00000000000E+00 -0.00000000000E+00 -0.22602148266E+03  0.22602148267E+03  0.25500000000E-02 0.  1.
    8880022    1    1    2    0    0 -0.51044632375E+03 -0.33511930430E+03  0.34908109276E+03  0.71979834668E+03  0.15294330000E+03 0.  0.
    8880022    1    1    2    0    0  0.51044632375E+03  0.33511930430E+03  0.23955411670E+04  0.24768668784E+04  0.15294330000E+03 0.  0.
<mgrwt>
<rscale>  0 0.62948554E+03</rscale>
<asrwt>0</asrwt>
<pdfrwt beam="1">  1        2 0.45702210E+00 0.62948554E+03</pdfrwt>
<pdfrwt beam="2">  1       -2 0.34772537E-01 0.62948554E+03</pdfrwt>
<totfact> 0.15275456E+01</totfact>
</mgrwt>
</event>
<event>
 4    1  0.5387657E-008  0.6646374E+03  0.7818608E-02  0.9779694E-01
         -2   -1    0    0    0  501 -0.00000000000E+00  0.00000000000E+00  0.55878255915E+03  0.55878255916E+03  0.25500000000E-02 0.  1.
          2   -1    0    0  501    0  0.00000000000E+00 -0.00000000000E+00 -0.16785349465E+04  0.16785349465E+04  0.25500000000E-02 0. -1.
    8880022    1    1    2    0    0  0.62236914333E+03  0.17609040054E+03 -0.13735239349E+04  0.15258803468E+04  0.15294330000E+03 0.  0.
    8880022    1    1    2    0    0 -0.62236914333E+03 -0.17609040054E+03  0.25377154757E+03  0.71143715893E+03  0.15294330000E+03 0.  0.
<mgrwt>
<rscale>  0 0.66463737E+03</rscale>
<asrwt>0</asrwt>
<pdfrwt beam="1">  1        2 0.25823614E+00 0.66463737E+03</pdfrwt>
<pdfrwt beam="2">  1       -2 0.85966548E-01 0.66463737E+03</pdfrwt>
<totfact> 0.12321321E+01</totfact>
</mgrwt>
</event>
<event>
 4    1  0.5387657E-008  0.3953261E+03  0.7818608E-02  0.1045410E+00
         -2   -1    0    0    0  501 -0.00000000000E+00  0.00000000000E+00  0.19778752287E+04  0.19778752287E+04  0.25500000000E-02 0.  1.
          2   -1    0    0  501    0  0.00000000000E+00 -0.00000000000E+00 -0.38994401603E+03  0.38994401604E+03  0.25500000000E-02 0. -1.
    8880022    1    1    2    0    0  0.31338333726E+03 -0.18623089120E+03  0.18511426592E+04  0.18928845339E+04  0.15294330000E+03 0.  0.
    8880022    1    1    2    0    0 -0.31338333726E+03  0.18623089120E+03 -0.26321144657E+03  0.47493471081E+03  0.15294330000E+03 0.  0.
<mgrwt>
<rscale>  0 0.39532609E+03</rscale>
<asrwt>0</asrwt>
<pdfrwt beam="1">  1        2 0.59991387E-01 0.39532609E+03</pdfrwt>
<pdfrwt beam="2">  1       -2 0.30428850E+00 0.39532609E+03</pdfrwt>
<totfact> 0.27413867E+00</totfact>
</mgrwt>
</event>
<event>
 4    1  0.5387657E-008  0.4732153E+03  0.7818608E-02  0.1021017E+00
          2   -1    0    0  501    0  0.00000000000E+00  0.00000000000E+00  0.16977981823E+04  0.16977981823E+04  0.25500000000E-02 0. -1.
         -2   -1    0    0    0  501 -0.00000000000E+00 -0.00000000000E+00 -0.36660442294E+03  0.36660442295E+03  0.25500000000E-02 0.  1.
    8880022    1    1    2    0    0 -0.43222200401E+03  0.11715463726E+03 -0.16030779918E+03  0.49963117725E+03  0.15294330000E+03 0.  0.
    8880022    1    1    2    0    0  0.43222200401E+03 -0.11715463726E+03  0.14915015586E+04  0.15647714280E+04  0.15294330000E+03 0.  0.
<mgrwt>
<rscale>  0 0.47321530E+03</rscale>
<asrwt>0</asrwt>
<pdfrwt beam="1">  1        2 0.26119972E+00 0.47321530E+03</pdfrwt>
<pdfrwt beam="2">  1       -2 0.56400680E-01 0.47321530E+03</pdfrwt>
<totfact> 0.31070588E+01</totfact>
</mgrwt>
</event>
<event>
 4    1  0.5387657E-008  0.6944356E+03  0.7818608E-02  0.9726796E-01
         -2   -1    0    0    0  501 -0.00000000000E+00  0.00000000000E+00  0.33063872087E+03  0.33063872088E+03  0.25500000000E-02 0.  1.
          2   -1    0    0  501    0  0.00000000000E+00 -0.00000000000E+00 -0.31286771528E+04  0.31286771528E+04  0.25500000000E-02 0. -1.
    8880022    1    1    2    0    0  0.22179780391E+03 -0.64004290064E+03 -0.26627641950E+04  0.27518273913E+04  0.15294330000E+03 0.  0.
    8880022    1    1    2    0    0 -0.22179780391E+03  0.64004290064E+03 -0.13527423694E+03  0.70748848236E+03  0.15294330000E+03 0.  0.
<mgrwt>
<rscale>  0 0.69443562E+03</rscale>
<asrwt>0</asrwt>
<pdfrwt beam="1">  1        2 0.48133493E+00 0.69443562E+03</pdfrwt>
<pdfrwt beam="2">  1       -2 0.50867497E-01 0.69443562E+03</pdfrwt>
<totfact> 0.57024546E+00</totfact>
</mgrwt>
</event>
<event>
 4    1  0.5387657E-008  0.3826198E+03  0.7818608E-02  0.1049970E+00
          2   -1    0    0  501    0  0.00000000000E+00  0.00000000000E+00  0.48806328207E+03  0.48806328208E+03  0.25500000000E-02 0. -1.
         -2   -1    0    0    0  501 -0.00000000000E+00 -0.00000000000E+00 -0.35747635132E+03  0.35747635133E+03  0.25500000000E-02 0.  1.
    8880022    1    1    2    0    0  0.27975394613E+03 -0.21152772906E+03 -0.10429176864E+03  0.39657871420E+03  0.15294330000E+03 0.  0.
    8880022    1    1    2    0    0 -0.27975394613E+03  0.21152772906E+03  0.23487869939E+03  0.44896091921E+03  0.15294330000E+03 0.  0.
<mgrwt>
<rscale>  0 0.38261979E+03</rscale>
<asrwt>0</asrwt>
<pdfrwt beam="1">  1        2 0.75086659E-01 0.38261979E+03</pdfrwt>
<pdfrwt beam="2">  1       -2 0.54996361E-01 0.38261979E+03</pdfrwt>
<totfact> 0.20259393E+02</totfact>
</mgrwt>
</event>
<event>
 4    1  0.5387657E-008  0.5148904E+03  0.7818608E-02  0.1009964E+00
         -2   -1    0    0    0  501 -0.00000000000E+00  0.00000000000E+00  0.39921640056E+03  0.39921640057E+03  0.25500000000E-02 0.  1.
          2   -1    0    0  501    0  0.00000000000E+00 -0.00000000000E+00 -0.92718533964E+03  0.92718533964E+03  0.25500000000E-02 0. -1.
    8880022    1    1    2    0    0  0.25778470729E+03  0.41864959982E+03  0.89300915683E+02  0.52257702714E+03  0.15294330000E+03 0.  0.
    8880022    1    1    2    0    0 -0.25778470729E+03 -0.41864959982E+03 -0.61726985476E+03  0.80382471307E+03  0.15294330000E+03 0.  0.
<mgrwt>
<rscale>  0 0.51489037E+03</rscale>
<asrwt>0</asrwt>
<pdfrwt beam="1">  1        2 0.14264390E+00 0.51489037E+03</pdfrwt>
<pdfrwt beam="2">  1       -2 0.61417908E-01 0.51489037E+03</pdfrwt>
<totfact> 0.71815453E+01</totfact>
</mgrwt>
</event>
<event>
 4    1  0.5387657E-008  0.2392266E+03  0.7818608E-02  0.1120309E+00
         -2   -1    0    0    0  501 -0.00000000000E+00  0.00000000000E+00  0.97298328527E+02  0.97298328561E+02  0.25500000000E-02 0.  1.
          2   -1    0    0  501    0  0.00000000000E+00 -0.00000000000E+00 -0.17127792005E+04  0.17127792005E+04  0.25500000000E-02 0. -1.
    8880022    1    1    2    0    0  0.16372028478E+03 -0.83865399498E+02 -0.74385084688E+02  0.25052451121E+03  0.15294330000E+03 0.  0.
    8880022    1    1    2    0    0 -0.16372028478E+03  0.83865399498E+02 -0.15410957873E+04  0.15595530179E+04  0.15294330000E+03 0. -1.
<mgrwt>
<rscale>  0 0.23922665E+03</rscale>
<asrwt>0</asrwt>
<pdfrwt beam="1">  1        2 0.26350447E+00 0.23922665E+03</pdfrwt>
<pdfrwt beam="2">  1       -2 0.14968975E-01 0.23922665E+03</pdfrwt>
<totfact> 0.36516158E+02</totfact>
</mgrwt>
</event>
<event>
 4    1  0.5387657E-008  0.1724615E+03  0.7818608E-02  0.1175305E+00
          2   -1    0    0  501    0  0.00000000000E+00  0.00000000000E+00  0.33822900551E+04  0.33822900551E+04  0.25500000000E-02 0. -1.
         -2   -1    0    0    0  501 -0.00000000000E+00 -0.00000000000E+00 -0.77383390926E+02  0.77383390968E+02  0.25500000000E-02 0.  1.
    8880022    1    1    2    0    0 -0.55583242455E+02 -0.57112304513E+02  0.32810387576E+04  0.32855681844E+04  0.15294330000E+03 0. -1.
    8880022    1    1    2    0    0  0.55583242455E+02  0.57112304513E+02  0.23867906546E+02  0.17410526169E+03  0.15294330000E+03 0.  0.
<mgrwt>
<rscale>  0 0.17246149E+03</rscale>
<asrwt>0</asrwt>
<pdfrwt beam="1">  1        2 0.52035226E+00 0.17246149E+03</pdfrwt>
<pdfrwt beam="2">  1       -2 0.11905138E-01 0.17246149E+03</pdfrwt>
<totfact> 0.64176288E+01</totfact>
</mgrwt>
</event>
<event>
 4    1  0.5387657E-008  0.3274922E+03  0.7818608E-02  0.1072252E+00
          2   -1    0    0  501    0  0.00000000000E+00  0.00000000000E+00  0.30790049841E+04  0.30790049841E+04  0.25500000000E-02 0. -1.
         -2   -1    0    0    0  501 -0.00000000000E+00 -0.00000000000E+00 -0.72807330323E+03  0.72807330323E+03  0.25500000000E-02 0.  1.
    8880022    1    1    2    0    0 -0.12555703360E+03  0.26095001954E+03 -0.68197993686E+03  0.75653669355E+03  0.15294330000E+03 0.  0.
    8880022    1    1    2    0    0  0.12555703360E+03 -0.26095001954E+03  0.30329116177E+04  0.30505415938E+04  0.15294330000E+03 0.  0.
<mgrwt>
<rscale>  0 0.32749219E+03</rscale>
<asrwt>0</asrwt>
<pdfrwt beam="1">  1        2 0.47369309E+00 0.32749219E+03</pdfrwt>
<pdfrwt beam="2">  1       -2 0.11201127E+00 0.32749219E+03</pdfrwt>
<totfact> 0.12079173E+00</totfact>
</mgrwt>
</event>
<event>
 4    1  0.5387657E-008  0.9298241E+03  0.7818608E-02  0.9389049E-01
         -2   -1    0    0    0  501 -0.00000000000E+00  0.00000000000E+00  0.62974553177E+03  0.62974553178E+03  0.25500000000E-02 0.  1.
          2   -1    0    0  501    0  0.00000000000E+00 -0.00000000000E+00 -0.15404396489E+04  0.15404396489E+04  0.25500000000E-02 0. -1.
    8880022    1    1    2    0    0  0.88759719985E+03  0.23098150048E+03 -0.97487172398E+02  0.93492066217E+03  0.15294330000E+03 0.  0.
    8880022    1    1    2    0    0 -0.88759719985E+03 -0.23098150048E+03 -0.81320694477E+03  0.12352645186E+04  0.15294330000E+03 0.  0.
<mgrwt>
<rscale>  0 0.92982412E+03</rscale>
<asrwt>0</asrwt>
<pdfrwt beam="1">  1        2 0.23699071E+00 0.92982412E+03</pdfrwt>
<pdfrwt beam="2">  1       -2 0.96883928E-01 0.92982412E+03</pdfrwt>
<totfact> 0.10755949E+01</totfact>
</mgrwt>
</event>
<event>
 4    1  0.5387657E-008  0.4143663E+03  0.7818608E-02  0.1038916E+00
         -2   -1    0    0    0  501 -0.00000000000E+00  0.00000000000E+00  0.26074985014E+03  0.26074985015E+03  0.25500000000E-02 0.  1.
          2   -1    0    0  501    0  0.00000000000E+00 -0.00000000000E+00 -0.13957341718E+04  0.13957341718E+04  0.25500000000E-02 0. -1.
    8880022    1    1    2    0    0 -0.21887992434E+03 -0.31685859362E+03  0.34462142550E+02  0.41579692388E+03  0.15294330000E+03 0.  0.
    8880022    1    1    2    0    0  0.21887992434E+03  0.31685859362E+03 -0.11694464642E+04  0.12406870981E+04  0.15294330000E+03 0.  0.
<mgrwt>
<rscale>  0 0.41436631E+03</rscale>
<asrwt>0</asrwt>
<pdfrwt beam="1">  1        2 0.21472833E+00 0.41436631E+03</pdfrwt>
<pdfrwt beam="2">  1       -2 0.40115362E-01 0.41436631E+03</pdfrwt>
<totfact> 0.90655997E+01</totfact>
</mgrwt>
</event>
<event>
 4    1  0.5387657E-008  0.8225918E+03  0.7818608E-02  0.9527880E-01
          2   -1    0    0  501    0  0.00000000000E+00  0.00000000000E+00  0.87648837680E+03  0.87648837680E+03  0.25500000000E-02 0. -1.
         -2   -1    0    0    0  501 -0.00000000000E+00 -0.00000000000E+00 -0.84246754759E+03  0.84246754759E+03  0.25500000000E-02 0.  1.
    8880022    1    1    2    0    0  0.33130313981E+03 -0.73722711122E+03 -0.23154536566E+03  0.85455865413E+03  0.15294330000E+03 0.  0.
    8880022    1    1    2    0    0 -0.33130313981E+03  0.73722711122E+03  0.26556619487E+03  0.86439727027E+03  0.15294330000E+03 0.  0.
<mgrwt>
<rscale>  0 0.82259178E+03</rscale>
<asrwt>0</asrwt>
<pdfrwt beam="1">  1        2 0.13484437E+00 0.82259178E+03</pdfrwt>
<pdfrwt beam="2">  1       -2 0.12961039E+00 0.82259178E+03</pdfrwt>
<totfact> 0.13424127E+01</totfact>
</mgrwt>
</event>
<event>
 4    1  0.5387657E-008  0.6872756E+03  0.7818608E-02  0.9739244E-01
          2   -1    0    0  501    0  0.00000000000E+00  0.00000000000E+00  0.12636544638E+04  0.12636544638E+04  0.25500000000E-02 0. -1.
         -2   -1    0    0    0  501 -0.00000000000E+00 -0.00000000000E+00 -0.53478529746E+03  0.53478529747E+03  0.25500000000E-02 0.  1.
    8880022    1    1    2    0    0  0.35928807437E+03 -0.56556885843E+03 -0.12893916348E+03  0.69926605445E+03  0.15294330000E+03 0.  0.
    8880022    1    1    2    0    0 -0.35928807437E+03  0.56556885843E+03  0.85780832979E+03  0.10991737068E+04  0.15294330000E+03 0.  0.
<mgrwt>
<rscale>  0 0.68727557E+03</rscale>
<asrwt>0</asrwt>
<pdfrwt beam="1">  1        2 0.19440838E+00 0.68727557E+03</pdfrwt>
<pdfrwt beam="2">  1       -2 0.82274661E-01 0.68727557E+03</pdfrwt>
<totfact> 0.23145073E+01</totfact>
</mgrwt>
</event>
<event>
 4    1  0.5387657E-008  0.4505491E+03  0.7818608E-02  0.1027558E+00
          2   -1    0    0  501    0  0.00000000000E+00  0.00000000000E+00  0.21670773645E+04  0.21670773645E+04  0.25500000000E-02 0. -1.
         -2   -1    0    0    0  501 -0.00000000000E+00 -0.00000000000E+00 -0.37355698571E+03  0.37355698571E+03  0.25500000000E-02 0.  1.
    8880022    1    1    2    0    0  0.40404722198E+03 -0.12786207421E+03 -0.20281142955E+03  0.49409209322E+03  0.15294330000E+03 0.  0.
    8880022    1    1    2    0    0 -0.40404722198E+03  0.12786207421E+03  0.19963318083E+04  0.20465422570E+04  0.15294330000E+03 0.  0.
<mgrwt>
<rscale>  0 0.45054913E+03</rscale>
<asrwt>0</asrwt>
<pdfrwt beam="1">  1        2 0.33339652E+00 0.45054913E+03</pdfrwt>
<pdfrwt beam="2">  1       -2 0.57470305E-01 0.45054913E+03</pdfrwt>
<totfact> 0.16806272E+01</totfact>
</mgrwt>
</event>
<event>
 4    1  0.5387657E-008  0.4882815E+03  0.7818608E-02  0.1016884E+00
          2   -1    0    0  501    0  0.00000000000E+00  0.00000000000E+00  0.64726630115E+03  0.64726630116E+03  0.25500000000E-02 0. -1.
         -2   -1    0    0    0  501 -0.00000000000E+00 -0.00000000000E+00 -0.92927942004E+03  0.92927942004E+03  0.25500000000E-02 0.  1.
    8880022    1    1    2    0    0 -0.31421260408E+03  0.34102431076E+03  0.47142642045E+03  0.67872060820E+03  0.15294330000E+03 0.  0.
    8880022    1    1    2    0    0  0.31421260408E+03 -0.34102431076E+03 -0.75343953933E+03  0.89782511300E+03  0.15294330000E+03 0.  0.
<mgrwt>
<rscale>  0 0.48828147E+03</rscale>
<asrwt>0</asrwt>
<pdfrwt beam="1">  1        2 0.99579431E-01 0.48828147E+03</pdfrwt>
<pdfrwt beam="2">  1       -2 0.14296607E+00 0.48828147E+03</pdfrwt>
<totfact> 0.16087462E+01</totfact>
</mgrwt>
</event>
<event>
 4    1  0.5387657E-008  0.6045509E+03  0.7818608E-02  0.9896009E-01
         -2   -1    0    0    0  501 -0.00000000000E+00  0.00000000000E+00  0.13632952150E+04  0.13632952150E+04  0.25500000000E-02 0.  1.
          2   -1    0    0  501    0  0.00000000000E+00 -0.00000000000E+00 -0.75628731334E+03  0.75628731334E+03  0.25500000000E-02 0. -1.
    8880022    1    1    2    0    0 -0.12251899694E+02  0.58475639990E+03 -0.54797894188E+03  0.81594284728E+03  0.15294330000E+03 0.  0.
    8880022    1    1    2    0    0  0.12251899694E+02 -0.58475639990E+03  0.11549868436E+04  0.13036396811E+04  0.15294330000E+03 0.  0.
<mgrwt>
<rscale>  0 0.60455092E+03</rscale>
<asrwt>0</asrwt>
<pdfrwt beam="1">  1        2 0.11635189E+00 0.60455092E+03</pdfrwt>
<pdfrwt beam="2">  1       -2 0.20973773E+00 0.60455092E+03</pdfrwt>
<totfact> 0.44596606E+00</totfact>
</mgrwt>
</event>
<event>
 4    1  0.5387657E-008  0.5402226E+03  0.7818608E-02  0.1003783E+00
         -2   -1    0    0    0  501 -0.00000000000E+00  0.00000000000E+00  0.16975840404E+03  0.16975840406E+03  0.25500000000E-02 0.  1.
          2   -1    0    0  501    0  0.00000000000E+00 -0.00000000000E+00 -0.21859420645E+04  0.21859420645E+04  0.25500000000E-02 0. -1.
    8880022    1    1    2    0    0 -0.13787260414E+03  0.49943958177E+03 -0.46380000219E+03  0.71200480747E+03  0.15294330000E+03 0.  0.
    8880022    1    1    2    0    0  0.13787260414E+03 -0.49943958177E+03 -0.15523836583E+04  0.16436956611E+04  0.15294330000E+03 0.  0.
<mgrwt>
<rscale>  0 0.54022255E+03</rscale>
<asrwt>0</asrwt>
<pdfrwt beam="1">  1        2 0.33629876E+00 0.54022255E+03</pdfrwt>
<pdfrwt beam="2">  1       -2 0.26116679E-01 0.54022255E+03</pdfrwt>
<totfact> 0.73934530E+01</totfact>
</mgrwt>
</event>
<event>
 4    1  0.5387657E-008  0.7724444E+03  0.7818608E-02  0.9600782E-01
          2   -1    0    0  501    0  0.00000000000E+00  0.00000000000E+00  0.16109668877E+04  0.16109668877E+04  0.25500000000E-02 0. -1.
         -2   -1    0    0    0  501 -0.00000000000E+00 -0.00000000000E+00 -0.50377870632E+03  0.50377870632E+03  0.25500000000E-02 0.  1.
    8880022    1    1    2    0    0 -0.17908676513E+03 -0.73566750872E+03  0.10977001265E+04  0.13422428892E+04  0.15294330000E+03 0.  0.
    8880022    1    1    2    0    0  0.17908676513E+03  0.73566750872E+03  0.94880549064E+01  0.77250270487E+03  0.15294330000E+03 0.  0.
<mgrwt>
<rscale>  0 0.77244444E+03</rscale>
<asrwt>0</asrwt>
<pdfrwt beam="1">  1        2 0.24784106E+00 0.77244444E+03</pdfrwt>
<pdfrwt beam="2">  1       -2 0.77504415E-01 0.77244444E+03</pdfrwt>
<totfact> 0.16699759E+01</totfact>
</mgrwt>
</event>
<event>
 4    1  0.5387657E-008  0.6465756E+03  0.7818608E-02  0.9813226E-01
         -2   -1    0    0    0  501 -0.00000000000E+00  0.00000000000E+00  0.77732623828E+03  0.77732623828E+03  0.25500000000E-02 0.  1.
          2   -1    0    0  501    0  0.00000000000E+00 -0.00000000000E+00 -0.17528190189E+04  0.17528190189E+04  0.25500000000E-02 0. -1.
    8880022    1    1    2    0    0 -0.49031312888E+03 -0.39276121545E+03 -0.15410055731E+04  0.16711547403E+04  0.15294330000E+03 0.  0.
    8880022    1    1    2    0    0  0.49031312888E+03  0.39276121545E+03  0.56551279245E+03  0.85899051691E+03  0.15294330000E+03 0.  0.
<mgrwt>
<rscale>  0 0.64657559E+03</rscale>
<asrwt>0</asrwt>
<pdfrwt beam="1">  1        2 0.26966446E+00 0.64657559E+03</pdfrwt>
<pdfrwt beam="2">  1       -2 0.11958865E+00 0.64657559E+03</pdfrwt>
<totfact> 0.51480044E+00</totfact>
</mgrwt>
</event>
<event>
 4    1  0.5387657E-008  0.4748362E+03  0.7818608E-02  0.1020564E+00
          2   -1    0    0  501    0  0.00000000000E+00  0.00000000000E+00  0.12850768303E+04  0.12850768303E+04  0.25500000000E-02 0. -1.
         -2   -1    0    0    0  501 -0.00000000000E+00 -0.00000000000E+00 -0.29662144408E+03  0.29662144409E+03  0.25500000000E-02 0.  1.
    8880022    1    1    2    0    0 -0.85790618439E+02 -0.44126832706E+03 -0.11234600286E+02  0.47496908945E+03  0.15294330000E+03 0.  0.
    8880022    1    1    2    0    0  0.85790618439E+02  0.44126832706E+03  0.99968998653E+03  0.11067291850E+04  0.15294330000E+03 0.  0.
<mgrwt>
<rscale>  0 0.47483620E+03</rscale>
<asrwt>0</asrwt>
<pdfrwt beam="1">  1        2 0.19770413E+00 0.47483620E+03</pdfrwt>
<pdfrwt beam="2">  1       -2 0.45634068E-01 0.47483620E+03</pdfrwt>
<totfact> 0.80522535E+01</totfact>
</mgrwt>
</event>
<event>
 4    1  0.5387657E-008  0.2281641E+03  0.7818608E-02  0.1127939E+00
         -2   -1    0    0    0  501 -0.00000000000E+00  0.00000000000E+00  0.84157056434E+02  0.84157056473E+02  0.25500000000E-02 0.  1.
          2   -1    0    0  501    0  0.00000000000E+00 -0.00000000000E+00 -0.18332495342E+04  0.18332495342E+04  0.25500000000E-02 0. -1.
    8880022    1    1    2    0    0 -0.31795870161E+02  0.16630155575E+03 -0.94176452864E+02  0.24683606319E+03  0.15294330000E+03 0.  1.
    8880022    1    1    2    0    0  0.31795870161E+02 -0.16630155575E+03 -0.16549160249E+04  0.16705705275E+04  0.15294330000E+03 0.  0.
<mgrwt>
<rscale>  0 0.22816406E+03</rscale>
<asrwt>0</asrwt>
<pdfrwt beam="1">  1        2 0.28203836E+00 0.22816406E+03</pdfrwt>
<pdfrwt beam="2">  1       -2 0.12947241E-01 0.22816406E+03</pdfrwt>
<totfact> 0.40168090E+02</totfact>
</mgrwt>
</event>
<event>
 4    1  0.5387657E-008  0.3975001E+03  0.7818608E-02  0.1044649E+00
         -2   -1    0    0    0  501 -0.00000000000E+00  0.00000000000E+00  0.48159398889E+03  0.48159398889E+03  0.25500000000E-02 0.  1.
          2   -1    0    0  501    0  0.00000000000E+00 -0.00000000000E+00 -0.57813383901E+03  0.57813383901E+03  0.25500000000E-02 0. -1.
    8880022    1    1    2    0    0 -0.33684766922E+03  0.14542460637E+03  0.30019410698E+03  0.49811928619E+03  0.15294330000E+03 0.  0.
    8880022    1    1    2    0    0  0.33684766922E+03 -0.14542460637E+03 -0.39673395710E+03  0.56160854171E+03  0.15294330000E+03 0.  0.
<mgrwt>
<rscale>  0 0.39750009E+03</rscale>
<asrwt>0</asrwt>
<pdfrwt beam="1">  1        2 0.88943668E-01 0.39750009E+03</pdfrwt>
<pdfrwt beam="2">  1       -2 0.74091383E-01 0.39750009E+03</pdfrwt>
<totfact> 0.88502614E+01</totfact>
</mgrwt>
</event>
<event>
 4    1  0.5387657E-008  0.5285438E+03  0.7818608E-02  0.1006586E+00
          2   -1    0    0  501    0  0.00000000000E+00  0.00000000000E+00  0.10531924361E+04  0.10531924361E+04  0.25500000000E-02 0. -1.
         -2   -1    0    0    0  501 -0.00000000000E+00 -0.00000000000E+00 -0.76737399213E+03  0.76737399214E+03  0.25500000000E-02 0.  1.
    8880022    1    1    2    0    0 -0.43099527641E+03  0.26497161776E+03 -0.59343145502E+03  0.79468196867E+03  0.15294330000E+03 0.  0.
    8880022    1    1    2    0    0  0.43099527641E+03 -0.26497161776E+03  0.87924989894E+03  0.10258844595E+04  0.15294330000E+03 0.  0.
<mgrwt>
<rscale>  0 0.52854379E+03</rscale>
<asrwt>0</asrwt>
<pdfrwt beam="1">  1        2 0.16202961E+00 0.52854379E+03</pdfrwt>
<pdfrwt beam="2">  1       -2 0.11805754E+00 0.52854379E+03</pdfrwt>
<totfact> 0.13514259E+01</totfact>
</mgrwt>
</event>
<event>
 4    1  0.5387657E-008  0.4146686E+03  0.7818608E-02  0.1038816E+00
          2   -1    0    0  501    0  0.00000000000E+00  0.00000000000E+00  0.14684738458E+04  0.14684738459E+04  0.25500000000E-02 0. -1.
         -2   -1    0    0    0  501 -0.00000000000E+00 -0.00000000000E+00 -0.14239606436E+03  0.14239606439E+03  0.25500000000E-02 0.  1.
    8880022    1    1    2    0    0  0.38449641924E+03  0.26849016397E+02  0.10025517965E+04  0.10849240175E+04  0.15294330000E+03 0.  0.
    8880022    1    1    2    0    0 -0.38449641924E+03 -0.26849016397E+02  0.32352598496E+03  0.52594589270E+03  0.15294330000E+03 0.  0.
<mgrwt>
<rscale>  0 0.41466857E+03</rscale>
<asrwt>0</asrwt>
<pdfrwt beam="1">  1        2 0.22591904E+00 0.41466857E+03</pdfrwt>
<pdfrwt beam="2">  1       -2 0.21907088E-01 0.41466857E+03</pdfrwt>
<totfact> 0.25113468E+02</totfact>
</mgrwt>
</event>
<event>
 4    1  0.5387657E-008  0.2315426E+03  0.7818608E-02  0.1125559E+00
          2   -1    0    0  501    0  0.00000000000E+00  0.00000000000E+00  0.13426812845E+04  0.13426812845E+04  0.25500000000E-02 0. -1.
         -2   -1    0    0    0  501 -0.00000000000E+00 -0.00000000000E+00 -0.42576170726E+03  0.42576170727E+03  0.25500000000E-02 0.  1.
    8880022    1    1    2    0    0 -0.14863809125E+03  0.90150223218E+02 -0.38327883830E+03  0.44778863967E+03  0.15294330000E+03 0.  0.
    8880022    1    1    2    0    0  0.14863809125E+03 -0.90150223218E+02  0.13001984155E+04  0.13206543521E+04  0.15294330000E+03 0. -1.
<mgrwt>
<rscale>  0 0.23154265E+03</rscale>
<asrwt>0</asrwt>
<pdfrwt beam="1">  1        2 0.20656635E+00 0.23154265E+03</pdfrwt>
<pdfrwt beam="2">  1       -2 0.65501801E-01 0.23154265E+03</pdfrwt>
<totfact> 0.37615689E+01</totfact>
</mgrwt>
</event>
<event>
 4    1  0.5387657E-008  0.3937910E+03  0.7818608E-02  0.1045951E+00
         -2   -1    0    0    0  501 -0.00000000000E+00  0.00000000000E+00  0.16488556700E+03  0.16488556702E+03  0.25500000000E-02 0.  1.
          2   -1    0    0  501    0  0.00000000000E+00 -0.00000000000E+00 -0.18424896809E+04  0.18424896809E+04  0.25500000000E-02 0. -1.
    8880022    1    1    2    0    0 -0.28542754097E+03 -0.22407766530E+03 -0.13653549162E+03  0.41678924497E+03  0.15294330000E+03 0.  0.
    8880022    1    1    2    0    0  0.28542754097E+03  0.22407766530E+03 -0.15410686223E+04  0.15905860030E+04  0.15294330000E+03 0.  0.
<mgrwt>
<rscale>  0 0.39379098E+03</rscale>
<asrwt>0</asrwt>
<pdfrwt beam="1">  1        2 0.28345994E+00 0.39379098E+03</pdfrwt>
<pdfrwt beam="2">  1       -2 0.25367012E-01 0.39379098E+03</pdfrwt>
<totfact> 0.12227899E+02</totfact>
</mgrwt>
</event>
<event>
 4    1  0.5387657E-008  0.1673766E+03  0.7818608E-02  0.1180612E+00
         -2   -1    0    0    0  501 -0.00000000000E+00  0.00000000000E+00  0.22265237138E+02  0.22265237284E+02  0.25500000000E-02 0.  1.
          2   -1    0    0  501    0  0.00000000000E+00 -0.00000000000E+00 -0.23360597387E+04  0.23360597387E+04  0.25500000000E-02 0. -1.
    8880022    1    1    2    0    0 -0.65353787613E+02 -0.18766005543E+02 -0.19578473500E+04  0.19649888497E+04  0.15294330000E+03 0.  0.
    8880022    1    1    2    0    0  0.65353787613E+02  0.18766005543E+02 -0.35594715150E+03  0.39333612623E+03  0.15294330000E+03 0.  1.
<mgrwt>
<rscale>  0 0.16737662E+03</rscale>
<asrwt>0</asrwt>
<pdfrwt beam="1">  1        2 0.35939361E+00 0.16737662E+03</pdfrwt>
<pdfrwt beam="2">  1       -2 0.34254229E-02 0.16737662E+03</pdfrwt>
<totfact> 0.17290997E+03</totfact>
</mgrwt>
</event>
<event>
 4    1  0.5387657E-008  0.2947135E+03  0.7818608E-02  0.1087914E+00
         -2   -1    0    0    0  501 -0.00000000000E+00  0.00000000000E+00  0.10796844193E+04  0.10796844193E+04  0.25500000000E-02 0.  1.
          2   -1    0    0  501    0  0.00000000000E+00 -0.00000000000E+00 -0.14623601737E+03  0.14623601740E+03  0.25500000000E-02 0. -1.
    8880022    1    1    2    0    0  0.92947560453E+02 -0.23414764273E+03  0.55587784126E+02  0.29991002375E+03  0.15294330000E+03 0.  0.
    8880022    1    1    2    0    0 -0.92947560453E+02  0.23414764273E+03  0.87786061783E+03  0.92601041297E+03  0.15294330000E+03 0.  0.
<mgrwt>
<rscale>  0 0.29471346E+03</rscale>
<asrwt>0</asrwt>
<pdfrwt beam="1">  1        2 0.22497849E-01 0.29471346E+03</pdfrwt>
<pdfrwt beam="2">  1       -2 0.16610529E+00 0.29471346E+03</pdfrwt>
<totfact> 0.58887691E+01</totfact>
</mgrwt>
</event>
<event>
 4    1  0.5387657E-008  0.6590822E+03  0.7818608E-02  0.9789885E-01
          2   -1    0    0  501    0  0.00000000000E+00  0.00000000000E+00  0.20567015267E+04  0.20567015267E+04  0.25500000000E-02 0. -1.
         -2   -1    0    0    0  501 -0.00000000000E+00 -0.00000000000E+00 -0.24178071145E+03  0.24178071147E+03  0.25500000000E-02 0.  1.
    8880022    1    1    2    0    0 -0.54996049378E+03  0.32945578418E+03  0.49878739555E+03  0.82654593183E+03  0.15294330000E+03 0.  0.
    8880022    1    1    2    0    0  0.54996049378E+03 -0.32945578418E+03  0.13161334197E+04  0.14719363064E+04  0.15294330000E+03 0.  0.
<mgrwt>
<rscale>  0 0.65908217E+03</rscale>
<asrwt>0</asrwt>
<pdfrwt beam="1">  1        2 0.31641561E+00 0.65908217E+03</pdfrwt>
<pdfrwt beam="2">  1       -2 0.37197034E-01 0.65908217E+03</pdfrwt>
<totfact> 0.44200563E+01</totfact>
</mgrwt>
</event>
<event>
 4    1  0.5387657E-008  0.4266653E+03  0.7818608E-02  0.1034919E+00
         -2   -1    0    0    0  501 -0.00000000000E+00  0.00000000000E+00  0.40732284659E+03  0.40732284660E+03  0.25500000000E-02 0.  1.
          2   -1    0    0  501    0  0.00000000000E+00 -0.00000000000E+00 -0.10882821551E+04  0.10882821551E+04  0.25500000000E-02 0. -1.
    8880022    1    1    2    0    0  0.17866915333E+02  0.39791008891E+03 -0.91455073526E+03  0.10091810372E+04  0.15294330000E+03 0.  0.
    8880022    1    1    2    0    0 -0.17866915333E+02 -0.39791008891E+03  0.23359142677E+03  0.48642396445E+03  0.15294330000E+03 0.  0.
<mgrwt>
<rscale>  0 0.42666535E+03</rscale>
<asrwt>0</asrwt>
<pdfrwt beam="1">  1        2 0.16742802E+00 0.42666535E+03</pdfrwt>
<pdfrwt beam="2">  1       -2 0.62665054E-01 0.42666535E+03</pdfrwt>
<totfact> 0.55200920E+01</totfact>
</mgrwt>
</event>
<event>
 4    1  0.5387657E-008  0.3283285E+03  0.7818608E-02  0.1071879E+00
          2   -1    0    0  501    0  0.00000000000E+00  0.00000000000E+00  0.11926271197E+04  0.11926271197E+04  0.25500000000E-02 0. -1.
         -2   -1    0    0    0  501 -0.00000000000E+00 -0.00000000000E+00 -0.98956187705E+03  0.98956187705E+03  0.25500000000E-02 0.  1.
    8880022    1    1    2    0    0  0.26114955953E+03  0.12731397449E+03 -0.93853755899E+03  0.99430998345E+03  0.15294330000E+03 0.  0.
    8880022    1    1    2    0    0 -0.26114955953E+03 -0.12731397449E+03  0.11416028016E+04  0.11878790133E+04  0.15294330000E+03 0. -1.
<mgrwt>
<rscale>  0 0.32832848E+03</rscale>
<asrwt>0</asrwt>
<pdfrwt beam="1">  1        2 0.18348109E+00 0.32832848E+03</pdfrwt>
<pdfrwt beam="2">  1       -2 0.15224029E+00 0.32832848E+03</pdfrwt>
<totfact> 0.61433778E+00</totfact>
</mgrwt>
</event>
<event>
 4    1  0.5387657E-008  0.6826676E+03  0.7818608E-02  0.9747341E-01
          2   -1    0    0  501    0  0.00000000000E+00  0.00000000000E+00  0.10002154195E+04  0.10002154195E+04  0.25500000000E-02 0. -1.
         -2   -1    0    0    0  501 -0.00000000000E+00 -0.00000000000E+00 -0.73384343946E+03  0.73384343946E+03  0.25500000000E-02 0.  1.
    8880022    1    1    2    0    0 -0.35163613506E+03  0.56479679822E+03  0.65705847710E+03  0.94750244860E+03  0.15294330000E+03 0.  0.
    8880022    1    1    2    0    0  0.35163613506E+03 -0.56479679822E+03 -0.39068649703E+03  0.78655641039E+03  0.15294330000E+03 0.  0.
<mgrwt>
<rscale>  0 0.68266760E+03</rscale>
<asrwt>0</asrwt>
<pdfrwt beam="1">  1        2 0.15387929E+00 0.68266760E+03</pdfrwt>
<pdfrwt beam="2">  1       -2 0.11289899E+00 0.68266760E+03</pdfrwt>
<totfact> 0.15913867E+01</totfact>
</mgrwt>
</event>
<event>
 4    1  0.5387657E-008  0.5387681E+03  0.7818608E-02  0.1004128E+00
          2   -1    0    0  501    0  0.00000000000E+00  0.00000000000E+00  0.37529368780E+04  0.37529368780E+04  0.25500000000E-02 0. -1.
         -2   -1    0    0    0  501 -0.00000000000E+00 -0.00000000000E+00 -0.11452362917E+03  0.11452362920E+03  0.25500000000E-02 0.  1.
    8880022    1    1    2    0    0  0.21220616812E+03  0.47100742257E+03  0.29209861964E+04  0.29702578108E+04  0.15294330000E+03 0.  0.
    8880022    1    1    2    0    0 -0.21220616812E+03 -0.47100742257E+03  0.71742705247E+03  0.89720269646E+03  0.15294330000E+03 0.  0.
<mgrwt>
<rscale>  0 0.53876813E+03</rscale>
<asrwt>0</asrwt>
<pdfrwt beam="1">  1        2 0.57737493E+00 0.53876813E+03</pdfrwt>
<pdfrwt beam="2">  1       -2 0.17619019E-01 0.53876813E+03</pdfrwt>
<totfact> 0.16181007E+01</totfact>
</mgrwt>
</event>
<event>
 4    1  0.5387657E-008  0.9651770E+03  0.7818608E-02  0.9347585E-01
         -2   -1    0    0    0  501 -0.00000000000E+00  0.00000000000E+00  0.37877460205E+03  0.37877460205E+03  0.25500000000E-02 0.  1.
          2   -1    0    0  501    0  0.00000000000E+00 -0.00000000000E+00 -0.28157372517E+04  0.28157372517E+04  0.25500000000E-02 0. -1.
    8880022    1    1    2    0    0 -0.15433450263E+03  0.94040193687E+03 -0.17866740158E+04  0.20307069294E+04  0.15294330000E+03 0.  0.
    8880022    1    1    2    0    0  0.15433450263E+03 -0.94040193687E+03 -0.65028863392E+03  0.11638049244E+04  0.15294330000E+03 0.  0.
<mgrwt>
<rscale>  0 0.96517698E+03</rscale>
<asrwt>0</asrwt>
<pdfrwt beam="1">  1        2 0.43319033E+00 0.96517698E+03</pdfrwt>
<pdfrwt beam="2">  1       -2 0.58273017E-01 0.96517698E+03</pdfrwt>
<totfact> 0.63770773E+00</totfact>
</mgrwt>
</event>
<event>
 4    1  0.5387657E-008  0.3372785E+03  0.7818608E-02  0.1067961E+00
          2   -1    0    0  501    0  0.00000000000E+00  0.00000000000E+00  0.98206384634E+03  0.98206384634E+03  0.25500000000E-02 0. -1.
         -2   -1    0    0    0  501 -0.00000000000E+00 -0.00000000000E+00 -0.19358913981E+03  0.19358913983E+03  0.25500000000E-02 0.  1.
    8880022    1    1    2    0    0 -0.26126988112E+03  0.14867131908E+03  0.76677668356E+03  0.83767729309E+03  0.15294330000E+03 0. -1.
    8880022    1    1    2    0    0  0.26126988112E+03 -0.14867131908E+03  0.21698022962E+02  0.33797569308E+03  0.15294330000E+03 0.  1.
<mgrwt>
<rscale>  0 0.33727847E+03</rscale>
<asrwt>0</asrwt>
<pdfrwt beam="1">  1        2 0.15108674E+00 0.33727847E+03</pdfrwt>
<pdfrwt beam="2">  1       -2 0.29782945E-01 0.33727847E+03</pdfrwt>
<totfact> 0.27931391E+02</totfact>
</mgrwt>
</event>
<event>
 4    1  0.7809867E-008  0.1174054E+04  0.7818608E-02  0.9135875E-01
          2   -1    0    0  501    0  0.00000000000E+00  0.00000000000E+00  0.17280147895E+04  0.17280147895E+04  0.25500000000E-02 0. -1.
         -2   -1    0    0    0  501 -0.00000000000E+00 -0.00000000000E+00 -0.19946621421E+04  0.19946621421E+04  0.25500000000E-02 0.  1.
    8880022    1    1    2    0    0 -0.11426757474E+04  0.22204368015E+03  0.13085742180E+04  0.17580584167E+04  0.15294330000E+03 0.  0.
    8880022    1    1    2    0    0  0.11426757474E+04 -0.22204368015E+03 -0.15752215705E+04  0.19646185149E+04  0.15294330000E+03 0.  0.
<mgrwt>
<rscale>  0 0.11740541E+04</rscale>
<asrwt>0</asrwt>
<pdfrwt beam="1">  1        2 0.26584843E+00 0.11740541E+04</pdfrwt>
<pdfrwt beam="2">  1       -2 0.30687110E+00 0.11740541E+04</pdfrwt>
<totfact> 0.26749823E-01</totfact>
</mgrwt>
</event>
<event>
 4    1  0.5387657E-008  0.1046776E+04  0.7818608E-02  0.9258679E-01
          2   -1    0    0  501    0  0.00000000000E+00  0.00000000000E+00  0.35878673814E+04  0.35878673814E+04  0.25500000000E-02 0. -1.
         -2   -1    0    0    0  501 -0.00000000000E+00 -0.00000000000E+00 -0.35800228426E+03  0.35800228427E+03  0.25500000000E-02 0.  1.
    8880022    1    1    2    0    0 -0.44342693424E+03 -0.93579999895E+03  0.85868288331E+03  0.13539117516E+04  0.15294330000E+03 0.  0.
    8880022    1    1    2    0    0  0.44342693424E+03  0.93579999895E+03  0.23711822138E+04  0.25919579141E+04  0.15294330000E+03 0.  0.
<mgrwt>
<rscale>  0 0.10467764E+04</rscale>
<asrwt>0</asrwt>
<pdfrwt beam="1">  1        2 0.55197959E+00 0.10467764E+04</pdfrwt>
<pdfrwt beam="2">  1       -2 0.55077275E-01 0.10467764E+04</pdfrwt>
<totfact> 0.22532426E+00</totfact>
</mgrwt>
</event>
<event>
 4    1  0.5387657E-008  0.2415149E+03  0.7818608E-02  0.1118788E+00
          2   -1    0    0  501    0  0.00000000000E+00  0.00000000000E+00  0.24250482000E+04  0.24250482000E+04  0.25500000000E-02 0. -1.
         -2   -1    0    0    0  501 -0.00000000000E+00 -0.00000000000E+00 -0.12483249727E+03  0.12483249729E+03  0.25500000000E-02 0.  1.
    8880022    1    1    2    0    0 -0.16573543382E+03 -0.86426638583E+02  0.22956533354E+04  0.23083227000E+04  0.15294330000E+03 0.  0.
    8880022    1    1    2    0    0  0.16573543382E+03  0.86426638583E+02  0.45623673787E+01  0.24155799737E+03  0.15294330000E+03 0.  1.
<mgrwt>
<rscale>  0 0.24151491E+03</rscale>
<asrwt>0</asrwt>
<pdfrwt beam="1">  1        2 0.37308428E+00 0.24151491E+03</pdfrwt>
<pdfrwt beam="2">  1       -2 0.19205003E-01 0.24151491E+03</pdfrwt>
<totfact> 0.10104730E+02</totfact>
</mgrwt>
</event>
<event>
 4    1  0.5387657E-008  0.8720903E+03  0.7818608E-02  0.9461159E-01
          2   -1    0    0  501    0  0.00000000000E+00  0.00000000000E+00  0.38011444011E+04  0.38011444011E+04  0.25500000000E-02 0. -1.
         -2   -1    0    0    0  501 -0.00000000000E+00 -0.00000000000E+00 -0.31386699928E+03  0.31386699929E+03  0.25500000000E-02 0.  1.
    8880022    1    1    2    0    0  0.65509666463E+03  0.55497579679E+03  0.29824646571E+04  0.31073520654E+04  0.15294330000E+03 0.  0.
    8880022    1    1    2    0    0 -0.65509666463E+03 -0.55497579679E+03  0.50481274477E+03  0.10076593350E+04  0.15294330000E+03 0.  0.
<mgrwt>
<rscale>  0 0.87209026E+03</rscale>
<asrwt>0</asrwt>
<pdfrwt beam="1">  1        2 0.58479146E+00 0.87209026E+03</pdfrwt>
<pdfrwt beam="2">  1       -2 0.48287229E-01 0.87209026E+03</pdfrwt>
<totfact> 0.21344342E+00</totfact>
</mgrwt>
</event>
<event>
 4    1  0.5623965E-008  0.7926510E+03  0.7818608E-02  0.9570716E-01
         -2   -1    0    0    0  501 -0.00000000000E+00  0.00000000000E+00  0.13677673914E+04  0.13677673914E+04  0.25500000000E-02 0.  1.
          2   -1    0    0  501    0  0.00000000000E+00 -0.00000000000E+00 -0.15781267598E+04  0.15781267598E+04  0.25500000000E-02 0. -1.
    8880022    1    1    2    0    0  0.73938960295E+03 -0.24126106050E+03  0.11350047453E+04  0.13843884242E+04  0.15294330000E+03 0.  0.
    8880022    1    1    2    0    0 -0.73938960295E+03  0.24126106050E+03 -0.13453641136E+04  0.15615057270E+04  0.15294330000E+03 0. -1.
<mgrwt>
<rscale>  0 0.79265096E+03</rscale>
<asrwt>0</asrwt>
<pdfrwt beam="1">  1        2 0.24278873E+00 0.79265096E+03</pdfrwt>
<pdfrwt beam="2">  1       -2 0.21042575E+00 0.79265096E+03</pdfrwt>
<totfact> 0.13414634E+00</totfact>
</mgrwt>
</event>
<event>
 4    1  0.5387657E-008  0.4243007E+03  0.7818608E-02  0.1035676E+00
          2   -1    0    0  501    0  0.00000000000E+00  0.00000000000E+00  0.13254652489E+04  0.13254652489E+04  0.25500000000E-02 0. -1.
         -2   -1    0    0    0  501 -0.00000000000E+00 -0.00000000000E+00 -0.46658461116E+03  0.46658461117E+03  0.25500000000E-02 0.  1.
    8880022    1    1    2    0    0 -0.33136769289E+03  0.21641372933E+03 -0.32497627123E+03  0.53445362755E+03  0.15294330000E+03 0.  0.
    8880022    1    1    2    0    0  0.33136769289E+03 -0.21641372933E+03  0.11838569090E+04  0.12575962326E+04  0.15294330000E+03 0.  0.
<mgrwt>
<rscale>  0 0.42430072E+03</rscale>
<asrwt>0</asrwt>
<pdfrwt beam="1">  1        2 0.20391773E+00 0.42430072E+03</pdfrwt>
<pdfrwt beam="2">  1       -2 0.71782249E-01 0.42430072E+03</pdfrwt>
<totfact> 0.30064249E+01</totfact>
</mgrwt>
</event>
<event>
 4    1  0.5387657E-008  0.6183763E+03  0.7818608E-02  0.9867998E-01
          2   -1    0    0  501    0  0.00000000000E+00  0.00000000000E+00  0.10346722464E+04  0.10346722464E+04  0.25500000000E-02 0. -1.
         -2   -1    0    0    0  501 -0.00000000000E+00 -0.00000000000E+00 -0.45948622912E+03  0.45948622912E+03  0.25500000000E-02 0.  1.
    8880022    1    1    2    0    0 -0.59774017241E+03 -0.41283269953E+02 -0.42880561048E+02  0.61986128901E+03  0.15294330000E+03 0.  0.
    8880022    1    1    2    0    0  0.59774017241E+03  0.41283269953E+02  0.61806657836E+03  0.87429718654E+03  0.15294330000E+03 0.  0.
<mgrwt>
<rscale>  0 0.61837632E+03</rscale>
<asrwt>0</asrwt>
<pdfrwt beam="1">  1        2 0.15918034E+00 0.61837632E+03</pdfrwt>
<pdfrwt beam="2">  1       -2 0.70690190E-01 0.61837632E+03</pdfrwt>
<totfact> 0.44832744E+01</totfact>
</mgrwt>
</event>
<event>
 4    1  0.5387657E-008  0.1683803E+03  0.7818608E-02  0.1179548E+00
         -2   -1    0    0    0  501 -0.00000000000E+00  0.00000000000E+00  0.21564981399E+02  0.21564981550E+02  0.25500000000E-02 0.  1.
          2   -1    0    0  501    0  0.00000000000E+00 -0.00000000000E+00 -0.16313503908E+04  0.16313503908E+04  0.25500000000E-02 0. -1.
    8880022    1    1    2    0    0 -0.38700772705E+02 -0.58843141138E+02 -0.11689947485E+04  0.11810591179E+04  0.15294330000E+03 0.  0.
    8880022    1    1    2    0    0  0.38700772705E+02  0.58843141138E+02 -0.44079066099E+03  0.47185625449E+03  0.15294330000E+03 0.  1.
<mgrwt>
<rscale>  0 0.16838028E+03</rscale>
<asrwt>0</asrwt>
<pdfrwt beam="1">  1        2 0.25097689E+00 0.16838028E+03</pdfrwt>
<pdfrwt beam="2">  1       -2 0.33176907E-02 0.16838028E+03</pdfrwt>
<totfact> 0.42071874E+03</totfact>
</mgrwt>
</event>
<event>
 4    1  0.5387657E-008  0.9159467E+03  0.7818608E-02  0.9405864E-01
          2   -1    0    0  501    0  0.00000000000E+00  0.00000000000E+00  0.15526991851E+04  0.15526991851E+04  0.25500000000E-02 0. -1.
         -2   -1    0    0    0  501 -0.00000000000E+00 -0.00000000000E+00 -0.95311360578E+03  0.95311360578E+03  0.25500000000E-02 0.  1.
    8880022    1    1    2    0    0  0.66569389124E+03 -0.61026089971E+03 -0.52474664910E+03  0.10556123442E+04  0.15294330000E+03 0.  0.
    8880022    1    1    2    0    0 -0.66569389124E+03  0.61026089971E+03  0.11243322284E+04  0.14502004466E+04  0.15294330000E+03 0.  0.
<mgrwt>
<rscale>  0 0.91594671E+03</rscale>
<asrwt>0</asrwt>
<pdfrwt beam="1">  1        2 0.23887680E+00 0.91594671E+03</pdfrwt>
<pdfrwt beam="2">  1       -2 0.14663286E+00 0.91594671E+03</pdfrwt>
<totfact> 0.37847073E+00</totfact>
</mgrwt>
</event>
<event>
 4    1  0.5387657E-008  0.5839490E+03  0.7818608E-02  0.9939278E-01
          2   -1    0    0  501    0  0.00000000000E+00  0.00000000000E+00  0.15010671058E+04  0.15010671058E+04  0.25500000000E-02 0. -1.
         -2   -1    0    0    0  501 -0.00000000000E+00 -0.00000000000E+00 -0.62648102865E+03  0.62648102866E+03  0.25500000000E-02 0.  1.
    8880022    1    1    2    0    0 -0.54446660817E+03  0.14546804206E+03  0.12865740689E+04  0.14128939544E+04  0.15294330000E+03 0.  0.
    8880022    1    1    2    0    0  0.54446660817E+03 -0.14546804206E+03 -0.41198799175E+03  0.71465418003E+03  0.15294330000E+03 0.  0.
<mgrwt>
<rscale>  0 0.58394905E+03</rscale>
<asrwt>0</asrwt>
<pdfrwt beam="1">  1        2 0.23093340E+00 0.58394905E+03</pdfrwt>
<pdfrwt beam="2">  1       -2 0.96381698E-01 0.58394905E+03</pdfrwt>
<totfact> 0.11998010E+01</totfact>
</mgrwt>
</event>
<event>
 4    1  0.5387657E-008  0.2240907E+03  0.7818608E-02  0.1130870E+00
          2   -1    0    0  501    0  0.00000000000E+00  0.00000000000E+00  0.22356665508E+04  0.22356665508E+04  0.25500000000E-02 0. -1.
         -2   -1    0    0    0  501 -0.00000000000E+00 -0.00000000000E+00 -0.67134373035E+02  0.67134373084E+02  0.25500000000E-02 0.  1.
    8880022    1    1    2    0    0  0.10627911547E+03 -0.12461838325E+03  0.20235035221E+04  0.20358740504E+04  0.15294330000E+03 0.  0.
    8880022    1    1    2    0    0 -0.10627911547E+03  0.12461838325E+03  0.14502865559E+03  0.26692687348E+03  0.15294330000E+03 0.  0.
<mgrwt>
<rscale>  0 0.22409071E+03</rscale>
<asrwt>0</asrwt>
<pdfrwt beam="1">  1        2 0.34394869E+00 0.22409071E+03</pdfrwt>
<pdfrwt beam="2">  1       -2 0.10328366E-01 0.22409071E+03</pdfrwt>
<totfact> 0.35593309E+02</totfact>
</mgrwt>
</event>
<event>
 4    1  0.5387657E-008  0.9941462E+03  0.7818608E-02  0.9314988E-01
         -2   -1    0    0    0  501 -0.00000000000E+00  0.00000000000E+00  0.16345808851E+04  0.16345808851E+04  0.25500000000E-02 0.  1.
          2   -1    0    0  501    0  0.00000000000E+00 -0.00000000000E+00 -0.13645645198E+04  0.13645645198E+04  0.25500000000E-02 0. -1.
    8880022    1    1    2    0    0  0.41973281986E+03  0.88812131414E+03 -0.98406066380E+03  0.13988217012E+04  0.15294330000E+03 0.  0.
    8880022    1    1    2    0    0 -0.41973281986E+03 -0.88812131414E+03  0.12540770291E+04  0.16003237037E+04  0.15294330000E+03 0.  0.
<mgrwt>
<rscale>  0 0.99414625E+03</rscale>
<asrwt>0</asrwt>
<pdfrwt beam="1">  1        2 0.20993300E+00 0.99414625E+03</pdfrwt>
<pdfrwt beam="2">  1       -2 0.25147398E+00 0.99414625E+03</pdfrwt>
<totfact> 0.95299702E-01</totfact>
</mgrwt>
</event>
<event>
 4    1  0.5387657E-008  0.3566267E+03  0.7818608E-02  0.1059928E+00
         -2   -1    0    0    0  501 -0.00000000000E+00  0.00000000000E+00  0.15277470014E+03  0.15277470016E+03  0.25500000000E-02 0.  1.
          2   -1    0    0  501    0  0.00000000000E+00 -0.00000000000E+00 -0.23488021987E+04  0.23488021987E+04  0.25500000000E-02 0. -1.
    8880022    1    1    2    0    0  0.71154304044E+02 -0.31421011384E+03 -0.21029898382E+04  0.21330140279E+04  0.15294330000E+03 0. -1.
    8880022    1    1    2    0    0 -0.71154304044E+02  0.31421011384E+03 -0.93037660419E+02  0.36856287102E+03  0.15294330000E+03 0.  0.
<mgrwt>
<rscale>  0 0.35662667E+03</rscale>
<asrwt>0</asrwt>
<pdfrwt beam="1">  1        2 0.36135416E+00 0.35662667E+03</pdfrwt>
<pdfrwt beam="2">  1       -2 0.23503802E-01 0.35662667E+03</pdfrwt>
<totfact> 0.75556925E+01</totfact>
</mgrwt>
</event>
<event>
 4    1  0.5387657E-008  0.1180009E+04  0.7818608E-02  0.9130537E-01
          2   -1    0    0  501    0  0.00000000000E+00  0.00000000000E+00  0.26863203160E+04  0.26863203160E+04  0.25500000000E-02 0. -1.
         -2   -1    0    0    0  501 -0.00000000000E+00 -0.00000000000E+00 -0.81356804569E+03  0.81356804570E+03  0.25500000000E-02 0.  1.
    8880022    1    1    2    0    0  0.66617140221E+03  0.96189683741E+03 -0.11778654391E+03  0.11858731744E+04  0.15294330000E+03 0.  0.
    8880022    1    1    2    0    0 -0.66617140221E+03 -0.96189683741E+03  0.19905388142E+04  0.23140151873E+04  0.15294330000E+03 0.  0.
<mgrwt>
<rscale>  0 0.11800091E+04</rscale>
<asrwt>0</asrwt>
<pdfrwt beam="1">  1        2 0.41328005E+00 0.11800091E+04</pdfrwt>
<pdfrwt beam="2">  1       -2 0.12516431E+00 0.11800091E+04</pdfrwt>
<totfact> 0.12737935E+00</totfact>
</mgrwt>
</event>
<event>
 4    1  0.5387657E-008  0.2171264E+03  0.7818608E-02  0.1136044E+00
         -2   -1    0    0    0  501 -0.00000000000E+00  0.00000000000E+00  0.41887644410E+03  0.41887644410E+03  0.25500000000E-02 0.  1.
          2   -1    0    0  501    0  0.00000000000E+00 -0.00000000000E+00 -0.16753156079E+03  0.16753156081E+03  0.25500000000E-02 0. -1.
    8880022    1    1    2    0    0  0.36543533018E+01 -0.15407426130E+03  0.29364421907E+03  0.36519968881E+03  0.15294330000E+03 0.  1.
    8880022    1    1    2    0    0 -0.36543533018E+01  0.15407426130E+03 -0.42299335766E+02  0.22120831611E+03  0.15294330000E+03 0.  0.
<mgrwt>
<rscale>  0 0.21712643E+03</rscale>
<asrwt>0</asrwt>
<pdfrwt beam="1">  1        2 0.25774086E-01 0.21712643E+03</pdfrwt>
<pdfrwt beam="2">  1       -2 0.64442530E-01 0.21712643E+03</pdfrwt>
<totfact> 0.47386657E+02</totfact>
</mgrwt>
</event>
<event>
 4    1  0.5387657E-008  0.1553149E+03  0.7818608E-02  0.1194090E+00
          2   -1    0    0  501    0  0.00000000000E+00  0.00000000000E+00  0.11039605991E+04  0.11039605991E+04  0.25500000000E-02 0. -1.
         -2   -1    0    0    0  501 -0.00000000000E+00 -0.00000000000E+00 -0.65137169177E+02  0.65137169227E+02  0.25500000000E-02 0.  1.
    8880022    1    1    2    0    0 -0.10059877276E+02 -0.25097002989E+02  0.99593118581E+03  0.10079690673E+04  0.15294330000E+03 0. -1.
    8880022    1    1    2    0    0  0.10059877276E+02  0.25097002989E+02  0.42892244132E+02  0.16112870108E+03  0.15294330000E+03 0.  0.
<mgrwt>
<rscale>  0 0.15531489E+03</rscale>
<asrwt>0</asrwt>
<pdfrwt beam="1">  1        2 0.16984009E+00 0.15531489E+03</pdfrwt>
<pdfrwt beam="2">  1       -2 0.10021103E-01 0.15531489E+03</pdfrwt>
<totfact> 0.15036314E+03</totfact>
</mgrwt>
</event>
<event>
 4    1  0.5387657E-008  0.5241995E+03  0.7818608E-02  0.1007649E+00
          2   -1    0    0  501    0  0.00000000000E+00  0.00000000000E+00  0.12511314750E+04  0.12511314750E+04  0.25500000000E-02 0. -1.
         -2   -1    0    0    0  501 -0.00000000000E+00 -0.00000000000E+00 -0.49369513751E+03  0.49369513752E+03  0.25500000000E-02 0.  1.
    8880022    1    1    2    0    0 -0.36991300208E+03  0.33846389395E+03  0.10287286110E+04  0.11545854861E+04  0.15294330000E+03 0.  0.
    8880022    1    1    2    0    0  0.36991300208E+03 -0.33846389395E+03 -0.27129227352E+03  0.59024112641E+03  0.15294330000E+03 0.  0.
<mgrwt>
<rscale>  0 0.52419948E+03</rscale>
<asrwt>0</asrwt>
<pdfrwt beam="1">  1        2 0.19248176E+00 0.52419948E+03</pdfrwt>
<pdfrwt beam="2">  1       -2 0.75953099E-01 0.52419948E+03</pdfrwt>
<totfact> 0.28774343E+01</totfact>
</mgrwt>
</event>
<event>
 4    1  0.5387657E-008  0.1281175E+04  0.7818608E-02  0.9044628E-01
         -2   -1    0    0    0  501 -0.00000000000E+00  0.00000000000E+00  0.15151222402E+04  0.15151222402E+04  0.25500000000E-02 0.  1.
          2   -1    0    0  501    0  0.00000000000E+00 -0.00000000000E+00 -0.20094329533E+04  0.20094329533E+04  0.25500000000E-02 0. -1.
    8880022    1    1    2    0    0 -0.98271925842E+01 -0.12719757591E+04 -0.14435158399E+04  0.19300643872E+04  0.15294330000E+03 0.  0.
    8880022    1    1    2    0    0  0.98271925842E+01  0.12719757591E+04  0.94920512681E+03  0.15944908063E+04  0.15294330000E+03 0.  0.
<mgrwt>
<rscale>  0 0.12811755E+04</rscale>
<asrwt>0</asrwt>
<pdfrwt beam="1">  1        2 0.30914353E+00 0.12811755E+04</pdfrwt>
<pdfrwt beam="2">  1       -2 0.23309573E+00 0.12811755E+04</pdfrwt>
<totfact> 0.51919047E-01</totfact>
</mgrwt>
</event>
<event>
 4    1  0.5387657E-008  0.7662242E+03  0.7818608E-02  0.9610235E-01
         -2   -1    0    0    0  501 -0.00000000000E+00  0.00000000000E+00  0.45681769929E+03  0.45681769930E+03  0.25500000000E-02 0.  1.
          2   -1    0    0  501    0  0.00000000000E+00 -0.00000000000E+00 -0.21494315461E+04  0.21494315461E+04  0.25500000000E-02 0. -1.
    8880022    1    1    2    0    0 -0.42988591111E+03  0.61555338964E+03 -0.16726123773E+04  0.18397640310E+04  0.15294330000E+03 0.  0.
    8880022    1    1    2    0    0  0.42988591111E+03 -0.61555338964E+03 -0.20001469499E+02  0.76648521438E+03  0.15294330000E+03 0.  0.
<mgrwt>
<rscale>  0 0.76622420E+03</rscale>
<asrwt>0</asrwt>
<pdfrwt beam="1">  1        2 0.33068177E+00 0.76622420E+03</pdfrwt>
<pdfrwt beam="2">  1       -2 0.70279647E-01 0.76622420E+03</pdfrwt>
<totfact> 0.10529594E+01</totfact>
</mgrwt>
</event>
<event>
 4    1  0.5387657E-008  0.4260860E+03  0.7818608E-02  0.1035104E+00
         -2   -1    0    0    0  501 -0.00000000000E+00  0.00000000000E+00  0.22032175736E+03  0.22032175737E+03  0.25500000000E-02 0.  1.
          2   -1    0    0  501    0  0.00000000000E+00 -0.00000000000E+00 -0.88932072508E+03  0.88932072508E+03  0.25500000000E-02 0. -1.
    8880022    1    1    2    0    0  0.30541877544E+03 -0.25470964322E+03 -0.18415529052E+03  0.46417933472E+03  0.15294330000E+03 0.  0.
    8880022    1    1    2    0    0 -0.30541877544E+03  0.25470964322E+03 -0.48484367721E+03  0.64546314773E+03  0.15294330000E+03 0.  0.
<mgrwt>
<rscale>  0 0.42608601E+03</rscale>
<asrwt>0</asrwt>
<pdfrwt beam="1">  1        2 0.13681857E+00 0.42608601E+03</pdfrwt>
<pdfrwt beam="2">  1       -2 0.33895655E-01 0.42608601E+03</pdfrwt>
<totfact> 0.25010754E+02</totfact>
</mgrwt>
</event>
<event>
 4    1  0.5387657E-008  0.1140552E+04  0.7818608E-02  0.9166544E-01
          2   -1    0    0  501    0  0.00000000000E+00  0.00000000000E+00  0.33556397835E+04  0.33556397835E+04  0.25500000000E-02 0. -1.
         -2   -1    0    0    0  501 -0.00000000000E+00 -0.00000000000E+00 -0.64859348642E+03  0.64859348643E+03  0.25500000000E-02 0.  1.
    8880022    1    1    2    0    0  0.87219292786E+03  0.71885110202E+03  0.26234101519E+04  0.28606187947E+04  0.15294330000E+03 0.  0.
    8880022    1    1    2    0    0 -0.87219292786E+03 -0.71885110202E+03  0.83636145201E+02  0.11436144753E+04  0.15294330000E+03 0.  0.
<mgrwt>
<rscale>  0 0.11405521E+04</rscale>
<asrwt>0</asrwt>
<pdfrwt beam="1">  1        2 0.51625228E+00 0.11405521E+04</pdfrwt>
<pdfrwt beam="2">  1       -2 0.99783613E-01 0.11405521E+04</pdfrwt>
<totfact> 0.85368644E-01</totfact>
</mgrwt>
</event>
<event>
 4    1  0.5387657E-008  0.6298666E+03  0.7818608E-02  0.9845309E-01
         -2   -1    0    0    0  501 -0.00000000000E+00  0.00000000000E+00  0.47942746642E+03  0.47942746643E+03  0.25500000000E-02 0.  1.
          2   -1    0    0  501    0  0.00000000000E+00 -0.00000000000E+00 -0.15291518772E+04  0.15291518772E+04  0.25500000000E-02 0. -1.
    8880022    1    1    2    0    0 -0.43929032811E+03  0.42469321402E+03 -0.12051470938E+04  0.13598203885E+04  0.15294330000E+03 0.  0.
    8880022    1    1    2    0    0  0.43929032811E+03 -0.42469321402E+03  0.15542268300E+03  0.64875895509E+03  0.15294330000E+03 0.  1.
<mgrwt>
<rscale>  0 0.62986663E+03</rscale>
<asrwt>0</asrwt>
<pdfrwt beam="1">  1        2 0.23525413E+00 0.62986663E+03</pdfrwt>
<pdfrwt beam="2">  1       -2 0.73758072E-01 0.62986663E+03</pdfrwt>
<totfact> 0.21083303E+01</totfact>
</mgrwt>
</event>
<event>
 4    1  0.5387657E-008  0.5749680E+03  0.7818608E-02  0.9958745E-01
         -2   -1    0    0    0  501 -0.00000000000E+00  0.00000000000E+00  0.34605145284E+03  0.34605145285E+03  0.25500000000E-02 0.  1.
          2   -1    0    0  501    0  0.00000000000E+00 -0.00000000000E+00 -0.12156526579E+04  0.12156526579E+04  0.25500000000E-02 0. -1.
    8880022    1    1    2    0    0  0.67843775238E+02 -0.55008519274E+03 -0.73446918299E+02  0.57964006067E+03  0.15294330000E+03 0.  0.
    8880022    1    1    2    0    0 -0.67843775238E+02  0.55008519274E+03 -0.79615428675E+03  0.98206405007E+03  0.15294330000E+03 0.  0.
<mgrwt>
<rscale>  0 0.57496796E+03</rscale>
<asrwt>0</asrwt>
<pdfrwt beam="1">  1        2 0.18702348E+00 0.57496796E+03</pdfrwt>
<pdfrwt beam="2">  1       -2 0.53238686E-01 0.57496796E+03</pdfrwt>
<totfact> 0.63861098E+01</totfact>
</mgrwt>
</event>
<event>
 4    1  0.5387657E-008  0.4561667E+03  0.7818608E-02  0.1025899E+00
          2   -1    0    0  501    0  0.00000000000E+00  0.00000000000E+00  0.16378917389E+04  0.16378917389E+04  0.25500000000E-02 0. -1.
         -2   -1    0    0    0  501 -0.00000000000E+00 -0.00000000000E+00 -0.29976817854E+03  0.29976817855E+03  0.25500000000E-02 0.  1.
    8880022    1    1    2    0    0 -0.74219699926E+02  0.42330587649E+03  0.14044699906E+04  0.14766936163E+04  0.15294330000E+03 0.  0.
    8880022    1    1    2    0    0  0.74219699926E+02 -0.42330587649E+03 -0.66346430289E+02  0.46096630110E+03  0.15294330000E+03 0.  0.
<mgrwt>
<rscale>  0 0.45616673E+03</rscale>
<asrwt>0</asrwt>
<pdfrwt beam="1">  1        2 0.25198334E+00 0.45616673E+03</pdfrwt>
<pdfrwt beam="2">  1       -2 0.46118181E-01 0.45616673E+03</pdfrwt>
<totfact> 0.50514244E+01</totfact>
</mgrwt>
</event>
<event>
 4    1  0.5387657E-008  0.6659730E+03  0.7818608E-02  0.9777260E-01
         -2   -1    0    0    0  501 -0.00000000000E+00  0.00000000000E+00  0.32787574687E+03  0.32787574688E+03  0.25500000000E-02 0.  1.
          2   -1    0    0  501    0  0.00000000000E+00 -0.00000000000E+00 -0.14156512824E+04  0.14156512824E+04  0.25500000000E-02 0. -1.
    8880022    1    1    2    0    0 -0.62613043574E+03 -0.16759773567E+03 -0.72770956986E+03  0.98644877953E+03  0.15294330000E+03 0.  1.
    8880022    1    1    2    0    0  0.62613043574E+03  0.16759773567E+03 -0.36006596563E+03  0.75707824970E+03  0.15294330000E+03 0. -1.
<mgrwt>
<rscale>  0 0.66597295E+03</rscale>
<asrwt>0</asrwt>
<pdfrwt beam="1">  1        2 0.21779250E+00 0.66597295E+03</pdfrwt>
<pdfrwt beam="2">  1       -2 0.50442423E-01 0.66597295E+03</pdfrwt>
<totfact> 0.54234988E+01</totfact>
</mgrwt>
</event>
<event>
 4    1  0.5387657E-008  0.6671358E+03  0.7818608E-02  0.9775146E-01
          2   -1    0    0  501    0  0.00000000000E+00  0.00000000000E+00  0.19043316008E+04  0.19043316008E+04  0.25500000000E-02 0. -1.
         -2   -1    0    0    0  501 -0.00000000000E+00 -0.00000000000E+00 -0.45635277878E+03  0.45635277879E+03  0.25500000000E-02 0.  1.
    8880022    1    1    2    0    0  0.42801167971E+03  0.48834883194E+03 -0.10044732003E+03  0.67465539110E+03  0.15294330000E+03 0.  0.
    8880022    1    1    2    0    0 -0.42801167971E+03 -0.48834883194E+03  0.15484261421E+04  0.16860289885E+04  0.15294330000E+03 0.  0.
<mgrwt>
<rscale>  0 0.66713584E+03</rscale>
<asrwt>0</asrwt>
<pdfrwt beam="1">  1        2 0.29297410E+00 0.66713584E+03</pdfrwt>
<pdfrwt beam="2">  1       -2 0.70208119E-01 0.66713584E+03</pdfrwt>
<totfact> 0.14583101E+01</totfact>
</mgrwt>
</event>
<event>
 4    1  0.5387657E-008  0.2405081E+03  0.7818608E-02  0.1119455E+00
         -2   -1    0    0    0  501 -0.00000000000E+00  0.00000000000E+00  0.23425468716E+03  0.23425468717E+03  0.25500000000E-02 0.  1.
          2   -1    0    0  501    0  0.00000000000E+00 -0.00000000000E+00 -0.88218890052E+03  0.88218890052E+03  0.25500000000E-02 0. -1.
    8880022    1    1    2    0    0 -0.70746412063E+02  0.17160252422E+03  0.14973129675E+03  0.28330830446E+03  0.15294330000E+03 0.  0.
    8880022    1    1    2    0    0  0.70746412063E+02 -0.17160252422E+03 -0.79766551010E+03  0.83313528323E+03  0.15294330000E+03 0.  0.
<mgrwt>
<rscale>  0 0.24050808E+03</rscale>
<asrwt>0</asrwt>
<pdfrwt beam="1">  1        2 0.13572137E+00 0.24050808E+03</pdfrwt>
<pdfrwt beam="2">  1       -2 0.36039183E-01 0.24050808E+03</pdfrwt>
<totfact> 0.22995740E+02</totfact>
</mgrwt>
</event>
<event>
 4    1  0.5387657E-008  0.5777262E+03  0.7818608E-02  0.9952726E-01
          2   -1    0    0  501    0  0.00000000000E+00  0.00000000000E+00  0.11319621530E+04  0.11319621530E+04  0.25500000000E-02 0. -1.
         -2   -1    0    0    0  501 -0.00000000000E+00 -0.00000000000E+00 -0.50348259381E+03  0.50348259381E+03  0.25500000000E-02 0.  1.
    8880022    1    1    2    0    0  0.23360179336E+03  0.50577281714E+03  0.84061673132E+03  0.10200020012E+04  0.15294330000E+03 0.  0.
    8880022    1    1    2    0    0 -0.23360179336E+03 -0.50577281714E+03 -0.21213717208E+03  0.61544274568E+03  0.15294330000E+03 0.  0.
<mgrwt>
<rscale>  0 0.57772623E+03</rscale>
<asrwt>0</asrwt>
<pdfrwt beam="1">  1        2 0.17414802E+00 0.57772623E+03</pdfrwt>
<pdfrwt beam="2">  1       -2 0.77458861E-01 0.57772623E+03</pdfrwt>
<totfact> 0.32119852E+01</totfact>
</mgrwt>
</event>
<event>
 4    1  0.5387657E-008  0.1777983E+03  0.7818608E-02  0.1169951E+00
         -2   -1    0    0    0  501 -0.00000000000E+00  0.00000000000E+00  0.18840449864E+04  0.18840449864E+04  0.25500000000E-02 0.  1.
          2   -1    0    0  501    0  0.00000000000E+00 -0.00000000000E+00 -0.60537236043E+02  0.60537236097E+02  0.25500000000E-02 0. -1.
    8880022    1    1    2    0    0 -0.34368916350E+01  0.90602237731E+02  0.17383918383E+04  0.17474605615E+04  0.15294330000E+03 0.  1.
    8880022    1    1    2    0    0  0.34368916350E+01 -0.90602237731E+02  0.85115912025E+02  0.19712166091E+03  0.15294330000E+03 0.  0.
<mgrwt>
<rscale>  0 0.17779829E+03</rscale>
<asrwt>0</asrwt>
<pdfrwt beam="1">  1        2 0.93134228E-02 0.17779829E+03</pdfrwt>
<pdfrwt beam="2">  1       -2 0.28985302E+00 0.17779829E+03</pdfrwt>
<totfact> 0.30015598E+01</totfact>
</mgrwt>
</event>
<event>
 4    1  0.5387657E-008  0.9392093E+03  0.7818608E-02  0.9377853E-01
         -2   -1    0    0    0  501 -0.00000000000E+00  0.00000000000E+00  0.34700790153E+03  0.34700790154E+03  0.25500000000E-02 0.  1.
          2   -1    0    0  501    0  0.00000000000E+00 -0.00000000000E+00 -0.31758679342E+04  0.31758679342E+04  0.25500000000E-02 0. -1.
    8880022    1    1    2    0    0  0.66077389228E+03 -0.64969249467E+03 -0.22013231007E+04  0.23933109955E+04  0.15294330000E+03 0.  0.
    8880022    1    1    2    0    0 -0.66077389228E+03  0.64969249467E+03 -0.62753693191E+03  0.11295648402E+04  0.15294330000E+03 0.  0.
<mgrwt>
<rscale>  0 0.93920931E+03</rscale>
<asrwt>0</asrwt>
<pdfrwt beam="1">  1        2 0.48859505E+00 0.93920931E+03</pdfrwt>
<pdfrwt beam="2">  1       -2 0.53385833E-01 0.93920931E+03</pdfrwt>
<totfact> 0.46120158E+00</totfact>
</mgrwt>
</event>
<event>
 4    1  0.5387657E-008  0.5653170E+03  0.7818608E-02  0.9980095E-01
         -2   -1    0    0    0  501 -0.00000000000E+00  0.00000000000E+00  0.49038993413E+03  0.49038993414E+03  0.25500000000E-02 0.  1.
          2   -1    0    0  501    0  0.00000000000E+00 -0.00000000000E+00 -0.73822139132E+03  0.73822139132E+03  0.25500000000E-02 0. -1.
    8880022    1    1    2    0    0 -0.36963109878E+03  0.39945530117E+03 -0.33423172174E+03  0.65672991682E+03  0.15294330000E+03 0.  0.
    8880022    1    1    2    0    0  0.36963109878E+03 -0.39945530117E+03  0.86400264552E+02  0.57188140864E+03  0.15294330000E+03 0.  0.
<mgrwt>
<rscale>  0 0.56531703E+03</rscale>
<asrwt>0</asrwt>
<pdfrwt beam="1">  1        2 0.11357252E+00 0.56531703E+03</pdfrwt>
<pdfrwt beam="2">  1       -2 0.75444605E-01 0.56531703E+03</pdfrwt>
<totfact> 0.62052544E+01</totfact>
</mgrwt>
</event>
<event>
 4    1  0.5387657E-008  0.1191462E+04  0.7818608E-02  0.9120363E-01
         -2   -1    0    0    0  501 -0.00000000000E+00  0.00000000000E+00  0.54141387994E+03  0.54141387994E+03  0.25500000000E-02 0.  1.
          2   -1    0    0  501    0  0.00000000000E+00 -0.00000000000E+00 -0.33057002006E+04  0.33057002006E+04  0.25500000000E-02 0. -1.
    8880022    1    1    2    0    0  0.11530083428E+04 -0.25838389736E+03 -0.50734238171E+03  0.12949820162E+04  0.15294330000E+03 0.  0.
    8880022    1    1    2    0    0 -0.11530083428E+04  0.25838389736E+03 -0.22569439389E+04  0.25521320643E+04  0.15294330000E+03 0.  0.
<mgrwt>
<rscale>  0 0.11914622E+04</rscale>
<asrwt>0</asrwt>
<pdfrwt beam="1">  1        2 0.50856925E+00 0.11914622E+04</pdfrwt>
<pdfrwt beam="2">  1       -2 0.83294445E-01 0.11914622E+04</pdfrwt>
<totfact> 0.13930300E+00</totfact>
</mgrwt>
</event>
<event>
 4    1  0.5387657E-008  0.8282145E+03  0.7818608E-02  0.9520052E-01
         -2   -1    0    0    0  501 -0.00000000000E+00  0.00000000000E+00  0.17442017381E+04  0.17442017381E+04  0.25500000000E-02 0.  1.
          2   -1    0    0  501    0  0.00000000000E+00 -0.00000000000E+00 -0.10807009328E+04  0.10807009328E+04  0.25500000000E-02 0. -1.
    8880022    1    1    2    0    0 -0.12996514817E+03  0.80352759284E+03  0.14582623832E+04  0.16770415509E+04  0.15294330000E+03 0.  0.
    8880022    1    1    2    0    0  0.12996514817E+03 -0.80352759284E+03 -0.79476157783E+03  0.11478611200E+04  0.15294330000E+03 0.  0.
<mgrwt>
<rscale>  0 0.82821446E+03</rscale>
<asrwt>0</asrwt>
<pdfrwt beam="1">  1        2 0.16626168E+00 0.82821446E+03</pdfrwt>
<pdfrwt beam="2">  1       -2 0.26833873E+00 0.82821446E+03</pdfrwt>
<totfact> 0.11392377E+00</totfact>
</mgrwt>
</event>
<event>
 4    1  0.5387657E-008  0.6877580E+03  0.7818608E-02  0.9738400E-01
          2   -1    0    0  501    0  0.00000000000E+00  0.00000000000E+00  0.77115597002E+03  0.77115597002E+03  0.25500000000E-02 0. -1.
         -2   -1    0    0    0  501 -0.00000000000E+00 -0.00000000000E+00 -0.21108328168E+04  0.21108328168E+04  0.25500000000E-02 0.  1.
    8880022    1    1    2    0    0  0.64006870105E+03 -0.19982858016E+03 -0.18835403946E+04  0.20051771679E+04  0.15294330000E+03 0.  0.
    8880022    1    1    2    0    0 -0.64006870105E+03  0.19982858016E+03  0.54386354779E+03  0.87681161896E+03  0.15294330000E+03 0.  0.
<mgrwt>
<rscale>  0 0.68775799E+03</rscale>
<asrwt>0</asrwt>
<pdfrwt beam="1">  1        2 0.11863938E+00 0.68775799E+03</pdfrwt>
<pdfrwt beam="2">  1       -2 0.32474351E+00 0.68775799E+03</pdfrwt>
<totfact> 0.86038923E-01</totfact>
</mgrwt>
</event>
<event>
 4    1  0.5387657E-008  0.3433507E+03  0.7818608E-02  0.1065378E+00
         -2   -1    0    0    0  501 -0.00000000000E+00  0.00000000000E+00  0.51308754826E+03  0.51308754827E+03  0.25500000000E-02 0.  1.
          2   -1    0    0  501    0  0.00000000000E+00 -0.00000000000E+00 -0.17080969186E+04  0.17080969186E+04  0.25500000000E-02 0. -1.
    8880022    1    1    2    0    0  0.30579903687E+03  0.31384970148E+02  0.43569510336E+03  0.55472510617E+03  0.15294330000E+03 0.  0.
    8880022    1    1    2    0    0 -0.30579903687E+03 -0.31384970148E+02 -0.16307044737E+04  0.16664593607E+04  0.15294330000E+03 0.  0.
<mgrwt>
<rscale>  0 0.34335072E+03</rscale>
<asrwt>0</asrwt>
<pdfrwt beam="1">  1        2 0.26278414E+00 0.34335072E+03</pdfrwt>
<pdfrwt beam="2">  1       -2 0.78936547E-01 0.34335072E+03</pdfrwt>
<totfact> 0.15413943E+01</totfact>
</mgrwt>
</event>
<event>
 4    1  0.5387657E-008  0.1415473E+04  0.7818608E-02  0.8942694E-01
          2   -1    0    0  501    0  0.00000000000E+00  0.00000000000E+00  0.19112245822E+04  0.19112245822E+04  0.25500000000E-02 0. -1.
         -2   -1    0    0    0  501 -0.00000000000E+00 -0.00000000000E+00 -0.15542007959E+04  0.15542007959E+04  0.25500000000E-02 0.  1.
    8880022    1    1    2    0    0 -0.91651026802E+03 -0.10677931427E+04 -0.81003970478E+03  0.16308676351E+04  0.15294330000E+03 0.  0.
    8880022    1    1    2    0    0  0.91651026802E+03  0.10677931427E+04  0.11670634911E+04  0.18345577430E+04  0.15294330000E+03 0.  0.
<mgrwt>
<rscale>  0 0.14154734E+04</rscale>
<asrwt>0</asrwt>
<pdfrwt beam="1">  1        2 0.29403455E+00 0.14154734E+04</pdfrwt>
<pdfrwt beam="2">  1       -2 0.23910781E+00 0.14154734E+04</pdfrwt>
<totfact> 0.53164100E-01</totfact>
</mgrwt>
</event>
<event>
 4    1  0.5387657E-008  0.1088490E+04  0.7818608E-02  0.9216483E-01
         -2   -1    0    0    0  501 -0.00000000000E+00  0.00000000000E+00  0.26323496475E+04  0.26323496475E+04  0.25500000000E-02 0.  1.
          2   -1    0    0  501    0  0.00000000000E+00 -0.00000000000E+00 -0.74440564127E+03  0.74440564127E+03  0.25500000000E-02 0. -1.
    8880022    1    1    2    0    0 -0.10290324022E+04 -0.32017460202E+03 -0.11764217729E+03  0.10948291171E+04  0.15294330000E+03 0.  0.
    8880022    1    1    2    0    0  0.10290324022E+04  0.32017460202E+03  0.20055861835E+04  0.22819261717E+04  0.15294330000E+03 0.  0.
<mgrwt>
<rscale>  0 0.10884903E+04</rscale>
<asrwt>0</asrwt>
<pdfrwt beam="1">  1        2 0.11452395E+00 0.10884903E+04</pdfrwt>
<pdfrwt beam="2">  1       -2 0.40497686E+00 0.10884903E+04</pdfrwt>
<totfact> 0.26195177E-01</totfact>
</mgrwt>
</event>
<event>
 4    1  0.5387657E-008  0.2015573E+03  0.7818608E-02  0.1148432E+00
          2   -1    0    0  501    0  0.00000000000E+00  0.00000000000E+00  0.74864866538E+03  0.74864866538E+03  0.25500000000E-02 0. -1.
         -2   -1    0    0    0  501 -0.00000000000E+00 -0.00000000000E+00 -0.71106607607E+03  0.71106607608E+03  0.25500000000E-02 0.  1.
    8880022    1    1    2    0    0  0.99905792705E+02  0.85161679081E+02 -0.68266397965E+03  0.71179733150E+03  0.15294330000E+03 0.  0.
    8880022    1    1    2    0    0 -0.99905792705E+02 -0.85161679081E+02  0.72024656896E+03  0.74791740996E+03  0.15294330000E+03 0. -1.
<mgrwt>
<rscale>  0 0.20155727E+03</rscale>
<asrwt>0</asrwt>
<pdfrwt beam="1">  1        2 0.11517672E+00 0.20155727E+03</pdfrwt>
<pdfrwt beam="2">  1       -2 0.10939478E+00 0.20155727E+03</pdfrwt>
<totfact> 0.27728179E+01</totfact>
</mgrwt>
</event>
<event>
 4    1  0.5387657E-008  0.4546891E+03  0.7818608E-02  0.1026333E+00
          2   -1    0    0  501    0  0.00000000000E+00  0.00000000000E+00  0.80091962076E+03  0.80091962076E+03  0.25500000000E-02 0. -1.
         -2   -1    0    0    0  501 -0.00000000000E+00 -0.00000000000E+00 -0.92962338650E+03  0.92962338650E+03  0.25500000000E-02 0.  1.
    8880022    1    1    2    0    0 -0.28663729989E+03  0.31810311159E+03 -0.79974477270E+03  0.91996406765E+03  0.15294330000E+03 0.  0.
    8880022    1    1    2    0    0  0.28663729989E+03 -0.31810311159E+03  0.67104100696E+03  0.81057893961E+03  0.15294330000E+03 0.  0.
<mgrwt>
<rscale>  0 0.45468911E+03</rscale>
<asrwt>0</asrwt>
<pdfrwt beam="1">  1        2 0.12321840E+00 0.45468911E+03</pdfrwt>
<pdfrwt beam="2">  1       -2 0.14301898E+00 0.45468911E+03</pdfrwt>
<totfact> 0.12365616E+01</totfact>
</mgrwt>
</event>
<event>
 4    1  0.5387657E-008  0.1661015E+04  0.7818608E-02  0.8783916E-01
          2   -1    0    0  501    0  0.00000000000E+00  0.00000000000E+00  0.17677911725E+04  0.17677911725E+04  0.25500000000E-02 0. -1.
         -2   -1    0    0    0  501 -0.00000000000E+00 -0.00000000000E+00 -0.27238826103E+04  0.27238826103E+04  0.25500000000E-02 0.  1.
    8880022    1    1    2    0    0  0.82042110478E+03 -0.14361369779E+04 -0.19456536889E+04  0.25582298838E+04  0.15294330000E+03 0.  0.
    8880022    1    1    2    0    0 -0.82042110478E+03  0.14361369779E+04  0.98956225110E+03  0.19334438989E+04  0.15294330000E+03 0.  0.
<mgrwt>
<rscale>  0 0.16610153E+04</rscale>
<asrwt>0</asrwt>
<pdfrwt beam="1">  1        2 0.27196787E+00 0.16610153E+04</pdfrwt>
<pdfrwt beam="2">  1       -2 0.41905886E+00 0.16610153E+04</pdfrwt>
<totfact> 0.46082134E-02</totfact>
</mgrwt>
</event>
<event>
 4    1  0.5387657E-008  0.4880914E+03  0.7818608E-02  0.1016935E+00
         -2   -1    0    0    0  501 -0.00000000000E+00  0.00000000000E+00  0.54177618493E+03  0.54177618494E+03  0.25500000000E-02 0.  1.
          2   -1    0    0  501    0  0.00000000000E+00 -0.00000000000E+00 -0.57807939518E+03  0.57807939518E+03  0.25500000000E-02 0. -1.
    8880022    1    1    2    0    0  0.43626551014E+03 -0.15656924248E+03 -0.29207737744E+03  0.56880785020E+03  0.15294330000E+03 0.  0.
    8880022    1    1    2    0    0 -0.43626551014E+03  0.15656924248E+03  0.25577416719E+03  0.55104772992E+03  0.15294330000E+03 0. -1.
<mgrwt>
<rscale>  0 0.48809136E+03</rscale>
<asrwt>0</asrwt>
<pdfrwt beam="1">  1        2 0.88935291E-01 0.48809136E+03</pdfrwt>
<pdfrwt beam="2">  1       -2 0.83350183E-01 0.48809136E+03</pdfrwt>
<totfact> 0.67506676E+01</totfact>
</mgrwt>
</event>
<event>
 4    1  0.5387657E-008  0.3479391E+03  0.7818608E-02  0.1063464E+00
          2   -1    0    0  501    0  0.00000000000E+00  0.00000000000E+00  0.74225640776E+03  0.74225640777E+03  0.25500000000E-02 0. -1.
         -2   -1    0    0    0  501 -0.00000000000E+00 -0.00000000000E+00 -0.65459182726E+03  0.65459182726E+03  0.25500000000E-02 0.  1.
    8880022    1    1    2    0    0  0.31246015255E+03 -0.62141622520E+01 -0.56135852647E+03  0.66044304145E+03  0.15294330000E+03 0.  0.
    8880022    1    1    2    0    0 -0.31246015255E+03  0.62141622520E+01  0.64902310697E+03  0.73640519359E+03  0.15294330000E+03 0.  0.
<mgrwt>
<rscale>  0 0.34793910E+03</rscale>
<asrwt>0</asrwt>
<pdfrwt beam="1">  1        2 0.11419329E+00 0.34793910E+03</pdfrwt>
<pdfrwt beam="2">  1       -2 0.10070643E+00 0.34793910E+03</pdfrwt>
<totfact> 0.32878331E+01</totfact>
</mgrwt>
</event>
<event>
 4    1  0.5387657E-008  0.1120116E+04  0.7818608E-02  0.9185804E-01
          2   -1    0    0  501    0  0.00000000000E+00  0.00000000000E+00  0.33127892395E+04  0.33127892395E+04  0.25500000000E-02 0. -1.
         -2   -1    0    0    0  501 -0.00000000000E+00 -0.00000000000E+00 -0.60744879609E+03  0.60744879610E+03  0.25500000000E-02 0.  1.
    8880022    1    1    2    0    0 -0.37290961767E+02  0.11089987820E+04  0.14991771950E+03  0.11301043712E+04  0.15294330000E+03 0.  0.
    8880022    1    1    2    0    0  0.37290961767E+02 -0.11089987820E+04  0.25554227239E+04  0.27901336643E+04  0.15294330000E+03 0.  0.
<mgrwt>
<rscale>  0 0.11201163E+04</rscale>
<asrwt>0</asrwt>
<pdfrwt beam="1">  1        2 0.50965987E+00 0.11201163E+04</pdfrwt>
<pdfrwt beam="2">  1       -2 0.93453663E-01 0.11201163E+04</pdfrwt>
<totfact> 0.10671277E+00</totfact>
</mgrwt>
</event>
<event>
 4    1  0.5387657E-008  0.6174223E+03  0.7818608E-02  0.9869905E-01
          2   -1    0    0  501    0  0.00000000000E+00  0.00000000000E+00  0.13997373114E+04  0.13997373114E+04  0.25500000000E-02 0. -1.
         -2   -1    0    0    0  501 -0.00000000000E+00 -0.00000000000E+00 -0.49116247982E+03  0.49116247982E+03  0.25500000000E-02 0.  1.
    8880022    1    1    2    0    0  0.18215746615E+03 -0.56976955061E+03 -0.17676833347E+03  0.64222844846E+03  0.15294330000E+03 0. -1.
    8880022    1    1    2    0    0 -0.18215746615E+03  0.56976955061E+03  0.10853431650E+04  0.12486713427E+04  0.15294330000E+03 0. -1.
<mgrwt>
<rscale>  0 0.61742233E+03</rscale>
<asrwt>0</asrwt>
<pdfrwt beam="1">  1        2 0.21534420E+00 0.61742233E+03</pdfrwt>
<pdfrwt beam="2">  1       -2 0.75563459E-01 0.61742233E+03</pdfrwt>
<totfact> 0.23632377E+01</totfact>
</mgrwt>
</event>
<event>
 4    1  0.5387657E-008  0.4594951E+03  0.7818608E-02  0.1024928E+00
          2   -1    0    0  501    0  0.00000000000E+00  0.00000000000E+00  0.37503625517E+04  0.37503625517E+04  0.25500000000E-02 0. -1.
         -2   -1    0    0    0  501 -0.00000000000E+00 -0.00000000000E+00 -0.11761254273E+03  0.11761254275E+03  0.25500000000E-02 0.  1.
    8880022    1    1    2    0    0  0.83165044032E+01 -0.43321462474E+03  0.32127776459E+04  0.32454700631E+04  0.15294330000E+03 0.  0.
    8880022    1    1    2    0    0 -0.83165044032E+01  0.43321462474E+03  0.41997236310E+03  0.62250503140E+03  0.15294330000E+03 0.  0.
<mgrwt>
<rscale>  0 0.45949508E+03</rscale>
<asrwt>0</asrwt>
<pdfrwt beam="1">  1        2 0.57697890E+00 0.45949508E+03</pdfrwt>
<pdfrwt beam="2">  1       -2 0.18094236E-01 0.45949508E+03</pdfrwt>
<totfact> 0.15886455E+01</totfact>
</mgrwt>
</event>
<event>
 4    1  0.5387657E-008  0.3309859E+03  0.7818608E-02  0.1070701E+00
         -2   -1    0    0    0  501 -0.00000000000E+00  0.00000000000E+00  0.18938819195E+03  0.18938819197E+03  0.25500000000E-02 0.  1.
          2   -1    0    0  501    0  0.00000000000E+00 -0.00000000000E+00 -0.33578894938E+04  0.33578894938E+04  0.25500000000E-02 0. -1.
    8880022    1    1    2    0    0  0.76555603731E+02 -0.28337119412E+03  0.29403962669E+02  0.33228939218E+03  0.15294330000E+03 0.  0.
    8880022    1    1    2    0    0 -0.76555603731E+02  0.28337119412E+03 -0.31979052645E+04  0.32149882936E+04  0.15294330000E+03 0.  0.
<mgrwt>
<rscale>  0 0.33098587E+03</rscale>
<asrwt>0</asrwt>
<pdfrwt beam="1">  1        2 0.51659834E+00 0.33098587E+03</pdfrwt>
<pdfrwt beam="2">  1       -2 0.29136647E-01 0.33098587E+03</pdfrwt>
<totfact> 0.13292771E+01</totfact>
</mgrwt>
</event>
<event>
 4    1  0.5387657E-008  0.3383913E+03  0.7818608E-02  0.1067483E+00
          2   -1    0    0  501    0  0.00000000000E+00  0.00000000000E+00  0.32236710884E+03  0.32236710885E+03  0.25500000000E-02 0. -1.
         -2   -1    0    0    0  501 -0.00000000000E+00 -0.00000000000E+00 -0.79514931963E+03  0.79514931963E+03  0.25500000000E-02 0.  1.
    8880022    1    1    2    0    0  0.26484091926E+03  0.14483197071E+03  0.17922749681E+03  0.38292448457E+03  0.15294330000E+03 0.  0.
    8880022    1    1    2    0    0 -0.26484091926E+03 -0.14483197071E+03 -0.65200970760E+03  0.73459194392E+03  0.15294330000E+03 0.  0.
<mgrwt>
<rscale>  0 0.33839129E+03</rscale>
<asrwt>0</asrwt>
<pdfrwt beam="1">  1        2 0.49594940E-01 0.33839129E+03</pdfrwt>
<pdfrwt beam="2">  1       -2 0.12233066E+00 0.33839129E+03</pdfrwt>
<totfact> 0.53614013E+01</totfact>
</mgrwt>
</event>
<event>
 4    1  0.5387657E-008  0.6060962E+03  0.7818608E-02  0.9892839E-01
          2   -1    0    0  501    0  0.00000000000E+00  0.00000000000E+00  0.15900943073E+04  0.15900943073E+04  0.25500000000E-02 0. -1.
         -2   -1    0    0    0  501 -0.00000000000E+00 -0.00000000000E+00 -0.47851458309E+03  0.47851458309E+03  0.25500000000E-02 0.  1.
    8880022    1    1    2    0    0  0.55131710828E+03  0.20002591529E+03 -0.18804870544E+03  0.63459821092E+03  0.15294330000E+03 0.  0.
    8880022    1    1    2    0    0 -0.55131710828E+03 -0.20002591529E+03  0.12996284296E+04  0.14340106795E+04  0.15294330000E+03 0.  0.
<mgrwt>
<rscale>  0 0.60609618E+03</rscale>
<asrwt>0</asrwt>
<pdfrwt beam="1">  1        2 0.24462990E+00 0.60609618E+03</pdfrwt>
<pdfrwt beam="2">  1       -2 0.73617628E-01 0.60609618E+03</pdfrwt>
<totfact> 0.19671074E+01</totfact>
</mgrwt>
</event>
<event>
 4    1  0.5387657E-008  0.8949795E+03  0.7818608E-02  0.9431879E-01
          2   -1    0    0  501    0  0.00000000000E+00  0.00000000000E+00  0.12626342103E+04  0.12626342103E+04  0.25500000000E-02 0. -1.
         -2   -1    0    0    0  501 -0.00000000000E+00 -0.00000000000E+00 -0.87683006957E+03  0.87683006957E+03  0.25500000000E-02 0.  1.
    8880022    1    1    2    0    0 -0.51569071460E+03  0.71530392354E+03  0.75541127490E+03  0.11711679911E+04  0.15294330000E+03 0.  0.
    8880022    1    1    2    0    0  0.51569071460E+03 -0.71530392354E+03 -0.36960713417E+03  0.96829628875E+03  0.15294330000E+03 0.  0.
<mgrwt>
<rscale>  0 0.89497948E+03</rscale>
<asrwt>0</asrwt>
<pdfrwt beam="1">  1        2 0.19425142E+00 0.89497948E+03</pdfrwt>
<pdfrwt beam="2">  1       -2 0.13489693E+00 0.89497948E+03</pdfrwt>
<totfact> 0.68948531E+00</totfact>
</mgrwt>
</event>
<event>
 4    1  0.5387657E-008  0.4682068E+03  0.7818608E-02  0.1022428E+00
          2   -1    0    0  501    0  0.00000000000E+00  0.00000000000E+00  0.50865364901E+03  0.50865364902E+03  0.25500000000E-02 0. -1.
         -2   -1    0    0    0  501 -0.00000000000E+00 -0.00000000000E+00 -0.99722064852E+03  0.99722064852E+03  0.25500000000E-02 0.  1.
    8880022    1    1    2    0    0 -0.20131091628E+03  0.39408102676E+03 -0.81165182933E+03  0.93701456004E+03  0.15294330000E+03 0.  0.
    8880022    1    1    2    0    0  0.20131091628E+03 -0.39408102676E+03  0.32308482982E+03  0.56885973750E+03  0.15294330000E+03 0.  0.
<mgrwt>
<rscale>  0 0.46820679E+03</rscale>
<asrwt>0</asrwt>
<pdfrwt beam="1">  1        2 0.78254408E-01 0.46820679E+03</pdfrwt>
<pdfrwt beam="2">  1       -2 0.15341856E+00 0.46820679E+03</pdfrwt>
<totfact> 0.17830886E+01</totfact>
</mgrwt>
</event>
<event>
 4    1  0.5387657E-008  0.3451606E+03  0.7818608E-02  0.1064619E+00
         -2   -1    0    0    0  501 -0.00000000000E+00  0.00000000000E+00  0.10485650177E+03  0.10485650180E+03  0.25500000000E-02 0.  1.
          2   -1    0    0  501    0  0.00000000000E+00 -0.00000000000E+00 -0.21683947715E+04  0.21683947715E+04  0.25500000000E-02 0. -1.
    8880022    1    1    2    0    0  0.30135112919E+03  0.70225965119E+02 -0.24755738958E+03  0.42475934762E+03  0.15294330000E+03 0.  1.
    8880022    1    1    2    0    0 -0.30135112919E+03 -0.70225965119E+02 -0.18159808801E+04  0.18484919257E+04  0.15294330000E+03 0.  0.
<mgrwt>
<rscale>  0 0.34516060E+03</rscale>
<asrwt>0</asrwt>
<pdfrwt beam="1">  1        2 0.33359916E+00 0.34516060E+03</pdfrwt>
<pdfrwt beam="2">  1       -2 0.16131771E-01 0.34516060E+03</pdfrwt>
<totfact> 0.18119230E+02</totfact>
</mgrwt>
</event>
<event>
 4    1  0.5387657E-008  0.4721673E+03  0.7818608E-02  0.1021310E+00
         -2   -1    0    0    0  501 -0.00000000000E+00  0.00000000000E+00  0.10543475780E+04  0.10543475780E+04  0.25500000000E-02 0.  1.
          2   -1    0    0  501    0  0.00000000000E+00 -0.00000000000E+00 -0.42858231733E+03  0.42858231734E+03  0.25500000000E-02 0. -1.
    8880022    1    1    2    0    0 -0.25204481908E+03  0.36881386715E+03  0.84064159984E+03  0.96416814500E+03  0.15294330000E+03 0.  0.
    8880022    1    1    2    0    0  0.25204481908E+03 -0.36881386715E+03 -0.21487633920E+03  0.51876175032E+03  0.15294330000E+03 0.  0.
<mgrwt>
<rscale>  0 0.47216725E+03</rscale>
<asrwt>0</asrwt>
<pdfrwt beam="1">  1        2 0.65935742E-01 0.47216725E+03</pdfrwt>
<pdfrwt beam="2">  1       -2 0.16220732E+00 0.47216725E+03</pdfrwt>
<totfact> 0.18647506E+01</totfact>
</mgrwt>
</event>
<event>
 4    1  0.5387657E-008  0.2433985E+03  0.7818608E-02  0.1117549E+00
          2   -1    0    0  501    0  0.00000000000E+00  0.00000000000E+00  0.17584071167E+04  0.17584071167E+04  0.25500000000E-02 0. -1.
         -2   -1    0    0    0  501 -0.00000000000E+00 -0.00000000000E+00 -0.12675178737E+04  0.12675178737E+04  0.25500000000E-02 0.  1.
    8880022    1    1    2    0    0 -0.55756696762E+02 -0.18094855375E+03  0.17381640803E+04  0.17551231328E+04  0.15294330000E+03 0.  0.
    8880022    1    1    2    0    0  0.55756696762E+02  0.18094855375E+03 -0.12472748374E+04  0.12708018576E+04  0.15294330000E+03 0.  0.
<mgrwt>
<rscale>  0 0.24339852E+03</rscale>
<asrwt>0</asrwt>
<pdfrwt beam="1">  1        2 0.27052417E+00 0.24339852E+03</pdfrwt>
<pdfrwt beam="2">  1       -2 0.19500275E+00 0.24339852E+03</pdfrwt>
<totfact> 0.16002436E+00</totfact>
</mgrwt>
</event>
<event>
 4    1  0.5387657E-008  0.6980440E+03  0.7818608E-02  0.9720583E-01
          2   -1    0    0  501    0  0.00000000000E+00  0.00000000000E+00  0.58144731118E+03  0.58144731119E+03  0.25500000000E-02 0. -1.
         -2   -1    0    0    0  501 -0.00000000000E+00 -0.00000000000E+00 -0.11684161863E+04  0.11684161863E+04  0.25500000000E-02 0.  1.
    8880022    1    1    2    0    0  0.63260586784E+03 -0.25235606371E+03  0.17177140900E+03  0.71886774644E+03  0.15294330000E+03 0.  0.
    8880022    1    1    2    0    0 -0.63260586784E+03  0.25235606371E+03 -0.75874028412E+03  0.10309957510E+04  0.15294330000E+03 0.  0.
<mgrwt>
<rscale>  0 0.69804400E+03</rscale>
<asrwt>0</asrwt>
<pdfrwt beam="1">  1        2 0.89453433E-01 0.69804400E+03</pdfrwt>
<pdfrwt beam="2">  1       -2 0.17975634E+00 0.69804400E+03</pdfrwt>
<totfact> 0.95939514E+00</totfact>
</mgrwt>
</event>
<event>
 4    1  0.5387657E-008  0.5200267E+03  0.7818608E-02  0.1008680E+00
         -2   -1    0    0    0  501 -0.00000000000E+00  0.00000000000E+00  0.10922646022E+04  0.10922646022E+04  0.25500000000E-02 0.  1.
          2   -1    0    0  501    0  0.00000000000E+00 -0.00000000000E+00 -0.82819349762E+03  0.82819349763E+03  0.25500000000E-02 0. -1.
    8880022    1    1    2    0    0  0.26638781325E+03 -0.41961131633E+03 -0.67195476085E+03  0.84967698420E+03  0.15294330000E+03 0.  0.
    8880022    1    1    2    0    0 -0.26638781325E+03  0.41961131633E+03  0.93602586544E+03  0.10707811156E+04  0.15294330000E+03 0.  0.
<mgrwt>
<rscale>  0 0.52002671E+03</rscale>
<asrwt>0</asrwt>
<pdfrwt beam="1">  1        2 0.12741438E+00 0.52002671E+03</pdfrwt>
<pdfrwt beam="2">  1       -2 0.16804071E+00 0.52002671E+03</pdfrwt>
<totfact> 0.76203688E+00</totfact>
</mgrwt>
</event>
<event>
 4    1  0.5387657E-008  0.4004701E+03  0.7818608E-02  0.1043617E+00
         -2   -1    0    0    0  501 -0.00000000000E+00  0.00000000000E+00  0.29935470828E+03  0.29935470829E+03  0.25500000000E-02 0.  1.
          2   -1    0    0  501    0  0.00000000000E+00 -0.00000000000E+00 -0.78098971452E+03  0.78098971453E+03  0.25500000000E-02 0. -1.
    8880022    1    1    2    0    0 -0.36257189891E+03  0.74339111124E+02 -0.54351839315E+03  0.67512116100E+03  0.15294330000E+03 0. -1.
    8880022    1    1    2    0    0  0.36257189891E+03 -0.74339111124E+02  0.61883386903E+02  0.40522326181E+03  0.15294330000E+03 0.  1.
<mgrwt>
<rscale>  0 0.40047015E+03</rscale>
<asrwt>0</asrwt>
<pdfrwt beam="1">  1        2 0.12015226E+00 0.40047015E+03</pdfrwt>
<pdfrwt beam="2">  1       -2 0.46054571E-01 0.40047015E+03</pdfrwt>
<totfact> 0.16481883E+02</totfact>
</mgrwt>
</event>
<event>
 4    1  0.5387657E-008  0.5239783E+03  0.7818608E-02  0.1007703E+00
         -2   -1    0    0    0  501 -0.00000000000E+00  0.00000000000E+00  0.18501271392E+03  0.18501271394E+03  0.25500000000E-02 0.  1.
          2   -1    0    0  501    0  0.00000000000E+00 -0.00000000000E+00 -0.38282521203E+04  0.38282521203E+04  0.25500000000E-02 0. -1.
    8880022    1    1    2    0    0 -0.79375856331E+02  0.49483440303E+03 -0.25135625570E+03  0.58114820251E+03  0.15294330000E+03 0.  0.
    8880022    1    1    2    0    0  0.79375856331E+02 -0.49483440303E+03 -0.33918831507E+04  0.34321166317E+04  0.15294330000E+03 0.  0.
<mgrwt>
<rscale>  0 0.52397831E+03</rscale>
<asrwt>0</asrwt>
<pdfrwt beam="1">  1        2 0.58896180E+00 0.52397831E+03</pdfrwt>
<pdfrwt beam="2">  1       -2 0.28463497E-01 0.52397831E+03</pdfrwt>
<totfact> 0.61307597E+00</totfact>
</mgrwt>
</event>
<event>
 4    1  0.5387657E-008  0.5556573E+03  0.7818608E-02  0.1000193E+00
          2   -1    0    0  501    0  0.00000000000E+00  0.00000000000E+00  0.50414768140E+03  0.50414768140E+03  0.25500000000E-02 0. -1.
         -2   -1    0    0    0  501 -0.00000000000E+00 -0.00000000000E+00 -0.90633930824E+03  0.90633930824E+03  0.25500000000E-02 0.  1.
    8880022    1    1    2    0    0  0.36117005447E+03  0.39359823188E+03  0.20051051645E+03  0.59072793789E+03  0.15294330000E+03 0.  0.
    8880022    1    1    2    0    0 -0.36117005447E+03 -0.39359823188E+03 -0.60270214329E+03  0.81975905175E+03  0.15294330000E+03 0.  0.
<mgrwt>
<rscale>  0 0.55565729E+03</rscale>
<asrwt>0</asrwt>
<pdfrwt beam="1">  1        2 0.77561182E-01 0.55565729E+03</pdfrwt>
<pdfrwt beam="2">  1       -2 0.13943682E+00 0.55565729E+03</pdfrwt>
<totfact> 0.22851868E+01</totfact>
</mgrwt>
</event>
<event>
 4    1  0.5387657E-008  0.1563392E+03  0.7818608E-02  0.1192893E+00
         -2   -1    0    0    0  501 -0.00000000000E+00  0.00000000000E+00  0.22553744083E+02  0.22553744228E+02  0.25500000000E-02 0.  1.
          2   -1    0    0  501    0  0.00000000000E+00 -0.00000000000E+00 -0.11010050069E+04  0.11010050069E+04  0.25500000000E-02 0. -1.
    8880022    1    1    2    0    0  0.24944990060E+02  0.20689483128E+02 -0.60961331217E+03  0.62934120366E+03  0.15294330000E+03 0. -1.
    8880022    1    1    2    0    0 -0.24944990060E+02 -0.20689483128E+02 -0.46883795065E+03  0.49421754747E+03  0.15294330000E+03 0.  1.
<mgrwt>
<rscale>  0 0.15633925E+03</rscale>
<asrwt>0</asrwt>
<pdfrwt beam="1">  1        2 0.16938534E+00 0.15633925E+03</pdfrwt>
<pdfrwt beam="2">  1       -2 0.34698077E-02 0.15633925E+03</pdfrwt>
<totfact> 0.75943311E+03</totfact>
</mgrwt>
</event>
<event>
 4    1  0.5387657E-008  0.7701748E+03  0.7818608E-02  0.9604220E-01
          2   -1    0    0  501    0  0.00000000000E+00  0.00000000000E+00  0.16371171836E+04  0.16371171836E+04  0.25500000000E-02 0. -1.
         -2   -1    0    0    0  501 -0.00000000000E+00 -0.00000000000E+00 -0.74026376696E+03  0.74026376697E+03  0.25500000000E-02 0.  1.
    8880022    1    1    2    0    0  0.69560146208E+03 -0.29311465259E+03 -0.40092191949E+03  0.86827854526E+03  0.15294330000E+03 0.  0.
    8880022    1    1    2    0    0 -0.69560146208E+03  0.29311465259E+03  0.12977753361E+04  0.15091024053E+04  0.15294330000E+03 0.  0.
<mgrwt>
<rscale>  0 0.77017482E+03</rscale>
<asrwt>0</asrwt>
<pdfrwt beam="1">  1        2 0.25186418E+00 0.77017482E+03</pdfrwt>
<pdfrwt beam="2">  1       -2 0.11388674E+00 0.77017482E+03</pdfrwt>
<totfact> 0.65781593E+00</totfact>
</mgrwt>
</event>
<event>
 4    1  0.5387657E-008  0.9102611E+03  0.7818608E-02  0.9412845E-01
         -2   -1    0    0    0  501 -0.00000000000E+00  0.00000000000E+00  0.14529669302E+04  0.14529669302E+04  0.25500000000E-02 0.  1.
          2   -1    0    0  501    0  0.00000000000E+00 -0.00000000000E+00 -0.11528706420E+04  0.11528706420E+04  0.25500000000E-02 0. -1.
    8880022    1    1    2    0    0 -0.73105013419E+03 -0.52033570946E+03  0.10762692039E+04  0.14095852587E+04  0.15294330000E+03 0.  0.
    8880022    1    1    2    0    0  0.73105013419E+03  0.52033570946E+03 -0.77617291583E+03  0.11962523135E+04  0.15294330000E+03 0.  0.
<mgrwt>
<rscale>  0 0.91026106E+03</rscale>
<asrwt>0</asrwt>
<pdfrwt beam="1">  1        2 0.17736471E+00 0.91026106E+03</pdfrwt>
<pdfrwt beam="2">  1       -2 0.22353337E+00 0.91026106E+03</pdfrwt>
<totfact> 0.19092042E+00</totfact>
</mgrwt>
</event>
<event>
 4    1  0.5387657E-008  0.2097995E+03  0.7818608E-02  0.1141725E+00
         -2   -1    0    0    0  501 -0.00000000000E+00  0.00000000000E+00  0.43186621143E+02  0.43186621219E+02  0.25500000000E-02 0.  1.
          2   -1    0    0  501    0  0.00000000000E+00 -0.00000000000E+00 -0.21526018078E+04  0.21526018078E+04  0.25500000000E-02 0. -1.
    8880022    1    1    2    0    0 -0.24784808736E+01  0.14358974986E+03 -0.25805208761E+03  0.33257584408E+03  0.15294330000E+03 0. -1.
    8880022    1    1    2    0    0  0.24784808736E+01 -0.14358974986E+03 -0.18513630990E+04  0.18632125849E+04  0.15294330000E+03 0. -1.
<mgrwt>
<rscale>  0 0.20979946E+03</rscale>
<asrwt>0</asrwt>
<pdfrwt beam="1">  1        2 0.33116943E+00 0.20979946E+03</pdfrwt>
<pdfrwt beam="2">  1       -2 0.66440972E-02 0.20979946E+03</pdfrwt>
<totfact> 0.78829294E+02</totfact>
</mgrwt>
</event>
<event>
 4    1  0.5387657E-008  0.1184428E+04  0.7818608E-02  0.9126597E-01
          2   -1    0    0  501    0  0.00000000000E+00  0.00000000000E+00  0.20576670372E+04  0.20576670372E+04  0.25500000000E-02 0. -1.
         -2   -1    0    0    0  501 -0.00000000000E+00 -0.00000000000E+00 -0.87211160553E+03  0.87211160554E+03  0.25500000000E-02 0.  1.
    8880022    1    1    2    0    0 -0.10697686604E+04 -0.48484281760E+03  0.12771275028E+04  0.17418162520E+04  0.15294330000E+03 0.  0.
    8880022    1    1    2    0    0  0.10697686604E+04  0.48484281760E+03 -0.91572071144E+02  0.11879623907E+04  0.15294330000E+03 0.  0.
<mgrwt>
<rscale>  0 0.11844278E+04</rscale>
<asrwt>0</asrwt>
<pdfrwt beam="1">  1        2 0.31656416E+00 0.11844278E+04</pdfrwt>
<pdfrwt beam="2">  1       -2 0.13417102E+00 0.11844278E+04</pdfrwt>
<totfact> 0.24290063E+00</totfact>
</mgrwt>
</event>
<event>
 4    1  0.5387657E-008  0.7702782E+03  0.7818608E-02  0.9604063E-01
          2   -1    0    0  501    0  0.00000000000E+00  0.00000000000E+00  0.42739971958E+03  0.42739971959E+03  0.25500000000E-02 0. -1.
         -2   -1    0    0    0  501 -0.00000000000E+00 -0.00000000000E+00 -0.16282658335E+04  0.16282658336E+04  0.25500000000E-02 0.  1.
    8880022    1    1    2    0    0  0.72281209888E+03 -0.21789795207E+03 -0.20579483765E+03  0.79729543836E+03  0.15294330000E+03 0.  0.
    8880022    1    1    2    0    0 -0.72281209888E+03  0.21789795207E+03 -0.99507127632E+03  0.12583701148E+04  0.15294330000E+03 0.  0.
<mgrwt>
<rscale>  0 0.77027820E+03</rscale>
<asrwt>0</asrwt>
<pdfrwt beam="1">  1        2 0.65753804E-01 0.77027820E+03</pdfrwt>
<pdfrwt beam="2">  1       -2 0.25050243E+00 0.77027820E+03</pdfrwt>
<totfact> 0.48294117E+00</totfact>
</mgrwt>
</event>
<event>
 4    1  0.5387657E-008  0.2529005E+03  0.7818608E-02  0.1111485E+00
         -2   -1    0    0    0  501 -0.00000000000E+00  0.00000000000E+00  0.15869605212E+03  0.15869605214E+03  0.25500000000E-02 0.  1.
          2   -1    0    0  501    0  0.00000000000E+00 -0.00000000000E+00 -0.41780178450E+03  0.41780178451E+03  0.25500000000E-02 0. -1.
    8880022    1    1    2    0    0 -0.13890616838E+03 -0.14584956431E+03 -0.18375974419E+03  0.31261208490E+03  0.15294330000E+03 0.  0.
    8880022    1    1    2    0    0  0.13890616838E+03  0.14584956431E+03 -0.75345988185E+02  0.26388575174E+03  0.15294330000E+03 0.  0.
<mgrwt>
<rscale>  0 0.25290052E+03</rscale>
<asrwt>0</asrwt>
<pdfrwt beam="1">  1        2 0.64277197E-01 0.25290052E+03</pdfrwt>
<pdfrwt beam="2">  1       -2 0.24414777E-01 0.25290052E+03</pdfrwt>
<totfact> 0.11283542E+03</totfact>
</mgrwt>
</event>
<event>
 4    1  0.5387657E-008  0.3671965E+03  0.7818608E-02  0.1055770E+00
         -2   -1    0    0    0  501 -0.00000000000E+00  0.00000000000E+00  0.40858712675E+03  0.40858712676E+03  0.25500000000E-02 0.  1.
          2   -1    0    0  501    0  0.00000000000E+00 -0.00000000000E+00 -0.19312613242E+04  0.19312613242E+04  0.25500000000E-02 0. -1.
    8880022    1    1    2    0    0  0.20700013045E+03  0.26190180020E+03 -0.18266286498E+04  0.18631708146E+04  0.15294330000E+03 0.  0.
    8880022    1    1    2    0    0 -0.20700013045E+03 -0.26190180020E+03  0.30395445233E+03  0.47667763642E+03  0.15294330000E+03 0.  0.
<mgrwt>
<rscale>  0 0.36719649E+03</rscale>
<asrwt>0</asrwt>
<pdfrwt beam="1">  1        2 0.29711712E+00 0.36719649E+03</pdfrwt>
<pdfrwt beam="2">  1       -2 0.62859559E-01 0.36719649E+03</pdfrwt>
<totfact> 0.19059764E+01</totfact>
</mgrwt>
</event>
<event>
 4    1  0.5387657E-008  0.4163302E+03  0.7818608E-02  0.1038267E+00
         -2   -1    0    0    0  501 -0.00000000000E+00  0.00000000000E+00  0.39586376983E+03  0.39586376984E+03  0.25500000000E-02 0.  1.
          2   -1    0    0  501    0  0.00000000000E+00 -0.00000000000E+00 -0.49563629617E+03  0.49563629617E+03  0.25500000000E-02 0. -1.
    8880022    1    1    2    0    0 -0.31931757737E+03  0.21903294414E+03 -0.20208278462E+03  0.46278315731E+03  0.15294330000E+03 0.  0.
    8880022    1    1    2    0    0  0.31931757737E+03 -0.21903294414E+03  0.10231025829E+03  0.42871690870E+03  0.15294330000E+03 0.  0.
<mgrwt>
<rscale>  0 0.41633016E+03</rscale>
<asrwt>0</asrwt>
<pdfrwt beam="1">  1        2 0.76251738E-01 0.41633016E+03</pdfrwt>
<pdfrwt beam="2">  1       -2 0.60902119E-01 0.41633016E+03</pdfrwt>
<totfact> 0.16069464E+02</totfact>
</mgrwt>
</event>
<event>
 4    1  0.5387657E-008  0.4858474E+03  0.7818608E-02  0.1017540E+00
          2   -1    0    0  501    0  0.00000000000E+00  0.00000000000E+00  0.37049714061E+03  0.37049714061E+03  0.25500000000E-02 0. -1.
         -2   -1    0    0    0  501 -0.00000000000E+00 -0.00000000000E+00 -0.11853668897E+04  0.11853668898E+04  0.25500000000E-02 0.  1.
    8880022    1    1    2    0    0  0.35816604910E+03  0.29047045044E+03  0.12162772498E+03  0.50084025179E+03  0.15294330000E+03 0.  0.
    8880022    1    1    2    0    0 -0.35816604910E+03 -0.29047045044E+03 -0.93649747413E+03  0.10550237786E+04  0.15294330000E+03 0.  0.
<mgrwt>
<rscale>  0 0.48584736E+03</rscale>
<asrwt>0</asrwt>
<pdfrwt beam="1">  1        2 0.56999561E-01 0.48584736E+03</pdfrwt>
<pdfrwt beam="2">  1       -2 0.18236413E+00 0.48584736E+03</pdfrwt>
<totfact> 0.15837208E+01</totfact>
</mgrwt>
</event>
<event>
 4    1  0.5387657E-008  0.6494718E+03  0.7818608E-02  0.9807771E-01
          2   -1    0    0  501    0  0.00000000000E+00  0.00000000000E+00  0.39231344641E+04  0.39231344641E+04  0.25500000000E-02 0. -1.
         -2   -1    0    0    0  501 -0.00000000000E+00 -0.00000000000E+00 -0.13152907544E+03  0.13152907547E+03  0.25500000000E-02 0.  1.
    8880022    1    1    2    0    0  0.41504001013E+03 -0.47556677225E+03  0.10296273654E+04  0.12173520976E+04  0.15294330000E+03 0.  0.
    8880022    1    1    2    0    0 -0.41504001013E+03  0.47556677225E+03  0.27619780233E+04  0.28373114420E+04  0.15294330000E+03 0.  0.
<mgrwt>
<rscale>  0 0.64947180E+03</rscale>
<asrwt>0</asrwt>
<pdfrwt beam="1">  1        2 0.60355913E+00 0.64947180E+03</pdfrwt>
<pdfrwt beam="2">  1       -2 0.20235243E-01 0.64947180E+03</pdfrwt>
<totfact> 0.92514226E+00</totfact>
</mgrwt>
</event>
<event>
 4    1  0.5387657E-008  0.4434670E+03  0.7818608E-02  0.1029688E+00
          2   -1    0    0  501    0  0.00000000000E+00  0.00000000000E+00  0.38836547793E+03  0.38836547794E+03  0.25500000000E-02 0. -1.
         -2   -1    0    0    0  501 -0.00000000000E+00 -0.00000000000E+00 -0.69232877668E+03  0.69232877668E+03  0.25500000000E-02 0.  1.
    8880022    1    1    2    0    0 -0.39217253575E+03 -0.13954215488E+03 -0.43201254001E+03  0.61911048976E+03  0.15294330000E+03 0.  0.
    8880022    1    1    2    0    0  0.39217253575E+03  0.13954215488E+03  0.12804924126E+03  0.46158376487E+03  0.15294330000E+03 0.  0.
<mgrwt>
<rscale>  0 0.44346698E+03</rscale>
<asrwt>0</asrwt>
<pdfrwt beam="1">  1        2 0.59748535E-01 0.44346698E+03</pdfrwt>
<pdfrwt beam="2">  1       -2 0.10651212E+00 0.44346698E+03</pdfrwt>
<totfact> 0.60384897E+01</totfact>
</mgrwt>
</event>
<event>
 4    1  0.5387657E-008  0.8058246E+03  0.7818608E-02  0.9551624E-01
         -2   -1    0    0    0  501 -0.00000000000E+00  0.00000000000E+00  0.14791000438E+03  0.14791000440E+03  0.25500000000E-02 0.  1.
          2   -1    0    0  501    0  0.00000000000E+00 -0.00000000000E+00 -0.51154293490E+04  0.51154293490E+04  0.25500000000E-02 0. -1.
    8880022    1    1    2    0    0  0.74358790317E+03 -0.27025651551E+03 -0.14928578283E+04  0.16964603451E+04  0.15294330000E+03 0.  0.
    8880022    1    1    2    0    0 -0.74358790317E+03  0.27025651551E+03 -0.34746615163E+04  0.35668790083E+04  0.15294330000E+03 0.  0.
<mgrwt>
<rscale>  0 0.80582455E+03</rscale>
<asrwt>0</asrwt>
<pdfrwt beam="1">  1        2 0.78698899E+00 0.80582455E+03</pdfrwt>
<pdfrwt beam="2">  1       -2 0.22755389E-01 0.80582455E+03</pdfrwt>
<totfact> 0.47982920E-01</totfact>
</mgrwt>
</event>
<event>
 4    1  0.5387657E-008  0.6059784E+03  0.7818608E-02  0.9893080E-01
          2   -1    0    0  501    0  0.00000000000E+00  0.00000000000E+00  0.12771617914E+04  0.12771617914E+04  0.25500000000E-02 0. -1.
         -2   -1    0    0    0  501 -0.00000000000E+00 -0.00000000000E+00 -0.48845928187E+03  0.48845928187E+03  0.25500000000E-02 0.  1.
    8880022    1    1    2    0    0 -0.24315723241E+03  0.53356603094E+03 -0.17186918309E+03  0.62988000299E+03  0.15294330000E+03 0.  0.
    8880022    1    1    2    0    0  0.24315723241E+03 -0.53356603094E+03  0.96057169261E+03  0.11357410703E+04  0.15294330000E+03 0.  0.
<mgrwt>
<rscale>  0 0.60597838E+03</rscale>
<asrwt>0</asrwt>
<pdfrwt beam="1">  1        2 0.19648643E+00 0.60597838E+03</pdfrwt>
<pdfrwt beam="2">  1       -2 0.75147582E-01 0.60597838E+03</pdfrwt>
<totfact> 0.28127333E+01</totfact>
</mgrwt>
</event>
<event>
 4    1  0.5387657E-008  0.3963421E+03  0.7818608E-02  0.1045054E+00
          2   -1    0    0  501    0  0.00000000000E+00  0.00000000000E+00  0.22115721579E+04  0.22115721579E+04  0.25500000000E-02 0. -1.
         -2   -1    0    0    0  501 -0.00000000000E+00 -0.00000000000E+00 -0.19215971925E+03  0.19215971926E+03  0.25500000000E-02 0.  1.
    8880022    1    1    2    0    0 -0.71844014172E+02  0.35851621440E+03  0.19639314978E+04  0.20035253977E+04  0.15294330000E+03 0.  0.
    8880022    1    1    2    0    0  0.71844014172E+02 -0.35851621440E+03  0.55480940868E+02  0.40020647943E+03  0.15294330000E+03 0.  1.
<mgrwt>
<rscale>  0 0.39634214E+03</rscale>
<asrwt>0</asrwt>
<pdfrwt beam="1">  1        2 0.34024187E+00 0.39634214E+03</pdfrwt>
<pdfrwt beam="2">  1       -2 0.29563033E-01 0.39634214E+03</pdfrwt>
<totfact> 0.58791778E+01</totfact>
</mgrwt>
</event>
<event>
 4    1  0.5387657E-008  0.5066652E+03  0.7818608E-02  0.1012054E+00
         -2   -1    0    0    0  501 -0.00000000000E+00  0.00000000000E+00  0.27058302540E+03  0.27058302541E+03  0.25500000000E-02 0.  1.
          2   -1    0    0  501    0  0.00000000000E+00 -0.00000000000E+00 -0.11635293880E+04  0.11635293880E+04  0.25500000000E-02 0. -1.
    8880022    1    1    2    0    0  0.48293154139E+03  0.97514330522E+01 -0.13837910787E+03  0.52522223356E+03  0.15294330000E+03 0.  0.
    8880022    1    1    2    0    0 -0.48293154139E+03 -0.97514330522E+01 -0.75456725469E+03  0.90889017982E+03  0.15294330000E+03 0.  0.
<mgrwt>
<rscale>  0 0.50666519E+03</rscale>
<asrwt>0</asrwt>
<pdfrwt beam="1">  1        2 0.17900452E+00 0.50666519E+03</pdfrwt>
<pdfrwt beam="2">  1       -2 0.41628158E-01 0.50666519E+03</pdfrwt>
<totfact> 0.11301790E+02</totfact>
</mgrwt>
</event>
<event>
 4    1  0.5387657E-008  0.1944699E+03  0.7818608E-02  0.1154490E+00
          2   -1    0    0  501    0  0.00000000000E+00  0.00000000000E+00  0.36244745995E+04  0.36244745995E+04  0.25500000000E-02 0. -1.
         -2   -1    0    0    0  501 -0.00000000000E+00 -0.00000000000E+00 -0.22329820047E+02  0.22329820193E+02  0.25500000000E-02 0.  1.
    8880022    1    1    2    0    0  0.90062399363E+02  0.79471061231E+02  0.47020991816E+03  0.50883779882E+03  0.15294330000E+03 0.  1.
    8880022    1    1    2    0    0 -0.90062399363E+02 -0.79471061231E+02  0.31319348613E+04  0.31379666209E+04  0.15294330000E+03 0.  1.
<mgrwt>
<rscale>  0 0.19446989E+03</rscale>
<asrwt>0</asrwt>
<pdfrwt beam="1">  1        2 0.55761130E+00 0.19446989E+03</pdfrwt>
<pdfrwt beam="2">  1       -2 0.34353580E-02 0.19446989E+03</pdfrwt>
<totfact> 0.29746541E+02</totfact>
</mgrwt>
</event>
<event>
 4    1  0.5387657E-008  0.3674096E+03  0.7818608E-02  0.1055688E+00
         -2   -1    0    0    0  501 -0.00000000000E+00  0.00000000000E+00  0.47091900949E+02  0.47091901018E+02  0.25500000000E-02 0.  1.
          2   -1    0    0  501    0  0.00000000000E+00 -0.00000000000E+00 -0.34936351918E+04  0.34936351918E+04  0.25500000000E-02 0. -1.
    8880022    1    1    2    0    0  0.31208100453E+03  0.11917901462E+03 -0.97320892911E+03  0.10402525961E+04  0.15294330000E+03 0.  0.
    8880022    1    1    2    0    0 -0.31208100453E+03 -0.11917901462E+03 -0.24733343617E+04  0.25004744967E+04  0.15294330000E+03 0.  0.
<mgrwt>
<rscale>  0 0.36740964E+03</rscale>
<asrwt>0</asrwt>
<pdfrwt beam="1">  1        2 0.53748213E+00 0.36740964E+03</pdfrwt>
<pdfrwt beam="2">  1       -2 0.72449106E-02 0.36740964E+03</pdfrwt>
<totfact> 0.10969012E+02</totfact>
</mgrwt>
</event>
<event>
 4    1  0.5387657E-008  0.3767546E+03  0.7818608E-02  0.1052140E+00
         -2   -1    0    0    0  501 -0.00000000000E+00  0.00000000000E+00  0.36699309012E+03  0.36699309013E+03  0.25500000000E-02 0.  1.
          2   -1    0    0  501    0  0.00000000000E+00 -0.00000000000E+00 -0.74714316616E+03  0.74714316616E+03  0.25500000000E-02 0. -1.
    8880022    1    1    2    0    0 -0.18309075592E+03 -0.29159925502E+03  0.19680755958E+03  0.42506142963E+03  0.15294330000E+03 0.  0.
    8880022    1    1    2    0    0  0.18309075592E+03  0.29159925502E+03 -0.57695763561E+03  0.68907482666E+03  0.15294330000E+03 0.  0.
<mgrwt>
<rscale>  0 0.37675457E+03</rscale>
<asrwt>0</asrwt>
<pdfrwt beam="1">  1        2 0.11494510E+00 0.37675457E+03</pdfrwt>
<pdfrwt beam="2">  1       -2 0.56460475E-01 0.37675457E+03</pdfrwt>
<totfact> 0.11577809E+02</totfact>
</mgrwt>
</event>
<event>
 4    1  0.5387657E-008  0.7295469E+03  0.7818608E-02  0.9667996E-01
         -2   -1    0    0    0  501 -0.00000000000E+00  0.00000000000E+00  0.10095032992E+04  0.10095032992E+04  0.25500000000E-02 0.  1.
          2   -1    0    0  501    0  0.00000000000E+00 -0.00000000000E+00 -0.97829415469E+03  0.97829415470E+03  0.25500000000E-02 0. -1.
    8880022    1    1    2    0    0  0.49898042943E+03 -0.50977009713E+03 -0.65927673256E+03  0.98330284450E+03  0.15294330000E+03 0.  0.
    8880022    1    1    2    0    0 -0.49898042943E+03  0.50977009713E+03  0.69048587709E+03  0.10044946094E+04  0.15294330000E+03 0.  0.
<mgrwt>
<rscale>  0 0.72954690E+03</rscale>
<asrwt>0</asrwt>
<pdfrwt beam="1">  1        2 0.15050679E+00 0.72954690E+03</pdfrwt>
<pdfrwt beam="2">  1       -2 0.15530820E+00 0.72954690E+03</pdfrwt>
<totfact> 0.72548413E+00</totfact>
</mgrwt>
</event>
<event>
 4    1  0.5387657E-008  0.3656885E+03  0.7818608E-02  0.1056354E+00
          2   -1    0    0  501    0  0.00000000000E+00  0.00000000000E+00  0.24681788882E+04  0.24681788882E+04  0.25500000000E-02 0. -1.
         -2   -1    0    0    0  501 -0.00000000000E+00 -0.00000000000E+00 -0.12740851481E+03  0.12740851484E+03  0.25500000000E-02 0.  1.
    8880022    1    1    2    0    0 -0.22906168554E+03  0.24055600785E+03  0.21542692861E+04  0.21850867852E+04  0.15294330000E+03 0.  0.
    8880022    1    1    2    0    0  0.22906168554E+03 -0.24055600785E+03  0.18650108729E+03  0.41050061787E+03  0.15294330000E+03 0.  0.
<mgrwt>
<rscale>  0 0.36568853E+03</rscale>
<asrwt>0</asrwt>
<pdfrwt beam="1">  1        2 0.37971980E+00 0.36568853E+03</pdfrwt>
<pdfrwt beam="2">  1       -2 0.19601312E-01 0.36568853E+03</pdfrwt>
<totfact> 0.88991494E+01</totfact>
</mgrwt>
</event>
<event>
 4    1  0.5387657E-008  0.1894994E+03  0.7818608E-02  0.1158914E+00
          2   -1    0    0  501    0  0.00000000000E+00  0.00000000000E+00  0.19907264525E+04  0.19907264525E+04  0.25500000000E-02 0. -1.
         -2   -1    0    0    0  501 -0.00000000000E+00 -0.00000000000E+00 -0.18054179875E+02  0.18054180055E+02  0.25500000000E-02 0.  1.
    8880022    1    1    2    0    0 -0.11187232153E+03  0.17165512409E+01  0.95687755833E+03  0.97546126398E+03  0.15294330000E+03 0.  0.
    8880022    1    1    2    0    0  0.11187232153E+03 -0.17165512409E+01  0.10157947143E+04  0.10333193686E+04  0.15294330000E+03 0.  1.
<mgrwt>
<rscale>  0 0.18949938E+03</rscale>
<asrwt>0</asrwt>
<pdfrwt beam="1">  1        2 0.30626564E+00 0.18949938E+03</pdfrwt>
<pdfrwt beam="2">  1       -2 0.27775659E-02 0.18949938E+03</pdfrwt>
<totfact> 0.35695133E+03</totfact>
</mgrwt>
</event>
<event>
 4    1  0.5387657E-008  0.6566001E+03  0.7818608E-02  0.9794473E-01
          2   -1    0    0  501    0  0.00000000000E+00  0.00000000000E+00  0.12334060713E+04  0.12334060713E+04  0.25500000000E-02 0. -1.
         -2   -1    0    0    0  501 -0.00000000000E+00 -0.00000000000E+00 -0.44508507742E+03  0.44508507743E+03  0.25500000000E-02 0.  1.
    8880022    1    1    2    0    0 -0.57251339960E+03  0.28277274562E+03  0.78300297641E+03  0.10218695281E+04  0.15294330000E+03 0.  0.
    8880022    1    1    2    0    0  0.57251339960E+03 -0.28277274562E+03  0.53180175019E+01  0.65662162066E+03  0.15294330000E+03 0.  0.
<mgrwt>
<rscale>  0 0.65660008E+03</rscale>
<asrwt>0</asrwt>
<pdfrwt beam="1">  1        2 0.18975478E+00 0.65660008E+03</pdfrwt>
<pdfrwt beam="2">  1       -2 0.68474627E-01 0.65660008E+03</pdfrwt>
<totfact> 0.36320895E+01</totfact>
</mgrwt>
</event>
<event>
 4    1  0.5387657E-008  0.9849309E+03  0.7818608E-02  0.9325228E-01
          2   -1    0    0  501    0  0.00000000000E+00  0.00000000000E+00  0.20596576505E+04  0.20596576505E+04  0.25500000000E-02 0. -1.
         -2   -1    0    0    0  501 -0.00000000000E+00 -0.00000000000E+00 -0.76702986237E+03  0.76702986237E+03  0.25500000000E-02 0.  1.
    8880022    1    1    2    0    0 -0.19831083690E+03  0.95255970840E+03 -0.23172339659E+03  0.10118224012E+04  0.15294330000E+03 0.  0.
    8880022    1    1    2    0    0  0.19831083690E+03 -0.95255970840E+03  0.15243511848E+04  0.18148651117E+04  0.15294330000E+03 0.  0.
<mgrwt>
<rscale>  0 0.98493088E+03</rscale>
<asrwt>0</asrwt>
<pdfrwt beam="1">  1        2 0.31687041E+00 0.98493088E+03</pdfrwt>
<pdfrwt beam="2">  1       -2 0.11800460E+00 0.98493088E+03</pdfrwt>
<totfact> 0.34323940E+00</totfact>
</mgrwt>
</event>
<event>
 4    1  0.5387657E-008  0.4203720E+03  0.7818608E-02  0.1036945E+00
          2   -1    0    0  501    0  0.00000000000E+00  0.00000000000E+00  0.12014314082E+04  0.12014314082E+04  0.25500000000E-02 0. -1.
         -2   -1    0    0    0  501 -0.00000000000E+00 -0.00000000000E+00 -0.29813181161E+03  0.29813181162E+03  0.25500000000E-02 0.  1.
    8880022    1    1    2    0    0  0.25975814688E+03  0.29299604388E+03 -0.82036799812E+02  0.42830207347E+03  0.15294330000E+03 0.  0.
    8880022    1    1    2    0    0 -0.25975814688E+03 -0.29299604388E+03  0.98533639637E+03  0.10712611463E+04  0.15294330000E+03 0.  0.
<mgrwt>
<rscale>  0 0.42037201E+03</rscale>
<asrwt>0</asrwt>
<pdfrwt beam="1">  1        2 0.18483560E+00 0.42037201E+03</pdfrwt>
<pdfrwt beam="2">  1       -2 0.45866432E-01 0.42037201E+03</pdfrwt>
<totfact> 0.89736060E+01</totfact>
</mgrwt>
</event>
<event>
 4    1  0.5387657E-008  0.3452562E+03  0.7818608E-02  0.1064579E+00
          2   -1    0    0  501    0  0.00000000000E+00  0.00000000000E+00  0.10305780831E+04  0.10305780831E+04  0.25500000000E-02 0. -1.
         -2   -1    0    0    0  501 -0.00000000000E+00 -0.00000000000E+00 -0.19205959933E+03  0.19205959934E+03  0.25500000000E-02 0.  1.
    8880022    1    1    2    0    0 -0.25312852346E+03 -0.17814633385E+03  0.33708904240E+02  0.34689783639E+03  0.15294330000E+03 0.  0.
    8880022    1    1    2    0    0  0.25312852346E+03  0.17814633385E+03  0.80480957955E+03  0.87573984608E+03  0.15294330000E+03 0.  0.
<mgrwt>
<rscale>  0 0.34525616E+03</rscale>
<asrwt>0</asrwt>
<pdfrwt beam="1">  1        2 0.15855047E+00 0.34525616E+03</pdfrwt>
<pdfrwt beam="2">  1       -2 0.29547631E-01 0.34525616E+03</pdfrwt>
<totfact> 0.26424012E+02</totfact>
</mgrwt>
</event>
<event>
 4    1  0.5387657E-008  0.4740551E+03  0.7818608E-02  0.1020782E+00
          2   -1    0    0  501    0  0.00000000000E+00  0.00000000000E+00  0.40340707221E+03  0.40340707222E+03  0.25500000000E-02 0. -1.
         -2   -1    0    0    0  501 -0.00000000000E+00 -0.00000000000E+00 -0.10390343624E+04  0.10390343624E+04  0.25500000000E-02 0.  1.
    8880022    1    1    2    0    0  0.25336310016E+03  0.37032916746E+03 -0.80901348103E+03  0.93767319376E+03  0.15294330000E+03 0.  0.
    8880022    1    1    2    0    0 -0.25336310016E+03 -0.37032916746E+03  0.17338619085E+03  0.50476824086E+03  0.15294330000E+03 0.  0.
<mgrwt>
<rscale>  0 0.47405507E+03</rscale>
<asrwt>0</asrwt>
<pdfrwt beam="1">  1        2 0.62062627E-01 0.47405507E+03</pdfrwt>
<pdfrwt beam="2">  1       -2 0.15985144E+00 0.47405507E+03</pdfrwt>
<totfact> 0.20748055E+01</totfact>
</mgrwt>
</event>
<event>
 4    1  0.5387657E-008  0.8267599E+03  0.7818608E-02  0.9522071E-01
          2   -1    0    0  501    0  0.00000000000E+00  0.00000000000E+00  0.26569562946E+04  0.26569562946E+04  0.25500000000E-02 0. -1.
         -2   -1    0    0    0  501 -0.00000000000E+00 -0.00000000000E+00 -0.37344776662E+03  0.37344776663E+03  0.25500000000E-02 0.  1.
    8880022    1    1    2    0    0  0.73486454162E+03 -0.34657525848E+03  0.19869035600E+04  0.21520496541E+04  0.15294330000E+03 0.  0.
    8880022    1    1    2    0    0 -0.73486454162E+03  0.34657525848E+03  0.29660496798E+03  0.87835440704E+03  0.15294330000E+03 0.  0.
<mgrwt>
<rscale>  0 0.82675992E+03</rscale>
<asrwt>0</asrwt>
<pdfrwt beam="1">  1        2 0.40876252E+00 0.82675992E+03</pdfrwt>
<pdfrwt beam="2">  1       -2 0.57453501E-01 0.82675992E+03</pdfrwt>
<totfact> 0.83152870E+00</totfact>
</mgrwt>
</event>
<event>
 4    1  0.5387657E-008  0.6026005E+03  0.7818608E-02  0.9900026E-01
         -2   -1    0    0    0  501 -0.00000000000E+00  0.00000000000E+00  0.46618755292E+03  0.46618755293E+03  0.25500000000E-02 0.  1.
          2   -1    0    0  501    0  0.00000000000E+00 -0.00000000000E+00 -0.26062461157E+04  0.26062461157E+04  0.25500000000E-02 0. -1.
    8880022    1    1    2    0    0 -0.39531691146E+03  0.42832258043E+03  0.21629859442E+03  0.64024403813E+03  0.15294330000E+03 0.  0.
    8880022    1    1    2    0    0  0.39531691146E+03 -0.42832258043E+03 -0.23563571572E+04  0.24321896305E+04  0.15294330000E+03 0.  0.
<mgrwt>
<rscale>  0 0.60260049E+03</rscale>
<asrwt>0</asrwt>
<pdfrwt beam="1">  1        2 0.40096093E+00 0.60260049E+03</pdfrwt>
<pdfrwt beam="2">  1       -2 0.71721163E-01 0.60260049E+03</pdfrwt>
<totfact> 0.57694134E+00</totfact>
</mgrwt>
</event>
<event>
 4    1  0.1282864E-007  0.8494271E+03  0.7818608E-02  0.9491106E-01
          2   -1    0    0  501    0  0.00000000000E+00  0.00000000000E+00  0.16101447111E+04  0.16101447111E+04  0.25500000000E-02 0. -1.
         -2   -1    0    0    0  501 -0.00000000000E+00 -0.00000000000E+00 -0.24700188777E+04  0.24700188777E+04  0.25500000000E-02 0.  1.
    8880022    1    1    2    0    0 -0.49691645796E+03 -0.67172079521E+03  0.14158344063E+04  0.16510946406E+04  0.15294330000E+03 0.  0.
    8880022    1    1    2    0    0  0.49691645796E+03  0.67172079521E+03 -0.22757085730E+04  0.24290689482E+04  0.15294330000E+03 0.  0.
<mgrwt>
<rscale>  0 0.84942713E+03</rscale>
<asrwt>0</asrwt>
<pdfrwt beam="1">  1        2 0.24771457E+00 0.84942713E+03</pdfrwt>
<pdfrwt beam="2">  1       -2 0.38000290E+00 0.84942713E+03</pdfrwt>
<totfact> 0.11573440E-01</totfact>
</mgrwt>
</event>
<event>
 4    1  0.5387657E-008  0.3251521E+03  0.7818608E-02  0.1073302E+00
          2   -1    0    0  501    0  0.00000000000E+00  0.00000000000E+00  0.38844950409E+03  0.38844950410E+03  0.25500000000E-02 0. -1.
         -2   -1    0    0    0  501 -0.00000000000E+00 -0.00000000000E+00 -0.30674508825E+03  0.30674508826E+03  0.25500000000E-02 0.  1.
    8880022    1    1    2    0    0  0.16052085750E+03  0.23783460431E+03 -0.75849109400E+02  0.33388169329E+03  0.15294330000E+03 0.  0.
    8880022    1    1    2    0    0 -0.16052085750E+03 -0.23783460431E+03  0.15755352524E+03  0.36131289907E+03  0.15294330000E+03 0.  0.
<mgrwt>
<rscale>  0 0.32515211E+03</rscale>
<asrwt>0</asrwt>
<pdfrwt beam="1">  1        2 0.59761462E-01 0.32515211E+03</pdfrwt>
<pdfrwt beam="2">  1       -2 0.47191552E-01 0.32515211E+03</pdfrwt>
<totfact> 0.35696156E+02</totfact>
</mgrwt>
</event>
<event>
 4    1  0.5387657E-008  0.1116188E+04  0.7818608E-02  0.9189556E-01
          2   -1    0    0  501    0  0.00000000000E+00  0.00000000000E+00  0.10709173985E+04  0.10709173985E+04  0.25500000000E-02 0. -1.
         -2   -1    0    0    0  501 -0.00000000000E+00 -0.00000000000E+00 -0.15025719214E+04  0.15025719214E+04  0.25500000000E-02 0.  1.
    8880022    1    1    2    0    0 -0.10993264020E+04 -0.11817954982E+03  0.39553953102E+03  0.11841993573E+04  0.15294330000E+03 0.  0.
    8880022    1    1    2    0    0  0.10993264020E+04  0.11817954982E+03 -0.82719405390E+03  0.13892899626E+04  0.15294330000E+03 0.  0.
<mgrwt>
<rscale>  0 0.11161884E+04</rscale>
<asrwt>0</asrwt>
<pdfrwt beam="1">  1        2 0.16475652E+00 0.11161884E+04</pdfrwt>
<pdfrwt beam="2">  1       -2 0.23116491E+00 0.11161884E+04</pdfrwt>
<totfact> 0.18737878E+00</totfact>
</mgrwt>
</event>
<event>
 4    1  0.5387657E-008  0.1883482E+03  0.7818608E-02  0.1159960E+00
          2   -1    0    0  501    0  0.00000000000E+00  0.00000000000E+00  0.13908515061E+03  0.13908515063E+03  0.25500000000E-02 0. -1.
         -2   -1    0    0    0  501 -0.00000000000E+00 -0.00000000000E+00 -0.45902492869E+03  0.45902492869E+03  0.25500000000E-02 0.  1.
    8880022    1    1    2    0    0  0.10991993898E+03  0.99817357563E+00  0.39377642517E+02  0.19242047989E+03  0.15294330000E+03 0.  0.
    8880022    1    1    2    0    0 -0.10991993898E+03 -0.99817357563E+00 -0.35931742059E+03  0.40568959944E+03  0.15294330000E+03 0.  1.
<mgrwt>
<rscale>  0 0.18834819E+03</rscale>
<asrwt>0</asrwt>
<pdfrwt beam="1">  1        2 0.21397716E-01 0.18834819E+03</pdfrwt>
<pdfrwt beam="2">  1       -2 0.70619219E-01 0.18834819E+03</pdfrwt>
<totfact> 0.48032896E+02</totfact>
</mgrwt>
</event>
<event>
 4    1  0.5387657E-008  0.6931295E+03  0.7818608E-02  0.9729054E-01
          2   -1    0    0  501    0  0.00000000000E+00  0.00000000000E+00  0.10392792406E+04  0.10392792406E+04  0.25500000000E-02 0. -1.
         -2   -1    0    0    0  501 -0.00000000000E+00 -0.00000000000E+00 -0.93769807688E+03  0.93769807689E+03  0.25500000000E-02 0.  1.
    8880022    1    1    2    0    0 -0.60009455118E+03  0.31132519467E+03 -0.65306280045E+03  0.95232322325E+03  0.15294330000E+03 0.  0.
    8880022    1    1    2    0    0  0.60009455118E+03 -0.31132519467E+03  0.75464396419E+03  0.10246540943E+04  0.15294330000E+03 0.  0.
<mgrwt>
<rscale>  0 0.69312950E+03</rscale>
<asrwt>0</asrwt>
<pdfrwt beam="1">  1        2 0.15988911E+00 0.69312950E+03</pdfrwt>
<pdfrwt beam="2">  1       -2 0.14426124E+00 0.69312950E+03</pdfrwt>
<totfact> 0.81029015E+00</totfact>
</mgrwt>
</event>
<event>
 4    1  0.5387657E-008  0.6374013E+03  0.7818608E-02  0.9830711E-01
         -2   -1    0    0    0  501 -0.00000000000E+00  0.00000000000E+00  0.98423576899E+03  0.98423576900E+03  0.25500000000E-02 0.  1.
          2   -1    0    0  501    0  0.00000000000E+00 -0.00000000000E+00 -0.43465463873E+03  0.43465463874E+03  0.25500000000E-02 0. -1.
    8880022    1    1    2    0    0  0.31063331094E+03 -0.53515956509E+03  0.11566490768E+03  0.64781080406E+03  0.15294330000E+03 0.  0.
    8880022    1    1    2    0    0 -0.31063331094E+03  0.53515956509E+03  0.43391622258E+03  0.77107960367E+03  0.15294330000E+03 0.  1.
<mgrwt>
<rscale>  0 0.63740134E+03</rscale>
<asrwt>0</asrwt>
<pdfrwt beam="1">  1        2 0.66869945E-01 0.63740134E+03</pdfrwt>
<pdfrwt beam="2">  1       -2 0.15142089E+00 0.63740134E+03</pdfrwt>
<totfact> 0.21642997E+01</totfact>
</mgrwt>
</event>
<event>
 4    1  0.5387657E-008  0.9241130E+03  0.7818608E-02  0.9395931E-01
          2   -1    0    0  501    0  0.00000000000E+00  0.00000000000E+00  0.15369119438E+04  0.15369119439E+04  0.25500000000E-02 0. -1.
         -2   -1    0    0    0  501 -0.00000000000E+00 -0.00000000000E+00 -0.79139302645E+03  0.79139302645E+03  0.25500000000E-02 0.  1.
    8880022    1    1    2    0    0  0.88511080742E+03 -0.21719140499E+03  0.10081391360E+04  0.13675998751E+04  0.15294330000E+03 0.  0.
    8880022    1    1    2    0    0 -0.88511080742E+03  0.21719140499E+03 -0.26262021856E+03  0.96070509524E+03  0.15294330000E+03 0.  0.
<mgrwt>
<rscale>  0 0.92411303E+03</rscale>
<asrwt>0</asrwt>
<pdfrwt beam="1">  1        2 0.23644799E+00 0.92411303E+03</pdfrwt>
<pdfrwt beam="2">  1       -2 0.12175277E+00 0.92411303E+03</pdfrwt>
<totfact> 0.62137815E+00</totfact>
</mgrwt>
</event>
<event>
 4    1  0.5387657E-008  0.6011579E+03  0.7818608E-02  0.9903007E-01
         -2   -1    0    0    0  501 -0.00000000000E+00  0.00000000000E+00  0.22474684790E+03  0.22474684792E+03  0.25500000000E-02 0.  1.
          2   -1    0    0  501    0  0.00000000000E+00 -0.00000000000E+00 -0.27841401135E+04  0.27841401135E+04  0.25500000000E-02 0. -1.
    8880022    1    1    2    0    0  0.57736424378E+03  0.68188665232E+02 -0.22575226782E+04  0.23361933695E+04  0.15294330000E+03 0.  0.
    8880022    1    1    2    0    0 -0.57736424378E+03 -0.68188665232E+02 -0.30187058740E+03  0.67269359193E+03  0.15294330000E+03 0.  0.
<mgrwt>
<rscale>  0 0.60115790E+03</rscale>
<asrwt>0</asrwt>
<pdfrwt beam="1">  1        2 0.42832922E+00 0.60115790E+03</pdfrwt>
<pdfrwt beam="2">  1       -2 0.34576440E-01 0.60115790E+03</pdfrwt>
<totfact> 0.20051655E+01</totfact>
</mgrwt>
</event>
<event>
 4    1  0.5387657E-008  0.6170815E+03  0.7818608E-02  0.9870588E-01
          2   -1    0    0  501    0  0.00000000000E+00  0.00000000000E+00  0.15851944942E+04  0.15851944942E+04  0.25500000000E-02 0. -1.
         -2   -1    0    0    0  501 -0.00000000000E+00 -0.00000000000E+00 -0.27351779514E+03  0.27351779515E+03  0.25500000000E-02 0.  1.
    8880022    1    1    2    0    0  0.73995807160E+02  0.59323055405E+03  0.33155743803E+03  0.70051399519E+03  0.15294330000E+03 0.  0.
    8880022    1    1    2    0    0 -0.73995807160E+02 -0.59323055405E+03  0.98011926099E+03  0.11581982941E+04  0.15294330000E+03 0.  0.
<mgrwt>
<rscale>  0 0.61708146E+03</rscale>
<asrwt>0</asrwt>
<pdfrwt beam="1">  1        2 0.24387608E+00 0.61708146E+03</pdfrwt>
<pdfrwt beam="2">  1       -2 0.42079659E-01 0.61708146E+03</pdfrwt>
<totfact> 0.63120472E+01</totfact>
</mgrwt>
</event>
<event>
 4    1  0.5387657E-008  0.2262039E+03  0.7818608E-02  0.1129341E+00
          2   -1    0    0  501    0  0.00000000000E+00  0.00000000000E+00  0.53269166364E+03  0.53269166365E+03  0.25500000000E-02 0. -1.
         -2   -1    0    0    0  501 -0.00000000000E+00 -0.00000000000E+00 -0.10916372969E+04  0.10916372969E+04  0.25500000000E-02 0.  1.
    8880022    1    1    2    0    0 -0.88770840714E+02  0.14105414852E+03 -0.10550824441E+04  0.10790584562E+04  0.15294330000E+03 0.  1.
    8880022    1    1    2    0    0  0.88770840714E+02 -0.14105414852E+03  0.49613681079E+03  0.54527050444E+03  0.15294330000E+03 0.  0.
<mgrwt>
<rscale>  0 0.22620386E+03</rscale>
<asrwt>0</asrwt>
<pdfrwt beam="1">  1        2 0.81952564E-01 0.22620386E+03</pdfrwt>
<pdfrwt beam="2">  1       -2 0.16794420E+00 0.22620386E+03</pdfrwt>
<totfact> 0.13990385E+01</totfact>
</mgrwt>
</event>
<event>
 4    1  0.5387657E-008  0.6041722E+03  0.7818608E-02  0.9896788E-01
         -2   -1    0    0    0  501 -0.00000000000E+00  0.00000000000E+00  0.17149465258E+03  0.17149465260E+03  0.25500000000E-02 0.  1.
          2   -1    0    0  501    0  0.00000000000E+00 -0.00000000000E+00 -0.21318386660E+04  0.21318386660E+04  0.25500000000E-02 0. -1.
    8880022    1    1    2    0    0 -0.30443460979E+03 -0.49895080470E+03 -0.10258425385E+04  0.11905363934E+04  0.15294330000E+03 0.  1.
    8880022    1    1    2    0    0  0.30443460979E+03  0.49895080470E+03 -0.93450147494E+03  0.11127969252E+04  0.15294330000E+03 0. -1.
<mgrwt>
<rscale>  0 0.60417215E+03</rscale>
<asrwt>0</asrwt>
<pdfrwt beam="1">  1        2 0.32797516E+00 0.60417215E+03</pdfrwt>
<pdfrwt beam="2">  1       -2 0.26383794E-01 0.60417215E+03</pdfrwt>
<totfact> 0.76925318E+01</totfact>
</mgrwt>
</event>
<event>
 4    1  0.5387657E-008  0.7845971E+03  0.7818608E-02  0.9582584E-01
         -2   -1    0    0    0  501 -0.00000000000E+00  0.00000000000E+00  0.26900856996E+03  0.26900856997E+03  0.25500000000E-02 0.  1.
          2   -1    0    0  501    0  0.00000000000E+00 -0.00000000000E+00 -0.24906000284E+04  0.24906000284E+04  0.25500000000E-02 0. -1.
    8880022    1    1    2    0    0 -0.75870143766E+03 -0.12873636447E+03 -0.71762371837E+03  0.10632856518E+04  0.15294330000E+03 0.  0.
    8880022    1    1    2    0    0  0.75870143766E+03  0.12873636447E+03 -0.15039677401E+04  0.16963229466E+04  0.15294330000E+03 0.  0.
<mgrwt>
<rscale>  0 0.78459708E+03</rscale>
<asrwt>0</asrwt>
<pdfrwt beam="1">  1        2 0.38316922E+00 0.78459708E+03</pdfrwt>
<pdfrwt beam="2">  1       -2 0.41385935E-01 0.78459708E+03</pdfrwt>
<totfact> 0.20279111E+01</totfact>
</mgrwt>
</event>
<event>
 4    1  0.5387657E-008  0.4967308E+03  0.7818608E-02  0.1014636E+00
          2   -1    0    0  501    0  0.00000000000E+00  0.00000000000E+00  0.11986360938E+04  0.11986360938E+04  0.25500000000E-02 0. -1.
         -2   -1    0    0    0  501 -0.00000000000E+00 -0.00000000000E+00 -0.23570389596E+03  0.23570389597E+03  0.25500000000E-02 0.  1.
    8880022    1    1    2    0    0 -0.31430837075E+03  0.35293066416E+03  0.22623959364E+03  0.54582580772E+03  0.15294330000E+03 0.  0.
    8880022    1    1    2    0    0  0.31430837075E+03 -0.35293066416E+03  0.73669260421E+03  0.88851418207E+03  0.15294330000E+03 0.  0.
<mgrwt>
<rscale>  0 0.49673077E+03</rscale>
<asrwt>0</asrwt>
<pdfrwt beam="1">  1        2 0.18440555E+00 0.49673077E+03</pdfrwt>
<pdfrwt beam="2">  1       -2 0.36262138E-01 0.49673077E+03</pdfrwt>
<totfact> 0.14078445E+02</totfact>
</mgrwt>
</event>
<event>
 4    1  0.5387657E-008  0.1740869E+03  0.7818608E-02  0.1173652E+00
         -2   -1    0    0    0  501 -0.00000000000E+00  0.00000000000E+00  0.18983357244E+02  0.18983357415E+02  0.25500000000E-02 0.  1.
          2   -1    0    0  501    0  0.00000000000E+00 -0.00000000000E+00 -0.16299057765E+04  0.16299057765E+04  0.25500000000E-02 0. -1.
    8880022    1    1    2    0    0  0.82099546365E+02 -0.13200631120E+02 -0.68736788314E+03  0.70907041397E+03  0.15294330000E+03 0.  0.
    8880022    1    1    2    0    0 -0.82099546365E+02  0.13200631120E+02 -0.92355453614E+03  0.93981871998E+03  0.15294330000E+03 0.  1.
<mgrwt>
<rscale>  0 0.17408689E+03</rscale>
<asrwt>0</asrwt>
<pdfrwt beam="1">  1        2 0.25075462E+00 0.17408689E+03</pdfrwt>
<pdfrwt beam="2">  1       -2 0.29205178E-02 0.17408689E+03</pdfrwt>
<totfact> 0.50926606E+03</totfact>
</mgrwt>
</event>
<event>
 4    1  0.5387657E-008  0.6034047E+03  0.7818608E-02  0.9898367E-01
          2   -1    0    0  501    0  0.00000000000E+00  0.00000000000E+00  0.53750845316E+03  0.53750845317E+03  0.25500000000E-02 0. -1.
         -2   -1    0    0    0  501 -0.00000000000E+00 -0.00000000000E+00 -0.18038204235E+04  0.18038204235E+04  0.25500000000E-02 0.  1.
    8880022    1    1    2    0    0  0.39455160086E+03  0.43015653360E+03  0.29194675258E+03  0.67032094440E+03  0.15294330000E+03 0.  0.
    8880022    1    1    2    0    0 -0.39455160086E+03 -0.43015653360E+03 -0.15582587229E+04  0.16710079323E+04  0.15294330000E+03 0.  0.
<mgrwt>
<rscale>  0 0.60340473E+03</rscale>
<asrwt>0</asrwt>
<pdfrwt beam="1">  1        2 0.82693609E-01 0.60340473E+03</pdfrwt>
<pdfrwt beam="2">  1       -2 0.27751083E+00 0.60340473E+03</pdfrwt>
<totfact> 0.26194937E+00</totfact>
</mgrwt>
</event>
<event>
 4    1  0.5387657E-008  0.6977161E+03  0.7818608E-02  0.9721146E-01
         -2   -1    0    0    0  501 -0.00000000000E+00  0.00000000000E+00  0.20750559360E+03  0.20750559362E+03  0.25500000000E-02 0.  1.
          2   -1    0    0  501    0  0.00000000000E+00 -0.00000000000E+00 -0.38455870462E+04  0.38455870462E+04  0.25500000000E-02 0. -1.
    8880022    1    1    2    0    0  0.13183594102E+03  0.66785878860E+03 -0.30845383260E+04  0.31624649270E+04  0.15294330000E+03 0.  0.
    8880022    1    1    2    0    0 -0.13183594102E+03 -0.66785878860E+03 -0.55354312661E+03  0.89062771285E+03  0.15294330000E+03 0.  0.
<mgrwt>
<rscale>  0 0.69771608E+03</rscale>
<asrwt>0</asrwt>
<pdfrwt beam="1">  1        2 0.59162872E+00 0.69771608E+03</pdfrwt>
<pdfrwt beam="2">  1       -2 0.31923940E-01 0.69771608E+03</pdfrwt>
<totfact> 0.45933595E+00</totfact>
</mgrwt>
</event>
<event>
 4    1  0.5387657E-008  0.8749845E+03  0.7818608E-02  0.9457404E-01
         -2   -1    0    0    0  501 -0.00000000000E+00  0.00000000000E+00  0.45267546181E+03  0.45267546182E+03  0.25500000000E-02 0.  1.
          2   -1    0    0  501    0  0.00000000000E+00 -0.00000000000E+00 -0.20087081963E+04  0.20087081964E+04  0.25500000000E-02 0. -1.
    8880022    1    1    2    0    0 -0.52645187604E+03 -0.68194910755E+03 -0.28878039099E+03  0.92140758099E+03  0.15294330000E+03 0.  0.
    8880022    1    1    2    0    0  0.52645187604E+03  0.68194910755E+03 -0.12672523435E+04  0.15399760772E+04  0.15294330000E+03 0.  0.
<mgrwt>
<rscale>  0 0.87498447E+03</rscale>
<asrwt>0</asrwt>
<pdfrwt beam="1">  1        2 0.30903202E+00 0.87498447E+03</pdfrwt>
<pdfrwt beam="2">  1       -2 0.69642380E-01 0.87498447E+03</pdfrwt>
<totfact> 0.12641440E+01</totfact>
</mgrwt>
</event>
<event>
 4    1  0.5387657E-008  0.6516471E+03  0.7818608E-02  0.9803693E-01
          2   -1    0    0  501    0  0.00000000000E+00  0.00000000000E+00  0.34635665978E+04  0.34635665978E+04  0.25500000000E-02 0. -1.
         -2   -1    0    0    0  501 -0.00000000000E+00 -0.00000000000E+00 -0.35620366873E+03  0.35620366874E+03  0.25500000000E-02 0.  1.
    8880022    1    1    2    0    0 -0.58045234466E+03  0.25362831379E+03  0.70208387757E+01  0.65168488641E+03  0.15294330000E+03 0.  0.
    8880022    1    1    2    0    0  0.58045234466E+03 -0.25362831379E+03  0.31003420903E+04  0.31680853802E+04  0.15294330000E+03 0.  0.
<mgrwt>
<rscale>  0 0.65164707E+03</rscale>
<asrwt>0</asrwt>
<pdfrwt beam="1">  1        2 0.53285640E+00 0.65164707E+03</pdfrwt>
<pdfrwt beam="2">  1       -2 0.54800564E-01 0.65164707E+03</pdfrwt>
<totfact> 0.29971551E+00</totfact>
</mgrwt>
</event>
<event>
 4    1  0.5387657E-008  0.4629389E+03  0.7818608E-02  0.1023932E+00
          2   -1    0    0  501    0  0.00000000000E+00  0.00000000000E+00  0.31178695477E+03  0.31178695478E+03  0.25500000000E-02 0. -1.
         -2   -1    0    0    0  501 -0.00000000000E+00 -0.00000000000E+00 -0.15704377901E+04  0.15704377901E+04  0.25500000000E-02 0.  1.
    8880022    1    1    2    0    0  0.23145645182E+03 -0.37060578663E+03 -0.13350392271E+04  0.14130258770E+04  0.15294330000E+03 0.  0.
    8880022    1    1    2    0    0 -0.23145645182E+03  0.37060578663E+03  0.76388391795E+02  0.46919886785E+03  0.15294330000E+03 0.  0.
<mgrwt>
<rscale>  0 0.46293886E+03</rscale>
<asrwt>0</asrwt>
<pdfrwt beam="1">  1        2 0.47967225E-01 0.46293886E+03</pdfrwt>
<pdfrwt beam="2">  1       -2 0.24160581E+00 0.46293886E+03</pdfrwt>
<totfact> 0.81293252E+00</totfact>
</mgrwt>
</event>
<event>
 4    1  0.5387657E-008  0.6717559E+03  0.7818608E-02  0.9766791E-01
         -2   -1    0    0    0  501 -0.00000000000E+00  0.00000000000E+00  0.17105306715E+04  0.17105306715E+04  0.25500000000E-02 0.  1.
          2   -1    0    0  501    0  0.00000000000E+00 -0.00000000000E+00 -0.36077813508E+03  0.36077813509E+03  0.25500000000E-02 0. -1.
    8880022    1    1    2    0    0  0.28245971600E+03 -0.58998374662E+03  0.13795805617E+03  0.68577575833E+03  0.15294330000E+03 0. -1.
    8880022    1    1    2    0    0 -0.28245971600E+03  0.58998374662E+03  0.12117944802E+04  0.13855330482E+04  0.15294330000E+03 0.  0.
<mgrwt>
<rscale>  0 0.67175588E+03</rscale>
<asrwt>0</asrwt>
<pdfrwt beam="1">  1        2 0.55504329E-01 0.67175588E+03</pdfrwt>
<pdfrwt beam="2">  1       -2 0.26315856E+00 0.67175588E+03</pdfrwt>
<totfact> 0.49662454E+00</totfact>
</mgrwt>
</event>
<event>
 4    1  0.5387657E-008  0.2308116E+03  0.7818608E-02  0.1126070E+00
         -2   -1    0    0    0  501 -0.00000000000E+00  0.00000000000E+00  0.17459047719E+03  0.17459047721E+03  0.25500000000E-02 0.  1.
          2   -1    0    0  501    0  0.00000000000E+00 -0.00000000000E+00 -0.12224978597E+04  0.12224978597E+04  0.25500000000E-02 0. -1.
    8880022    1    1    2    0    0 -0.16862281345E+03  0.38061683334E+02  0.81164129766E+02  0.24466633182E+03  0.15294330000E+03 0.  0.
    8880022    1    1    2    0    0  0.16862281345E+03 -0.38061683334E+02 -0.11290715122E+04  0.11524220050E+04  0.15294330000E+03 0. -1.
<mgrwt>
<rscale>  0 0.23081161E+03</rscale>
<asrwt>0</asrwt>
<pdfrwt beam="1">  1        2 0.18807659E+00 0.23081161E+03</pdfrwt>
<pdfrwt beam="2">  1       -2 0.26860074E-01 0.23081161E+03</pdfrwt>
<totfact> 0.24635335E+02</totfact>
</mgrwt>
</event>
<event>
 4    1  0.5387657E-008  0.4127433E+03  0.7818608E-02  0.1039454E+00
         -2   -1    0    0    0  501 -0.00000000000E+00  0.00000000000E+00  0.52095548842E+03  0.52095548843E+03  0.25500000000E-02 0.  1.
          2   -1    0    0  501    0  0.00000000000E+00 -0.00000000000E+00 -0.40310008150E+03  0.40310008150E+03  0.25500000000E-02 0. -1.
    8880022    1    1    2    0    0  0.33950535751E+03  0.17804902020E+03  0.25966556349E+03  0.48763018697E+03  0.15294330000E+03 0.  0.
    8880022    1    1    2    0    0 -0.33950535751E+03 -0.17804902020E+03 -0.14181015656E+03  0.43642538296E+03  0.15294330000E+03 0.  0.
<mgrwt>
<rscale>  0 0.41274325E+03</rscale>
<asrwt>0</asrwt>
<pdfrwt beam="1">  1        2 0.62015397E-01 0.41274325E+03</pdfrwt>
<pdfrwt beam="2">  1       -2 0.80146998E-01 0.41274325E+03</pdfrwt>
<totfact> 0.11190867E+02</totfact>
</mgrwt>
</event>
<event>
 4    1  0.5387657E-008  0.3821032E+03  0.7818608E-02  0.1050159E+00
         -2   -1    0    0    0  501 -0.00000000000E+00  0.00000000000E+00  0.47302372708E+03  0.47302372708E+03  0.25500000000E-02 0.  1.
          2   -1    0    0  501    0  0.00000000000E+00 -0.00000000000E+00 -0.10148836766E+04  0.10148836766E+04  0.25500000000E-02 0. -1.
    8880022    1    1    2    0    0  0.34718968253E+03  0.45502736897E+02  0.34966656747E+03  0.51794742604E+03  0.15294330000E+03 0.  1.
    8880022    1    1    2    0    0 -0.34718968253E+03 -0.45502736897E+02 -0.89152651703E+03  0.96995997769E+03  0.15294330000E+03 0.  0.
<mgrwt>
<rscale>  0 0.38210316E+03</rscale>
<asrwt>0</asrwt>
<pdfrwt beam="1">  1        2 0.15613595E+00 0.38210316E+03</pdfrwt>
<pdfrwt beam="2">  1       -2 0.72772881E-01 0.38210316E+03</pdfrwt>
<totfact> 0.44727788E+01</totfact>
</mgrwt>
</event>
<event>
 4    1  0.6594178E-008  0.7227932E+03  0.7818608E-02  0.9679028E-01
         -2   -1    0    0    0  501 -0.00000000000E+00  0.00000000000E+00  0.13121076816E+04  0.13121076816E+04  0.25500000000E-02 0.  1.
          2   -1    0    0  501    0  0.00000000000E+00 -0.00000000000E+00 -0.15112648198E+04  0.15112648198E+04  0.25500000000E-02 0. -1.
    8880022    1    1    2    0    0  0.69905819910E+03  0.10176451247E+03  0.11119558194E+04  0.13262261417E+04  0.15294330000E+03 0.  0.
    8880022    1    1    2    0    0 -0.69905819910E+03 -0.10176451247E+03 -0.13111129576E+04  0.14971463597E+04  0.15294330000E+03 0.  0.
<mgrwt>
<rscale>  0 0.72279322E+03</rscale>
<asrwt>0</asrwt>
<pdfrwt beam="1">  1        2 0.23250228E+00 0.72279322E+03</pdfrwt>
<pdfrwt beam="2">  1       -2 0.20186272E+00 0.72279322E+03</pdfrwt>
<totfact> 0.16791166E+00</totfact>
</mgrwt>
</event>
<event>
 4    1  0.5387657E-008  0.5892481E+03  0.7818608E-02  0.9927967E-01
         -2   -1    0    0    0  501 -0.00000000000E+00  0.00000000000E+00  0.42744488967E+03  0.42744488967E+03  0.25500000000E-02 0.  1.
          2   -1    0    0  501    0  0.00000000000E+00 -0.00000000000E+00 -0.27380525338E+04  0.27380525338E+04  0.25500000000E-02 0. -1.
    8880022    1    1    2    0    0 -0.88684363243E+02 -0.56210033947E+03  0.17206420344E+03  0.61385621365E+03  0.15294330000E+03 0.  0.
    8880022    1    1    2    0    0  0.88684363243E+02  0.56210033947E+03 -0.24826718476E+04  0.25516412098E+04  0.15294330000E+03 0.  0.
<mgrwt>
<rscale>  0 0.58924813E+03</rscale>
<asrwt>0</asrwt>
<pdfrwt beam="1">  1        2 0.42123884E+00 0.58924813E+03</pdfrwt>
<pdfrwt beam="2">  1       -2 0.65760754E-01 0.58924813E+03</pdfrwt>
<totfact> 0.58644525E+00</totfact>
</mgrwt>
</event>
<event>
 4    1  0.5387657E-008  0.9962751E+03  0.7818608E-02  0.9312640E-01
          2   -1    0    0  501    0  0.00000000000E+00  0.00000000000E+00  0.16862946116E+04  0.16862946116E+04  0.25500000000E-02 0. -1.
         -2   -1    0    0    0  501 -0.00000000000E+00 -0.00000000000E+00 -0.88694569204E+03  0.88694569204E+03  0.25500000000E-02 0.  1.
    8880022    1    1    2    0    0  0.41486961513E+03 -0.89277971616E+03 -0.34652846200E+03  0.10548203862E+04  0.15294330000E+03 0.  0.
    8880022    1    1    2    0    0 -0.41486961513E+03  0.89277971616E+03  0.11458773816E+04  0.15184199175E+04  0.15294330000E+03 0.  0.
<mgrwt>
<rscale>  0 0.99627510E+03</rscale>
<asrwt>0</asrwt>
<pdfrwt beam="1">  1        2 0.25942994E+00 0.99627510E+03</pdfrwt>
<pdfrwt beam="2">  1       -2 0.13645318E+00 0.99627510E+03</pdfrwt>
<totfact> 0.38121549E+00</totfact>
</mgrwt>
</event>
<event>
 4    1  0.5387657E-008  0.4363490E+03  0.7818608E-02  0.1031873E+00
         -2   -1    0    0    0  501 -0.00000000000E+00  0.00000000000E+00  0.22090153231E+03  0.22090153233E+03  0.25500000000E-02 0.  1.
          2   -1    0    0  501    0  0.00000000000E+00 -0.00000000000E+00 -0.11716687174E+04  0.11716687174E+04  0.25500000000E-02 0. -1.
    8880022    1    1    2    0    0 -0.37943681005E+03 -0.15177788789E+03 -0.83338621448E+03  0.94070880488E+03  0.15294330000E+03 0.  0.
    8880022    1    1    2    0    0  0.37943681005E+03  0.15177788789E+03 -0.11738097062E+03  0.45186144486E+03  0.15294330000E+03 0.  0.
<mgrwt>
<rscale>  0 0.43634903E+03</rscale>
<asrwt>0</asrwt>
<pdfrwt beam="1">  1        2 0.18025672E+00 0.43634903E+03</pdfrwt>
<pdfrwt beam="2">  1       -2 0.33984852E-01 0.43634903E+03</pdfrwt>
<totfact> 0.16616911E+02</totfact>
</mgrwt>
</event>
<event>
 4    1  0.5387657E-008  0.1174680E+04  0.7818608E-02  0.9135312E-01
         -2   -1    0    0    0  501 -0.00000000000E+00  0.00000000000E+00  0.68044444208E+03  0.68044444208E+03  0.25500000000E-02 0.  1.
          2   -1    0    0  501    0  0.00000000000E+00 -0.00000000000E+00 -0.37047032503E+04  0.37047032503E+04  0.25500000000E-02 0. -1.
    8880022    1    1    2    0    0 -0.10938821400E+04 -0.39987936955E+03 -0.29872195671E+04  0.32098838050E+04  0.15294330000E+03 0.  0.
    8880022    1    1    2    0    0  0.10938821400E+04  0.39987936955E+03 -0.37039241077E+02  0.11752638873E+04  0.15294330000E+03 0.  0.
<mgrwt>
<rscale>  0 0.11746801E+04</rscale>
<asrwt>0</asrwt>
<pdfrwt beam="1">  1        2 0.56995434E+00 0.11746801E+04</pdfrwt>
<pdfrwt beam="2">  1       -2 0.10468376E+00 0.11746801E+04</pdfrwt>
<totfact> 0.43252683E-01</totfact>
</mgrwt>
</event>
<event>
 4    1  0.5387657E-008  0.4554791E+03  0.7818608E-02  0.1026101E+00
          2   -1    0    0  501    0  0.00000000000E+00  0.00000000000E+00  0.61963728701E+03  0.61963728701E+03  0.25500000000E-02 0. -1.
         -2   -1    0    0    0  501 -0.00000000000E+00 -0.00000000000E+00 -0.10905891698E+04  0.10905891698E+04  0.25500000000E-02 0.  1.
    8880022    1    1    2    0    0  0.25743214214E+03  0.34321749109E+03 -0.94732888689E+03  0.10511390141E+04  0.15294330000E+03 0.  0.
    8880022    1    1    2    0    0 -0.25743214214E+03 -0.34321749109E+03  0.47637700414E+03  0.65908744268E+03  0.15294330000E+03 0. -1.
<mgrwt>
<rscale>  0 0.45547910E+03</rscale>
<asrwt>0</asrwt>
<pdfrwt beam="1">  1        2 0.95328813E-01 0.45547910E+03</pdfrwt>
<pdfrwt beam="2">  1       -2 0.16778295E+00 0.45547910E+03</pdfrwt>
<totfact> 0.11147727E+01</totfact>
</mgrwt>
</event>
<event>
 4    1  0.5387657E-008  0.5562341E+03  0.7818608E-02  0.1000061E+00
          2   -1    0    0  501    0  0.00000000000E+00  0.00000000000E+00  0.21794339066E+04  0.21794339066E+04  0.25500000000E-02 0. -1.
         -2   -1    0    0    0  501 -0.00000000000E+00 -0.00000000000E+00 -0.32327707398E+03  0.32327707399E+03  0.25500000000E-02 0.  1.
    8880022    1    1    2    0    0 -0.52365858194E+03 -0.10856513267E+03 -0.90744768493E+01  0.55630809595E+03  0.15294330000E+03 0.  0.
    8880022    1    1    2    0    0  0.52365858194E+03  0.10856513267E+03  0.18652313095E+04  0.19464028847E+04  0.15294330000E+03 0.  0.
<mgrwt>
<rscale>  0 0.55623408E+03</rscale>
<asrwt>0</asrwt>
<pdfrwt beam="1">  1        2 0.33529753E+00 0.55623408E+03</pdfrwt>
<pdfrwt beam="2">  1       -2 0.49734934E-01 0.55623408E+03</pdfrwt>
<totfact> 0.21744968E+01</totfact>
</mgrwt>
</event>
<event>
 4    1  0.5387657E-008  0.1711694E+03  0.7818608E-02  0.1176634E+00
         -2   -1    0    0    0  501 -0.00000000000E+00  0.00000000000E+00  0.71759781405E+03  0.71759781406E+03  0.25500000000E-02 0.  1.
          2   -1    0    0  501    0  0.00000000000E+00 -0.00000000000E+00 -0.83314023709E+02  0.83314023748E+02  0.25500000000E-02 0. -1.
    8880022    1    1    2    0    0 -0.89364660128E+01 -0.76337755245E+02  0.31177200363E+02  0.17398558601E+03  0.15294330000E+03 0.  0.
    8880022    1    1    2    0    0  0.89364660128E+01  0.76337755245E+02  0.60310658998E+03  0.62692625180E+03  0.15294330000E+03 0.  0.
<mgrwt>
<rscale>  0 0.17116941E+03</rscale>
<asrwt>0</asrwt>
<pdfrwt beam="1">  1        2 0.12817542E-01 0.17116941E+03</pdfrwt>
<pdfrwt beam="2">  1       -2 0.11039967E+00 0.17116941E+03</pdfrwt>
<totfact> 0.31918536E+02</totfact>
</mgrwt>
</event>
<event>
 4    1  0.5387657E-008  0.8357739E+03  0.7818608E-02  0.9509632E-01
         -2   -1    0    0    0  501 -0.00000000000E+00  0.00000000000E+00  0.21915129583E+04  0.21915129583E+04  0.25500000000E-02 0.  1.
          2   -1    0    0  501    0  0.00000000000E+00 -0.00000000000E+00 -0.41247658827E+03  0.41247658827E+03  0.25500000000E-02 0. -1.
    8880022    1    1    2    0    0 -0.67862574161E+03  0.46324236427E+03  0.15102003072E+04  0.17260425853E+04  0.15294330000E+03 0.  0.
    8880022    1    1    2    0    0  0.67862574161E+03 -0.46324236427E+03  0.26883606286E+03  0.87794696134E+03  0.15294330000E+03 0.  0.
<mgrwt>
<rscale>  0 0.83577392E+03</rscale>
<asrwt>0</asrwt>
<pdfrwt beam="1">  1        2 0.63457934E-01 0.83577392E+03</pdfrwt>
<pdfrwt beam="2">  1       -2 0.33715585E+00 0.83577392E+03</pdfrwt>
<totfact> 0.14909588E+00</totfact>
</mgrwt>
</event>
<event>
 4    1  0.5387657E-008  0.1150204E+04  0.7818608E-02  0.9157596E-01
          2   -1    0    0  501    0  0.00000000000E+00  0.00000000000E+00  0.29993308647E+04  0.29993308647E+04  0.25500000000E-02 0. -1.
         -2   -1    0    0    0  501 -0.00000000000E+00 -0.00000000000E+00 -0.58004784789E+03  0.58004784790E+03  0.25500000000E-02 0.  1.
    8880022    1    1    2    0    0 -0.43540655641E+03  0.10535642284E+04  0.33366834857E+03  0.11976237609E+04  0.15294330000E+03 0.  0.
    8880022    1    1    2    0    0  0.43540655641E+03 -0.10535642284E+04  0.20856146682E+04  0.23817549517E+04  0.15294330000E+03 0.  0.
<mgrwt>
<rscale>  0 0.11502035E+04</rscale>
<asrwt>0</asrwt>
<pdfrwt beam="1">  1        2 0.46143551E+00 0.11502035E+04</pdfrwt>
<pdfrwt beam="2">  1       -2 0.89238132E-01 0.11502035E+04</pdfrwt>
<totfact> 0.18757249E+00</totfact>
</mgrwt>
</event>
<event>
 4    1  0.5387657E-008  0.3071743E+03  0.7818608E-02  0.1081708E+00
          2   -1    0    0  501    0  0.00000000000E+00  0.00000000000E+00  0.71569776133E+03  0.71569776133E+03  0.25500000000E-02 0. -1.
         -2   -1    0    0    0  501 -0.00000000000E+00 -0.00000000000E+00 -0.45114229062E+03  0.45114229063E+03  0.25500000000E-02 0.  1.
    8880022    1    1    2    0    0  0.26637944635E+03  0.25229066382E+01 -0.35854770691E+03  0.47213608806E+03  0.15294330000E+03 0.  0.
    8880022    1    1    2    0    0 -0.26637944635E+03 -0.25229066382E+01  0.62310317762E+03  0.69470396391E+03  0.15294330000E+03 0. -1.
<mgrwt>
<rscale>  0 0.30717426E+03</rscale>
<asrwt>0</asrwt>
<pdfrwt beam="1">  1        2 0.11010735E+00 0.30717426E+03</pdfrwt>
<pdfrwt beam="2">  1       -2 0.69406506E-01 0.30717426E+03</pdfrwt>
<totfact> 0.79841831E+01</totfact>
</mgrwt>
</event>
<event>
 4    1  0.5387657E-008  0.3917664E+03  0.7818608E-02  0.1046669E+00
         -2   -1    0    0    0  501 -0.00000000000E+00  0.00000000000E+00  0.94986357580E+02  0.94986357614E+02  0.25500000000E-02 0.  1.
          2   -1    0    0  501    0  0.00000000000E+00 -0.00000000000E+00 -0.25353423519E+04  0.25353423519E+04  0.25500000000E-02 0. -1.
    8880022    1    1    2    0    0  0.15442720439E+03 -0.32594709240E+03 -0.42814603595E+03  0.58033606610E+03  0.15294330000E+03 0.  0.
    8880022    1    1    2    0    0 -0.15442720439E+03  0.32594709240E+03 -0.20122099583E+04  0.20499926434E+04  0.15294330000E+03 0.  0.
<mgrwt>
<rscale>  0 0.39176641E+03</rscale>
<asrwt>0</asrwt>
<pdfrwt beam="1">  1        2 0.39005262E+00 0.39176641E+03</pdfrwt>
<pdfrwt beam="2">  1       -2 0.14613288E-01 0.39176641E+03</pdfrwt>
<totfact> 0.13348630E+02</totfact>
</mgrwt>
</event>
<event>
 4    1  0.5387657E-008  0.5381267E+03  0.7818608E-02  0.1004280E+00
          2   -1    0    0  501    0  0.00000000000E+00  0.00000000000E+00  0.82157261110E+03  0.82157261111E+03  0.25500000000E-02 0. -1.
         -2   -1    0    0    0  501 -0.00000000000E+00 -0.00000000000E+00 -0.43588376661E+03  0.43588376662E+03  0.25500000000E-02 0.  1.
    8880022    1    1    2    0    0 -0.24658284733E+03  0.45319491741E+03 -0.82194570745E+02  0.54436782991E+03  0.15294330000E+03 0.  0.
    8880022    1    1    2    0    0  0.24658284733E+03 -0.45319491741E+03  0.46788341523E+03  0.71308854782E+03  0.15294330000E+03 0.  0.
<mgrwt>
<rscale>  0 0.53812674E+03</rscale>
<asrwt>0</asrwt>
<pdfrwt beam="1">  1        2 0.12639579E+00 0.53812674E+03</pdfrwt>
<pdfrwt beam="2">  1       -2 0.67059042E-01 0.53812674E+03</pdfrwt>
<totfact> 0.70016268E+01</totfact>
</mgrwt>
</event>
<event>
 4    1  0.5387657E-008  0.9309342E+03  0.7818608E-02  0.9387717E-01
         -2   -1    0    0    0  501 -0.00000000000E+00  0.00000000000E+00  0.15553584468E+04  0.15553584468E+04  0.25500000000E-02 0.  1.
          2   -1    0    0  501    0  0.00000000000E+00 -0.00000000000E+00 -0.12775926547E+04  0.12775926547E+04  0.25500000000E-02 0. -1.
    8880022    1    1    2    0    0 -0.88272019978E+03 -0.25308471202E+03  0.12025333330E+04  0.15207645750E+04  0.15294330000E+03 0.  0.
    8880022    1    1    2    0    0  0.88272019978E+03  0.25308471202E+03 -0.92476754087E+03  0.13121865265E+04  0.15294330000E+03 0. -1.
<mgrwt>
<rscale>  0 0.93093420E+03</rscale>
<asrwt>0</asrwt>
<pdfrwt beam="1">  1        2 0.19655272E+00 0.93093420E+03</pdfrwt>
<pdfrwt beam="2">  1       -2 0.23928591E+00 0.93093420E+03</pdfrwt>
<totfact> 0.12822153E+00</totfact>
</mgrwt>
</event>
<event>
 4    1  0.5387657E-008  0.4516486E+03  0.7818608E-02  0.1027232E+00
          2   -1    0    0  501    0  0.00000000000E+00  0.00000000000E+00  0.25799963062E+04  0.25799963062E+04  0.25500000000E-02 0. -1.
         -2   -1    0    0    0  501 -0.00000000000E+00 -0.00000000000E+00 -0.12729048423E+03  0.12729048426E+03  0.25500000000E-02 0.  1.
    8880022    1    1    2    0    0 -0.37827024548E+03  0.19366575186E+03  0.20595471547E+04  0.21084878319E+04  0.15294330000E+03 0.  0.
    8880022    1    1    2    0    0  0.37827024548E+03 -0.19366575186E+03  0.39315866733E+03  0.59879895856E+03  0.15294330000E+03 0.  0.
<mgrwt>
<rscale>  0 0.45164860E+03</rscale>
<asrwt>0</asrwt>
<pdfrwt beam="1">  1        2 0.39692251E+00 0.45164860E+03</pdfrwt>
<pdfrwt beam="2">  1       -2 0.19583152E-01 0.45164860E+03</pdfrwt>
<totfact> 0.75692132E+01</totfact>
</mgrwt>
</event>
<event>
 4    1  0.5387657E-008  0.3232664E+03  0.7818608E-02  0.1074156E+00
          2   -1    0    0  501    0  0.00000000000E+00  0.00000000000E+00  0.39944393561E+03  0.39944393562E+03  0.25500000000E-02 0. -1.
         -2   -1    0    0    0  501 -0.00000000000E+00 -0.00000000000E+00 -0.39228154344E+03  0.39228154345E+03  0.25500000000E-02 0.  1.
    8880022    1    1    2    0    0 -0.17868959596E+03 -0.22176457331E+03  0.23204914736E+03  0.39792958860E+03  0.15294330000E+03 0. -1.
    8880022    1    1    2    0    0  0.17868959596E+03  0.22176457331E+03 -0.22488675519E+03  0.39379589047E+03  0.15294330000E+03 0.  0.
<mgrwt>
<rscale>  0 0.32326638E+03</rscale>
<asrwt>0</asrwt>
<pdfrwt beam="1">  1        2 0.61452913E-01 0.32326638E+03</pdfrwt>
<pdfrwt beam="2">  1       -2 0.60351007E-01 0.32326638E+03</pdfrwt>
<totfact> 0.20983609E+02</totfact>
</mgrwt>
</event>
<event>
 4    1  0.5387657E-008  0.6961078E+03  0.7818608E-02  0.9723912E-01
          2   -1    0    0  501    0  0.00000000000E+00  0.00000000000E+00  0.17733028033E+04  0.17733028033E+04  0.25500000000E-02 0. -1.
         -2   -1    0    0    0  501 -0.00000000000E+00 -0.00000000000E+00 -0.49210009374E+03  0.49210009375E+03  0.25500000000E-02 0.  1.
    8880022    1    1    2    0    0  0.52624566486E+02 -0.67705615167E+03  0.13959647297E+04  0.15598985727E+04  0.15294330000E+03 0.  0.
    8880022    1    1    2    0    0 -0.52624566486E+02  0.67705615167E+03 -0.11476202007E+03  0.70550432442E+03  0.15294330000E+03 0.  0.
<mgrwt>
<rscale>  0 0.69610777E+03</rscale>
<asrwt>0</asrwt>
<pdfrwt beam="1">  1        2 0.27281581E+00 0.69610777E+03</pdfrwt>
<pdfrwt beam="2">  1       -2 0.75707708E-01 0.69610777E+03</pdfrwt>
<totfact> 0.14489482E+01</totfact>
</mgrwt>
</event>
<event>
 4    1  0.5387657E-008  0.6973272E+03  0.7818608E-02  0.9721814E-01
         -2   -1    0    0    0  501 -0.00000000000E+00  0.00000000000E+00  0.36210003885E+03  0.36210003886E+03  0.25500000000E-02 0.  1.
          2   -1    0    0  501    0  0.00000000000E+00 -0.00000000000E+00 -0.22515464031E+04  0.22515464031E+04  0.25500000000E-02 0. -1.
    8880022    1    1    2    0    0  0.50716907138E+03 -0.45348995542E+03 -0.11454156925E+03  0.70667179846E+03  0.15294330000E+03 0.  0.
    8880022    1    1    2    0    0 -0.50716907138E+03  0.45348995542E+03 -0.17749047950E+04  0.19069746435E+04  0.15294330000E+03 0.  0.
<mgrwt>
<rscale>  0 0.69732723E+03</rscale>
<asrwt>0</asrwt>
<pdfrwt beam="1">  1        2 0.34639175E+00 0.69732723E+03</pdfrwt>
<pdfrwt beam="2">  1       -2 0.55707700E-01 0.69732723E+03</pdfrwt>
<totfact> 0.15341294E+01</totfact>
</mgrwt>
</event>
<event>
 4    1  0.5387657E-008  0.8814827E+03  0.7818608E-02  0.9449030E-01
          2   -1    0    0  501    0  0.00000000000E+00  0.00000000000E+00  0.14027874074E+04  0.14027874074E+04  0.25500000000E-02 0. -1.
         -2   -1    0    0    0  501 -0.00000000000E+00 -0.00000000000E+00 -0.59391465838E+03  0.59391465839E+03  0.25500000000E-02 0.  1.
    8880022    1    1    2    0    0  0.69761517804E+03  0.51667502084E+03  0.14531637618E+03  0.89338038707E+03  0.15294330000E+03 0.  0.
    8880022    1    1    2    0    0 -0.69761517804E+03 -0.51667502084E+03  0.66355637283E+03  0.11033216787E+04  0.15294330000E+03 0.  0.
<mgrwt>
<rscale>  0 0.88148265E+03</rscale>
<asrwt>0</asrwt>
<pdfrwt beam="1">  1        2 0.21581345E+00 0.88148265E+03</pdfrwt>
<pdfrwt beam="2">  1       -2 0.91371486E-01 0.88148265E+03</pdfrwt>
<totfact> 0.14819866E+01</totfact>
</mgrwt>
</event>
<event>
 4    1  0.5663882E-008  0.6129643E+03  0.7818608E-02  0.9878868E-01
          2   -1    0    0  501    0  0.00000000000E+00  0.00000000000E+00  0.14668413092E+04  0.14668413092E+04  0.25500000000E-02 0. -1.
         -2   -1    0    0    0  501 -0.00000000000E+00 -0.00000000000E+00 -0.13358992570E+04  0.13358992570E+04  0.25500000000E-02 0.  1.
    8880022    1    1    2    0    0  0.50963480099E+03 -0.30431218107E+03  0.13253486380E+04  0.14602308719E+04  0.15294330000E+03 0.  0.
    8880022    1    1    2    0    0 -0.50963480099E+03  0.30431218107E+03 -0.11944065858E+04  0.13425096943E+04  0.15294330000E+03 0.  0.
<mgrwt>
<rscale>  0 0.61296426E+03</rscale>
<asrwt>0</asrwt>
<pdfrwt beam="1">  1        2 0.22566789E+00 0.61296426E+03</pdfrwt>
<pdfrwt beam="2">  1       -2 0.20552296E+00 0.61296426E+03</pdfrwt>
<totfact> 0.17216680E+00</totfact>
</mgrwt>
</event>
<event>
 4    1  0.5387657E-008  0.2814940E+03  0.7818608E-02  0.1094876E+00
          2   -1    0    0  501    0  0.00000000000E+00  0.00000000000E+00  0.43638908442E+04  0.43638908442E+04  0.25500000000E-02 0. -1.
         -2   -1    0    0    0  501 -0.00000000000E+00 -0.00000000000E+00 -0.62499630518E+02  0.62499630570E+02  0.25500000000E-02 0.  1.
    8880022    1    1    2    0    0  0.39012815112E+02  0.23307773305E+03  0.28651683515E+03  0.40166002942E+03  0.15294330000E+03 0.  0.
    8880022    1    1    2    0    0 -0.39012815112E+02 -0.23307773305E+03  0.40148743785E+04  0.40247304454E+04  0.15294330000E+03 0. -1.
<mgrwt>
<rscale>  0 0.28149402E+03</rscale>
<asrwt>0</asrwt>
<pdfrwt beam="1">  1        2 0.67136789E+00 0.28149402E+03</pdfrwt>
<pdfrwt beam="2">  1       -2 0.96153267E-02 0.28149402E+03</pdfrwt>
<totfact> 0.15863858E+01</totfact>
</mgrwt>
</event>
<event>
 4    1  0.5387657E-008  0.2668493E+03  0.7818608E-02  0.1103096E+00
          2   -1    0    0  501    0  0.00000000000E+00  0.00000000000E+00  0.94386071386E+03  0.94386071386E+03  0.25500000000E-02 0. -1.
         -2   -1    0    0    0  501 -0.00000000000E+00 -0.00000000000E+00 -0.18609672541E+03  0.18609672543E+03  0.25500000000E-02 0.  1.
    8880022    1    1    2    0    0 -0.15641073806E+03  0.15281546880E+03  0.81453826084E+03  0.85713541396E+03  0.15294330000E+03 0.  0.
    8880022    1    1    2    0    0  0.15641073806E+03 -0.15281546880E+03 -0.56774272394E+02  0.27282202533E+03  0.15294330000E+03 0.  0.
<mgrwt>
<rscale>  0 0.26684928E+03</rscale>
<asrwt>0</asrwt>
<pdfrwt beam="1">  1        2 0.14520934E+00 0.26684928E+03</pdfrwt>
<pdfrwt beam="2">  1       -2 0.28630265E-01 0.26684928E+03</pdfrwt>
<totfact> 0.31965982E+02</totfact>
</mgrwt>
</event>
<event>
 4    1  0.5387657E-008  0.6003519E+03  0.7818608E-02  0.9904676E-01
         -2   -1    0    0    0  501 -0.00000000000E+00  0.00000000000E+00  0.62695413246E+03  0.62695413246E+03  0.25500000000E-02 0.  1.
          2   -1    0    0  501    0  0.00000000000E+00 -0.00000000000E+00 -0.14809392551E+04  0.14809392551E+04  0.25500000000E-02 0. -1.
    8880022    1    1    2    0    0 -0.44685932104E+03  0.37060431126E+03  0.39738977800E+03  0.71995909398E+03  0.15294330000E+03 0.  0.
    8880022    1    1    2    0    0  0.44685932104E+03 -0.37060431126E+03 -0.12513749006E+04  0.13879342935E+04  0.15294330000E+03 0.  0.
<mgrwt>
<rscale>  0 0.60035195E+03</rscale>
<asrwt>0</asrwt>
<pdfrwt beam="1">  1        2 0.22783681E+00 0.60035195E+03</pdfrwt>
<pdfrwt beam="2">  1       -2 0.96454482E-01 0.60035195E+03</pdfrwt>
<totfact> 0.12253701E+01</totfact>
</mgrwt>
</event>
<event>
 4    1  0.5387657E-008  0.8870753E+03  0.7818608E-02  0.9441884E-01
          2   -1    0    0  501    0  0.00000000000E+00  0.00000000000E+00  0.98511396571E+03  0.98511396571E+03  0.25500000000E-02 0. -1.
         -2   -1    0    0    0  501 -0.00000000000E+00 -0.00000000000E+00 -0.11372163535E+04  0.11372163535E+04  0.25500000000E-02 0.  1.
    8880022    1    1    2    0    0  0.77859966663E+03  0.39660245451E+03  0.50283247369E+03  0.10196779381E+04  0.15294330000E+03 0.  0.
    8880022    1    1    2    0    0 -0.77859966663E+03 -0.39660245451E+03 -0.65493486143E+03  0.11026523811E+04  0.15294330000E+03 0.  0.
<mgrwt>
<rscale>  0 0.88707531E+03</rscale>
<asrwt>0</asrwt>
<pdfrwt beam="1">  1        2 0.15155600E+00 0.88707531E+03</pdfrwt>
<pdfrwt beam="2">  1       -2 0.17495636E+00 0.88707531E+03</pdfrwt>
<totfact> 0.50801605E+00</totfact>
</mgrwt>
</event>
<event>
 4    1  0.5387657E-008  0.8072921E+03  0.7818608E-02  0.9549522E-01
          2   -1    0    0  501    0  0.00000000000E+00  0.00000000000E+00  0.99597790388E+03  0.99597790388E+03  0.25500000000E-02 0. -1.
         -2   -1    0    0    0  501 -0.00000000000E+00 -0.00000000000E+00 -0.76332219878E+03  0.76332219879E+03  0.25500000000E-02 0.  1.
    8880022    1    1    2    0    0 -0.33898535307E+03 -0.71653174859E+03 -0.21603248042E+03  0.83569761394E+03  0.15294330000E+03 0.  0.
    8880022    1    1    2    0    0  0.33898535307E+03  0.71653174859E+03  0.44868818552E+03  0.92360248873E+03  0.15294330000E+03 0.  0.
<mgrwt>
<rscale>  0 0.80729206E+03</rscale>
<asrwt>0</asrwt>
<pdfrwt beam="1">  1        2 0.15322737E+00 0.80729206E+03</pdfrwt>
<pdfrwt beam="2">  1       -2 0.11743418E+00 0.80729206E+03</pdfrwt>
<totfact> 0.14344521E+01</totfact>
</mgrwt>
</event>
<event>
 4    1  0.5387657E-008  0.8991371E+03  0.7818608E-02  0.9426661E-01
          2   -1    0    0  501    0  0.00000000000E+00  0.00000000000E+00  0.33345007020E+04  0.33345007020E+04  0.25500000000E-02 0. -1.
         -2   -1    0    0    0  501 -0.00000000000E+00 -0.00000000000E+00 -0.53626416384E+03  0.53626416384E+03  0.25500000000E-02 0.  1.
    8880022    1    1    2    0    0  0.27898829796E+02 -0.88559448885E+03 -0.33446399351E+02  0.89975899997E+03  0.15294330000E+03 0.  0.
    8880022    1    1    2    0    0 -0.27898829796E+02  0.88559448885E+03  0.28316829375E+04  0.29710058658E+04  0.15294330000E+03 0. -1.
<mgrwt>
<rscale>  0 0.89913714E+03</rscale>
<asrwt>0</asrwt>
<pdfrwt beam="1">  1        2 0.51300010E+00 0.89913714E+03</pdfrwt>
<pdfrwt beam="2">  1       -2 0.82502180E-01 0.89913714E+03</pdfrwt>
<totfact> 0.14276450E+00</totfact>
</mgrwt>
</event>
<event>
 4    1  0.5387657E-008  0.8375040E+03  0.7818608E-02  0.9507264E-01
         -2   -1    0    0    0  501 -0.00000000000E+00  0.00000000000E+00  0.11449103688E+04  0.11449103688E+04  0.25500000000E-02 0.  1.
          2   -1    0    0  501    0  0.00000000000E+00 -0.00000000000E+00 -0.96846988296E+03  0.96846988297E+03  0.25500000000E-02 0. -1.
    8880022    1    1    2    0    0  0.80821614431E+03  0.15750558956E+03 -0.55229342849E+03  0.10032153462E+04  0.15294330000E+03 0.  0.
    8880022    1    1    2    0    0 -0.80821614431E+03 -0.15750558956E+03  0.72873391435E+03  0.11101649056E+04  0.15294330000E+03 0.  0.
<mgrwt>
<rscale>  0 0.83750403E+03</rscale>
<asrwt>0</asrwt>
<pdfrwt beam="1">  1        2 0.14899537E+00 0.83750403E+03</pdfrwt>
<pdfrwt beam="2">  1       -2 0.17614006E+00 0.83750403E+03</pdfrwt>
<totfact> 0.51396192E+00</totfact>
</mgrwt>
</event>
<event>
 4    1  0.5387657E-008  0.8047738E+03  0.7818608E-02  0.9553133E-01
         -2   -1    0    0    0  501 -0.00000000000E+00  0.00000000000E+00  0.13099346265E+04  0.13099346265E+04  0.25500000000E-02 0.  1.
          2   -1    0    0  501    0  0.00000000000E+00 -0.00000000000E+00 -0.60702581561E+03  0.60702581562E+03  0.25500000000E-02 0. -1.
    8880022    1    1    2    0    0 -0.23549160008E+03 -0.75419688557E+03 -0.61360673634E+02  0.80710967111E+03  0.15294330000E+03 0.  0.
    8880022    1    1    2    0    0  0.23549160008E+03  0.75419688557E+03  0.76426948448E+03  0.11098507710E+04  0.15294330000E+03 0.  0.
<mgrwt>
<rscale>  0 0.80477381E+03</rscale>
<asrwt>0</asrwt>
<pdfrwt beam="1">  1        2 0.93388588E-01 0.80477381E+03</pdfrwt>
<pdfrwt beam="2">  1       -2 0.20152840E+00 0.80477381E+03</pdfrwt>
<totfact> 0.64441698E+00</totfact>
</mgrwt>
</event>
<event>
 4    1  0.5387657E-008  0.1916600E+03  0.7818608E-02  0.1156973E+00
         -2   -1    0    0    0  501 -0.00000000000E+00  0.00000000000E+00  0.11878528980E+03  0.11878528983E+03  0.25500000000E-02 0.  1.
          2   -1    0    0  501    0  0.00000000000E+00 -0.00000000000E+00 -0.10887312921E+04  0.10887312921E+04  0.25500000000E-02 0. -1.
    8880022    1    1    2    0    0  0.11493172977E+03 -0.11514945481E+02  0.25893566722E+02  0.19340120550E+03  0.15294330000E+03 0.  0.
    8880022    1    1    2    0    0 -0.11493172977E+03  0.11514945481E+02 -0.99583956900E+03  0.10141153764E+04  0.15294330000E+03 0.  0.
<mgrwt>
<rscale>  0 0.19165998E+03</rscale>
<asrwt>0</asrwt>
<pdfrwt beam="1">  1        2 0.16749712E+00 0.19165998E+03</pdfrwt>
<pdfrwt beam="2">  1       -2 0.18274661E-01 0.19165998E+03</pdfrwt>
<totfact> 0.57626088E+02</totfact>
</mgrwt>
</event>
<event>
 4    1  0.5387657E-008  0.3186952E+03  0.7818608E-02  0.1076251E+00
          2   -1    0    0  501    0  0.00000000000E+00  0.00000000000E+00  0.20356585494E+04  0.20356585494E+04  0.25500000000E-02 0. -1.
         -2   -1    0    0    0  501 -0.00000000000E+00 -0.00000000000E+00 -0.67951812442E+02  0.67951812490E+02  0.25500000000E-02 0.  1.
    8880022    1    1    2    0    0 -0.70585760074E+02  0.27054135789E+03  0.15260669817E+04  0.15589891152E+04  0.15294330000E+03 0.  0.
    8880022    1    1    2    0    0  0.70585760074E+02 -0.27054135789E+03  0.44163975531E+03  0.54462124668E+03  0.15294330000E+03 0.  0.
<mgrwt>
<rscale>  0 0.31869520E+03</rscale>
<asrwt>0</asrwt>
<pdfrwt beam="1">  1        2 0.31317817E+00 0.31869520E+03</pdfrwt>
<pdfrwt beam="2">  1       -2 0.10454127E-01 0.31869520E+03</pdfrwt>
<totfact> 0.43695402E+02</totfact>
</mgrwt>
</event>
<event>
 4    1  0.5387657E-008  0.7778268E+03  0.7818608E-02  0.9592678E-01
         -2   -1    0    0    0  501 -0.00000000000E+00  0.00000000000E+00  0.23428487908E+04  0.23428487908E+04  0.25500000000E-02 0.  1.
          2   -1    0    0  501    0  0.00000000000E+00 -0.00000000000E+00 -0.46960221348E+03  0.46960221349E+03  0.25500000000E-02 0. -1.
    8880022    1    1    2    0    0  0.11803746520E+03  0.75345207807E+03  0.18800426362E+04  0.20345945159E+04  0.15294330000E+03 0.  0.
    8880022    1    1    2    0    0 -0.11803746520E+03 -0.75345207807E+03 -0.67960588636E+01  0.77785648842E+03  0.15294330000E+03 0.  0.
<mgrwt>
<rscale>  0 0.77782680E+03</rscale>
<asrwt>0</asrwt>
<pdfrwt beam="1">  1        2 0.72246496E-01 0.77782680E+03</pdfrwt>
<pdfrwt beam="2">  1       -2 0.36043827E+00 0.77782680E+03</pdfrwt>
<totfact> 0.93001482E-01</totfact>
</mgrwt>
</event>
<event>
 4    1  0.5387657E-008  0.1659552E+03  0.7818608E-02  0.1182133E+00
         -2   -1    0    0    0  501 -0.00000000000E+00  0.00000000000E+00  0.42103945325E+03  0.42103945326E+03  0.25500000000E-02 0.  1.
          2   -1    0    0  501    0  0.00000000000E+00 -0.00000000000E+00 -0.54588103053E+03  0.54588103054E+03  0.25500000000E-02 0. -1.
    8880022    1    1    2    0    0  0.63638234537E+02  0.99820868061E+01  0.39114926156E+03  0.42489865237E+03  0.15294330000E+03 0.  1.
    8880022    1    1    2    0    0 -0.63638234537E+02 -0.99820868061E+01 -0.51599083884E+03  0.54202183142E+03  0.15294330000E+03 0.  0.
<mgrwt>
<rscale>  0 0.16595517E+03</rscale>
<asrwt>0</asrwt>
<pdfrwt beam="1">  1        2 0.83981697E-01 0.16595517E+03</pdfrwt>
<pdfrwt beam="2">  1       -2 0.64775300E-01 0.16595517E+03</pdfrwt>
<totfact> 0.13022630E+02</totfact>
</mgrwt>
</event>
<event>
 4    1  0.5387657E-008  0.5225824E+03  0.7818608E-02  0.1008047E+00
         -2   -1    0    0    0  501 -0.00000000000E+00  0.00000000000E+00  0.10830868886E+04  0.10830868886E+04  0.25500000000E-02 0.  1.
          2   -1    0    0  501    0  0.00000000000E+00 -0.00000000000E+00 -0.86461026898E+03  0.86461026899E+03  0.25500000000E-02 0. -1.
    8880022    1    1    2    0    0 -0.21366296886E+03 -0.45171769759E+03 -0.71040105352E+03  0.88190818821E+03  0.15294330000E+03 0.  0.
    8880022    1    1    2    0    0  0.21366296886E+03  0.45171769759E+03  0.92887767314E+03  0.10657889694E+04  0.15294330000E+03 0.  0.
<mgrwt>
<rscale>  0 0.52258243E+03</rscale>
<asrwt>0</asrwt>
<pdfrwt beam="1">  1        2 0.13301697E+00 0.52258243E+03</pdfrwt>
<pdfrwt beam="2">  1       -2 0.16662875E+00 0.52258243E+03</pdfrwt>
<totfact> 0.73578744E+00</totfact>
</mgrwt>
</event>
<event>
 4    1  0.5387657E-008  0.5271341E+03  0.7818608E-02  0.1006930E+00
         -2   -1    0    0    0  501 -0.00000000000E+00  0.00000000000E+00  0.23557959743E+03  0.23557959744E+03  0.25500000000E-02 0.  1.
          2   -1    0    0  501    0  0.00000000000E+00 -0.00000000000E+00 -0.26727399612E+04  0.26727399612E+04  0.25500000000E-02 0. -1.
    8880022    1    1    2    0    0 -0.48660921295E+03  0.13300435953E+03 -0.13166418201E+03  0.54332844176E+03  0.15294330000E+03 0.  0.
    8880022    1    1    2    0    0  0.48660921295E+03 -0.13300435953E+03 -0.23054961818E+04  0.23649911169E+04  0.15294330000E+03 0.  0.
<mgrwt>
<rscale>  0 0.52713408E+03</rscale>
<asrwt>0</asrwt>
<pdfrwt beam="1">  1        2 0.41119074E+00 0.52713408E+03</pdfrwt>
<pdfrwt beam="2">  1       -2 0.36243017E-01 0.52713408E+03</pdfrwt>
<totfact> 0.21616498E+01</totfact>
</mgrwt>
</event>
<event>
 4    1  0.5387657E-008  0.5940964E+03  0.7818608E-02  0.9917730E-01
          2   -1    0    0  501    0  0.00000000000E+00  0.00000000000E+00  0.53565747675E+03  0.53565747675E+03  0.25500000000E-02 0. -1.
         -2   -1    0    0    0  501 -0.00000000000E+00 -0.00000000000E+00 -0.10919881661E+04  0.10919881661E+04  0.25500000000E-02 0.  1.
    8880022    1    1    2    0    0 -0.55790637212E+03  0.13527529803E+03  0.23434609568E+03  0.63864596757E+03  0.15294330000E+03 0.  0.
    8880022    1    1    2    0    0  0.55790637212E+03 -0.13527529803E+03 -0.79067678502E+03  0.98899967528E+03  0.15294330000E+03 0.  0.
<mgrwt>
<rscale>  0 0.59409644E+03</rscale>
<asrwt>0</asrwt>
<pdfrwt beam="1">  1        2 0.82408843E-01 0.59409644E+03</pdfrwt>
<pdfrwt beam="2">  1       -2 0.16799818E+00 0.59409644E+03</pdfrwt>
<totfact> 0.12928220E+01</totfact>
</mgrwt>
</event>
<event>
 4    1  0.5387657E-008  0.7590513E+03  0.7818608E-02  0.9621256E-01
         -2   -1    0    0    0  501 -0.00000000000E+00  0.00000000000E+00  0.90991301243E+03  0.90991301243E+03  0.25500000000E-02 0.  1.
          2   -1    0    0  501    0  0.00000000000E+00 -0.00000000000E+00 -0.10965453256E+04  0.10965453256E+04  0.25500000000E-02 0. -1.
    8880022    1    1    2    0    0 -0.10334366223E+03  0.73626578261E+03 -0.74545226312E+03  0.10638881261E+04  0.15294330000E+03 0.  0.
    8880022    1    1    2    0    0  0.10334366223E+03 -0.73626578261E+03  0.55881994991E+03  0.94257021202E+03  0.15294330000E+03 0.  0.
<mgrwt>
<rscale>  0 0.75905129E+03</rscale>
<asrwt>0</asrwt>
<pdfrwt beam="1">  1        2 0.16869928E+00 0.75905129E+03</pdfrwt>
<pdfrwt beam="2">  1       -2 0.13998662E+00 0.75905129E+03</pdfrwt>
<totfact> 0.80063888E+00</totfact>
</mgrwt>
</event>
<event>
 4    1  0.5387657E-008  0.1535638E+03  0.7818608E-02  0.1196161E+00
         -2   -1    0    0    0  501 -0.00000000000E+00  0.00000000000E+00  0.22445447262E+03  0.22445447264E+03  0.25500000000E-02 0.  1.
          2   -1    0    0  501    0  0.00000000000E+00 -0.00000000000E+00 -0.10506313157E+03  0.10506313160E+03  0.25500000000E-02 0. -1.
    8880022    1    1    2    0    0  0.12597581305E+02 -0.56107644519E+01  0.59439408865E+02  0.16466595299E+03  0.15294330000E+03 0. -1.
    8880022    1    1    2    0    0 -0.12597581305E+02  0.56107644519E+01  0.59951932186E+02  0.16485165125E+03  0.15294330000E+03 0.  1.
<mgrwt>
<rscale>  0 0.15356377E+03</rscale>
<asrwt>0</asrwt>
<pdfrwt beam="1">  1        2 0.16163559E-01 0.15356377E+03</pdfrwt>
<pdfrwt beam="2">  1       -2 0.34531457E-01 0.15356377E+03</pdfrwt>
<totfact> 0.27255344E+03</totfact>
</mgrwt>
</event>
<event>
 4    1  0.5387657E-008  0.5240058E+03  0.7818608E-02  0.1007696E+00
          2   -1    0    0  501    0  0.00000000000E+00  0.00000000000E+00  0.15818500565E+04  0.15818500565E+04  0.25500000000E-02 0. -1.
         -2   -1    0    0    0  501 -0.00000000000E+00 -0.00000000000E+00 -0.23959999880E+03  0.23959999881E+03  0.25500000000E-02 0.  1.
    8880022    1    1    2    0    0 -0.14291752192E+03  0.48038004224E+03  0.11491738115E+04  0.12630053464E+04  0.15294330000E+03 0.  0.
    8880022    1    1    2    0    0  0.14291752192E+03 -0.48038004224E+03  0.19307624624E+03  0.55844470893E+03  0.15294330000E+03 0.  0.
<mgrwt>
<rscale>  0 0.52400578E+03</rscale>
<asrwt>0</asrwt>
<pdfrwt beam="1">  1        2 0.24336155E+00 0.52400578E+03</pdfrwt>
<pdfrwt beam="2">  1       -2 0.36861538E-01 0.52400578E+03</pdfrwt>
<totfact> 0.82925623E+01</totfact>
</mgrwt>
</event>
<event>
 4    1  0.5387657E-008  0.2716972E+03  0.7818608E-02  0.1100312E+00
         -2   -1    0    0    0  501 -0.00000000000E+00  0.00000000000E+00  0.38926187068E+03  0.38926187069E+03  0.25500000000E-02 0.  1.
          2   -1    0    0  501    0  0.00000000000E+00 -0.00000000000E+00 -0.77793442675E+03  0.77793442675E+03  0.25500000000E-02 0. -1.
    8880022    1    1    2    0    0 -0.19305061355E+03 -0.11471351058E+03  0.31316834631E+03  0.41460076585E+03  0.15294330000E+03 0.  0.
    8880022    1    1    2    0    0  0.19305061355E+03  0.11471351058E+03 -0.70184090237E+03  0.75259553159E+03  0.15294330000E+03 0. -1.
<mgrwt>
<rscale>  0 0.27169722E+03</rscale>
<asrwt>0</asrwt>
<pdfrwt beam="1">  1        2 0.11968222E+00 0.27169722E+03</pdfrwt>
<pdfrwt beam="2">  1       -2 0.59886442E-01 0.27169722E+03</pdfrwt>
<totfact> 0.98840436E+01</totfact>
</mgrwt>
</event>
<event>
 4    1  0.5387657E-008  0.4176538E+03  0.7818608E-02  0.1037833E+00
         -2   -1    0    0    0  501 -0.00000000000E+00  0.00000000000E+00  0.16133678965E+04  0.16133678965E+04  0.25500000000E-02 0.  1.
          2   -1    0    0  501    0  0.00000000000E+00 -0.00000000000E+00 -0.61273570366E+03  0.61273570366E+03  0.25500000000E-02 0. -1.
    8880022    1    1    2    0    0 -0.36141819924E+03 -0.14289845887E+03 -0.50977340457E+03  0.65901719349E+03  0.15294330000E+03 0.  0.
    8880022    1    1    2    0    0  0.36141819924E+03  0.14289845887E+03  0.15104055974E+04  0.15670864067E+04  0.15294330000E+03 0.  1.
<mgrwt>
<rscale>  0 0.41765385E+03</rscale>
<asrwt>0</asrwt>
<pdfrwt beam="1">  1        2 0.94267032E-01 0.41765385E+03</pdfrwt>
<pdfrwt beam="2">  1       -2 0.24821044E+00 0.41765385E+03</pdfrwt>
<totfact> 0.34951514E+00</totfact>
</mgrwt>
</event>
<event>
 4    1  0.5387657E-008  0.6308634E+03  0.7818608E-02  0.9843365E-01
         -2   -1    0    0    0  501 -0.00000000000E+00  0.00000000000E+00  0.13499792673E+03  0.13499792675E+03  0.25500000000E-02 0.  1.
          2   -1    0    0  501    0  0.00000000000E+00 -0.00000000000E+00 -0.42869045215E+04  0.42869045215E+04  0.25500000000E-02 0. -1.
    8880022    1    1    2    0    0  0.59160383423E+03 -0.15684966763E+03 -0.84039163714E+03  0.10508314193E+04  0.15294330000E+03 0.  0.
    8880022    1    1    2    0    0 -0.59160383423E+03  0.15684966763E+03 -0.33115149577E+04  0.33710710290E+04  0.15294330000E+03 0.  0.
<mgrwt>
<rscale>  0 0.63086335E+03</rscale>
<asrwt>0</asrwt>
<pdfrwt beam="1">  1        2 0.65952367E+00 0.63086335E+03</pdfrwt>
<pdfrwt beam="2">  1       -2 0.20768915E-01 0.63086335E+03</pdfrwt>
<totfact> 0.44871755E+00</totfact>
</mgrwt>
</event>
<event>
 4    1  0.5387657E-008  0.6090056E+03  0.7818608E-02  0.9886896E-01
         -2   -1    0    0    0  501 -0.00000000000E+00  0.00000000000E+00  0.62667938733E+03  0.62667938733E+03  0.25500000000E-02 0.  1.
          2   -1    0    0  501    0  0.00000000000E+00 -0.00000000000E+00 -0.39418389319E+04  0.39418389319E+04  0.25500000000E-02 0. -1.
    8880022    1    1    2    0    0  0.48666760341E+03 -0.33264219416E+03 -0.37633884063E+04  0.38123457523E+04  0.15294330000E+03 0.  0.
    8880022    1    1    2    0    0 -0.48666760341E+03  0.33264219416E+03  0.44822886169E+03  0.75617256695E+03  0.15294330000E+03 0.  1.
<mgrwt>
<rscale>  0 0.60900561E+03</rscale>
<asrwt>0</asrwt>
<pdfrwt beam="1">  1        2 0.60643674E+00 0.60900561E+03</pdfrwt>
<pdfrwt beam="2">  1       -2 0.96412216E-01 0.60900561E+03</pdfrwt>
<totfact> 0.39745802E-01</totfact>
</mgrwt>
</event>
<event>
 4    1  0.5387657E-008  0.3140826E+03  0.7818608E-02  0.1078405E+00
          2   -1    0    0  501    0  0.00000000000E+00  0.00000000000E+00  0.28991998381E+03  0.28991998383E+03  0.25500000000E-02 0. -1.
         -2   -1    0    0    0  501 -0.00000000000E+00 -0.00000000000E+00 -0.11151674591E+04  0.11151674591E+04  0.25500000000E-02 0.  1.
    8880022    1    1    2    0    0 -0.20724475961E+03  0.17973826532E+03  0.17301326638E+03  0.35858259546E+03  0.15294330000E+03 0.  0.
    8880022    1    1    2    0    0  0.20724475961E+03 -0.17973826532E+03 -0.99826074170E+03  0.10465048475E+04  0.15294330000E+03 0.  0.
<mgrwt>
<rscale>  0 0.31408261E+03</rscale>
<asrwt>0</asrwt>
<pdfrwt beam="1">  1        2 0.44603075E-01 0.31408261E+03</pdfrwt>
<pdfrwt beam="2">  1       -2 0.17156422E+00 0.31408261E+03</pdfrwt>
<totfact> 0.25222088E+01</totfact>
</mgrwt>
</event>
<event>
 4    1  0.5387657E-008  0.1151839E+04  0.7818608E-02  0.9156089E-01
         -2   -1    0    0    0  501 -0.00000000000E+00  0.00000000000E+00  0.17088470886E+04  0.17088470886E+04  0.25500000000E-02 0.  1.
          2   -1    0    0  501    0  0.00000000000E+00 -0.00000000000E+00 -0.14125031466E+04  0.14125031466E+04  0.25500000000E-02 0. -1.
    8880022    1    1    2    0    0 -0.10335277233E+04  0.48493421724E+03 -0.89916119774E+03  0.14612403165E+04  0.15294330000E+03 0.  0.
    8880022    1    1    2    0    0  0.10335277233E+04 -0.48493421724E+03  0.11955051398E+04  0.16601099187E+04  0.15294330000E+03 0.  0.
<mgrwt>
<rscale>  0 0.11518387E+04</rscale>
<asrwt>0</asrwt>
<pdfrwt beam="1">  1        2 0.21730818E+00 0.11518387E+04</pdfrwt>
<pdfrwt beam="2">  1       -2 0.26289955E+00 0.11518387E+04</pdfrwt>
<totfact> 0.74607250E-01</totfact>
</mgrwt>
</event>
<event>
 4    1  0.5387657E-008  0.5734738E+03  0.7818608E-02  0.9962021E-01
         -2   -1    0    0    0  501 -0.00000000000E+00  0.00000000000E+00  0.12814131672E+04  0.12814131672E+04  0.25500000000E-02 0.  1.
          2   -1    0    0  501    0  0.00000000000E+00 -0.00000000000E+00 -0.26279440036E+03  0.26279440037E+03  0.25500000000E-02 0. -1.
    8880022    1    1    2    0    0  0.51226355655E+03 -0.20752485926E+03  0.39122925739E+03  0.69421358632E+03  0.15294330000E+03 0.  0.
    8880022    1    1    2    0    0 -0.51226355655E+03  0.20752485926E+03  0.62738950941E+03  0.84999398122E+03  0.15294330000E+03 0.  1.
<mgrwt>
<rscale>  0 0.57347378E+03</rscale>
<asrwt>0</asrwt>
<pdfrwt beam="1">  1        2 0.40429908E-01 0.57347378E+03</pdfrwt>
<pdfrwt beam="2">  1       -2 0.19714049E+00 0.57347378E+03</pdfrwt>
<totfact> 0.18277703E+01</totfact>
</mgrwt>
</event>
<event>
 4    1  0.5387657E-008  0.3074883E+03  0.7818608E-02  0.1081556E+00
          2   -1    0    0  501    0  0.00000000000E+00  0.00000000000E+00  0.10648747493E+04  0.10648747493E+04  0.25500000000E-02 0. -1.
         -2   -1    0    0    0  501 -0.00000000000E+00 -0.00000000000E+00 -0.23958952283E+03  0.23958952285E+03  0.25500000000E-02 0.  1.
    8880022    1    1    2    0    0  0.26363892208E+03 -0.40644171850E+02  0.93009430977E+03  0.97960426093E+03  0.15294330000E+03 0.  0.
    8880022    1    1    2    0    0 -0.26363892208E+03  0.40644171850E+02 -0.10480908330E+03  0.32486001123E+03  0.15294330000E+03 0.  1.
<mgrwt>
<rscale>  0 0.30748835E+03</rscale>
<asrwt>0</asrwt>
<pdfrwt beam="1">  1        2 0.16382689E+00 0.30748835E+03</pdfrwt>
<pdfrwt beam="2">  1       -2 0.36859926E-01 0.30748835E+03</pdfrwt>
<totfact> 0.16780020E+02</totfact>
</mgrwt>
</event>
<event>
 4    1  0.5387657E-008  0.1589354E+03  0.7818608E-02  0.1189904E+00
          2   -1    0    0  501    0  0.00000000000E+00  0.00000000000E+00  0.15542596637E+03  0.15542596639E+03  0.25500000000E-02 0. -1.
         -2   -1    0    0    0  501 -0.00000000000E+00 -0.00000000000E+00 -0.41010897069E+03  0.41010897070E+03  0.25500000000E-02 0.  1.
    8880022    1    1    2    0    0  0.42711858174E+02 -0.66713992949E+01  0.92364474516E+02  0.18382507872E+03  0.15294330000E+03 0. -1.
    8880022    1    1    2    0    0 -0.42711858174E+02  0.66713992949E+01 -0.34704747883E+03  0.38170985837E+03  0.15294330000E+03 0.  0.
<mgrwt>
<rscale>  0 0.15893541E+03</rscale>
<asrwt>0</asrwt>
<pdfrwt beam="1">  1        2 0.23911687E-01 0.15893541E+03</pdfrwt>
<pdfrwt beam="2">  1       -2 0.63093687E-01 0.15893541E+03</pdfrwt>
<totfact> 0.53670026E+02</totfact>
</mgrwt>
</event>
<event>
 4    1  0.5387657E-008  0.4303867E+03  0.7818608E-02  0.1033738E+00
          2   -1    0    0  501    0  0.00000000000E+00  0.00000000000E+00  0.16909061638E+04  0.16909061638E+04  0.25500000000E-02 0. -1.
         -2   -1    0    0    0  501 -0.00000000000E+00 -0.00000000000E+00 -0.13342566920E+03  0.13342566922E+03  0.25500000000E-02 0.  1.
    8880022    1    1    2    0    0  0.26653794000E+03 -0.30132802685E+03  0.39284934793E+03  0.58272061609E+03  0.15294330000E+03 0.  0.
    8880022    1    1    2    0    0 -0.26653794000E+03  0.30132802685E+03  0.11646311466E+04  0.12416112169E+04  0.15294330000E+03 0.  0.
<mgrwt>
<rscale>  0 0.43038669E+03</rscale>
<asrwt>0</asrwt>
<pdfrwt beam="1">  1        2 0.26013943E+00 0.43038669E+03</pdfrwt>
<pdfrwt beam="2">  1       -2 0.20527025E-01 0.43038669E+03</pdfrwt>
<totfact> 0.21277612E+02</totfact>
</mgrwt>
</event>
<event>
 4    1  0.5387657E-008  0.6457384E+03  0.7818608E-02  0.9814809E-01
          2   -1    0    0  501    0  0.00000000000E+00  0.00000000000E+00  0.17501072068E+04  0.17501072068E+04  0.25500000000E-02 0. -1.
         -2   -1    0    0    0  501 -0.00000000000E+00 -0.00000000000E+00 -0.40208603070E+03  0.40208603071E+03  0.25500000000E-02 0.  1.
    8880022    1    1    2    0    0 -0.20571957776E+03  0.59267684764E+03  0.13608973110E+04  0.15063265033E+04  0.15294330000E+03 0.  0.
    8880022    1    1    2    0    0  0.20571957776E+03 -0.59267684764E+03 -0.12876134994E+02  0.64586673414E+03  0.15294330000E+03 0.  0.
<mgrwt>
<rscale>  0 0.64573837E+03</rscale>
<asrwt>0</asrwt>
<pdfrwt beam="1">  1        2 0.26924727E+00 0.64573837E+03</pdfrwt>
<pdfrwt beam="2">  1       -2 0.61859388E-01 0.64573837E+03</pdfrwt>
<totfact> 0.23293841E+01</totfact>
</mgrwt>
</event>
<event>
 4    1  0.5387657E-008  0.5089813E+03  0.7818608E-02  0.1011461E+00
         -2   -1    0    0    0  501 -0.00000000000E+00  0.00000000000E+00  0.28678953963E+03  0.28678953964E+03  0.25500000000E-02 0.  1.
          2   -1    0    0  501    0  0.00000000000E+00 -0.00000000000E+00 -0.15871523944E+04  0.15871523944E+04  0.25500000000E-02 0. -1.
    8880022    1    1    2    0    0  0.24594096151E+03 -0.41854911349E+03 -0.35156819123E+02  0.51019405317E+03  0.15294330000E+03 0.  0.
    8880022    1    1    2    0    0 -0.24594096151E+03  0.41854911349E+03 -0.12652060357E+04  0.13637478809E+04  0.15294330000E+03 0.  0.
<mgrwt>
<rscale>  0 0.50898131E+03</rscale>
<asrwt>0</asrwt>
<pdfrwt beam="1">  1        2 0.24417729E+00 0.50898131E+03</pdfrwt>
<pdfrwt beam="2">  1       -2 0.44121469E-01 0.50898131E+03</pdfrwt>
<totfact> 0.58228694E+01</totfact>
</mgrwt>
</event>
<event>
 4    1  0.5387657E-008  0.5188704E+03  0.7818608E-02  0.1008968E+00
         -2   -1    0    0    0  501 -0.00000000000E+00  0.00000000000E+00  0.49473420165E+03  0.49473420165E+03  0.25500000000E-02 0.  1.
          2   -1    0    0  501    0  0.00000000000E+00 -0.00000000000E+00 -0.14816234314E+04  0.14816234314E+04  0.25500000000E-02 0. -1.
    8880022    1    1    2    0    0 -0.28522092922E+03  0.40556612416E+03 -0.12794729357E+04  0.13806800881E+04  0.15294330000E+03 0.  0.
    8880022    1    1    2    0    0  0.28522092922E+03 -0.40556612416E+03  0.29258370595E+03  0.59567754493E+03  0.15294330000E+03 0.  0.
<mgrwt>
<rscale>  0 0.51887042E+03</rscale>
<asrwt>0</asrwt>
<pdfrwt beam="1">  1        2 0.22794206E+00 0.51887042E+03</pdfrwt>
<pdfrwt beam="2">  1       -2 0.76112955E-01 0.51887042E+03</pdfrwt>
<totfact> 0.21270296E+01</totfact>
</mgrwt>
</event>
<event>
 4    1  0.5387657E-008  0.6062674E+03  0.7818608E-02  0.9892488E-01
         -2   -1    0    0    0  501 -0.00000000000E+00  0.00000000000E+00  0.38281188049E+03  0.38281188050E+03  0.25500000000E-02 0.  1.
          2   -1    0    0  501    0  0.00000000000E+00 -0.00000000000E+00 -0.23326818810E+04  0.23326818810E+04  0.25500000000E-02 0. -1.
    8880022    1    1    2    0    0  0.54660426151E+03  0.21305464639E+03  0.66544920124E+02  0.60990850171E+03  0.15294330000E+03 0.  0.
    8880022    1    1    2    0    0 -0.54660426151E+03 -0.21305464639E+03 -0.20164149206E+04  0.21055852598E+04  0.15294330000E+03 0.  0.
<mgrwt>
<rscale>  0 0.60626739E+03</rscale>
<asrwt>0</asrwt>
<pdfrwt beam="1">  1        2 0.35887413E+00 0.60626739E+03</pdfrwt>
<pdfrwt beam="2">  1       -2 0.58894137E-01 0.60626739E+03</pdfrwt>
<totfact> 0.12521945E+01</totfact>
</mgrwt>
</event>
<event>
 4    1  0.5387657E-008  0.7004154E+03  0.7818608E-02  0.9716522E-01
          2   -1    0    0  501    0  0.00000000000E+00  0.00000000000E+00  0.51693015674E+03  0.51693015675E+03  0.25500000000E-02 0. -1.
         -2   -1    0    0    0  501 -0.00000000000E+00 -0.00000000000E+00 -0.13017312161E+04  0.13017312161E+04  0.25500000000E-02 0.  1.
    8880022    1    1    2    0    0 -0.32888501497E+03 -0.59918669512E+03  0.80930843448E+02  0.70507553008E+03  0.15294330000E+03 0.  0.
    8880022    1    1    2    0    0  0.32888501497E+03  0.59918669512E+03 -0.86573190281E+03  0.11135858428E+04  0.15294330000E+03 0.  0.
<mgrwt>
<rscale>  0 0.70041538E+03</rscale>
<asrwt>0</asrwt>
<pdfrwt beam="1">  1        2 0.79527717E-01 0.70041538E+03</pdfrwt>
<pdfrwt beam="2">  1       -2 0.20026634E+00 0.70041538E+03</pdfrwt>
<totfact> 0.80453863E+00</totfact>
</mgrwt>
</event>
<event>
 4    1  0.5387657E-008  0.9263895E+03  0.7818608E-02  0.9393181E-01
         -2   -1    0    0    0  501 -0.00000000000E+00  0.00000000000E+00  0.54173999990E+03  0.54173999991E+03  0.25500000000E-02 0.  1.
          2   -1    0    0  501    0  0.00000000000E+00 -0.00000000000E+00 -0.20235999353E+04  0.20235999353E+04  0.25500000000E-02 0. -1.
    8880022    1    1    2    0    0 -0.59626763612E+03 -0.69229383947E+03 -0.13386629518E+04  0.16279484038E+04  0.15294330000E+03 0.  0.
    8880022    1    1    2    0    0  0.59626763612E+03  0.69229383947E+03 -0.14319698367E+03  0.93739153143E+03  0.15294330000E+03 0.  0.
<mgrwt>
<rscale>  0 0.92638950E+03</rscale>
<asrwt>0</asrwt>
<pdfrwt beam="1">  1        2 0.31132306E+00 0.92638950E+03</pdfrwt>
<pdfrwt beam="2">  1       -2 0.83344616E-01 0.92638950E+03</pdfrwt>
<totfact> 0.82580523E+00</totfact>
</mgrwt>
</event>
<event>
 4    1  0.5387657E-008  0.6102565E+03  0.7818608E-02  0.9884353E-01
          2   -1    0    0  501    0  0.00000000000E+00  0.00000000000E+00  0.16357542670E+04  0.16357542670E+04  0.25500000000E-02 0. -1.
         -2   -1    0    0    0  501 -0.00000000000E+00 -0.00000000000E+00 -0.70097648654E+03  0.70097648655E+03  0.25500000000E-02 0.  1.
    8880022    1    1    2    0    0  0.60581818717E+00  0.59078000040E+03 -0.49267015107E+03  0.78430664071E+03  0.15294330000E+03 0.  0.
    8880022    1    1    2    0    0 -0.60581818717E+00 -0.59078000040E+03  0.14274479315E+04  0.15524241128E+04  0.15294330000E+03 0.  0.
<mgrwt>
<rscale>  0 0.61025653E+03</rscale>
<asrwt>0</asrwt>
<pdfrwt beam="1">  1        2 0.25165450E+00 0.61025653E+03</pdfrwt>
<pdfrwt beam="2">  1       -2 0.10784254E+00 0.61025653E+03</pdfrwt>
<totfact> 0.77160928E+00</totfact>
</mgrwt>
</event>
<event>
 4    1  0.5387657E-008  0.5186727E+03  0.7818608E-02  0.1009017E+00
         -2   -1    0    0    0  501 -0.00000000000E+00  0.00000000000E+00  0.29941309424E+03  0.29941309425E+03  0.25500000000E-02 0.  1.
          2   -1    0    0  501    0  0.00000000000E+00 -0.00000000000E+00 -0.98046233733E+03  0.98046233734E+03  0.25500000000E-02 0. -1.
    8880022    1    1    2    0    0 -0.46942341786E+03  0.15896959825E+03 -0.52555422489E+03  0.73839594712E+03  0.15294330000E+03 0.  0.
    8880022    1    1    2    0    0  0.46942341786E+03 -0.15896959825E+03 -0.15549501820E+03  0.54147948447E+03  0.15294330000E+03 0.  1.
<mgrwt>
<rscale>  0 0.51867266E+03</rscale>
<asrwt>0</asrwt>
<pdfrwt beam="1">  1        2 0.15084036E+00 0.51867266E+03</pdfrwt>
<pdfrwt beam="2">  1       -2 0.46063554E-01 0.51867266E+03</pdfrwt>
<totfact> 0.11961880E+02</totfact>
</mgrwt>
</event>
<event>
 4    1  0.5387657E-008  0.7129427E+03  0.7818608E-02  0.9695351E-01
          2   -1    0    0  501    0  0.00000000000E+00  0.00000000000E+00  0.13210603656E+04  0.13210603656E+04  0.25500000000E-02 0. -1.
         -2   -1    0    0    0  501 -0.00000000000E+00 -0.00000000000E+00 -0.78339261431E+03  0.78339261432E+03  0.25500000000E-02 0.  1.
    8880022    1    1    2    0    0 -0.62782728482E+03 -0.30121169701E+03  0.10194321060E+04  0.12439972097E+04  0.15294330000E+03 0.  0.
    8880022    1    1    2    0    0  0.62782728482E+03  0.30121169701E+03 -0.48176435473E+03  0.86045577021E+03  0.15294330000E+03 0.  0.
<mgrwt>
<rscale>  0 0.71294266E+03</rscale>
<asrwt>0</asrwt>
<pdfrwt beam="1">  1        2 0.20324006E+00 0.71294266E+03</pdfrwt>
<pdfrwt beam="2">  1       -2 0.12052194E+00 0.71294266E+03</pdfrwt>
<totfact> 0.86696239E+00</totfact>
</mgrwt>
</event>
<event>
 4    1  0.5387657E-008  0.8706484E+03  0.7818608E-02  0.9463035E-01
          2   -1    0    0  501    0  0.00000000000E+00  0.00000000000E+00  0.16093957240E+04  0.16093957240E+04  0.25500000000E-02 0. -1.
         -2   -1    0    0    0  501 -0.00000000000E+00 -0.00000000000E+00 -0.11471333189E+04  0.11471333189E+04  0.25500000000E-02 0.  1.
    8880022    1    1    2    0    0 -0.84350423620E+03  0.15211021229E+03 -0.82700400296E+03  0.12008181324E+04  0.15294330000E+03 0.  0.
    8880022    1    1    2    0    0  0.84350423620E+03 -0.15211021229E+03  0.12892664080E+04  0.15557109105E+04  0.15294330000E+03 0.  0.
<mgrwt>
<rscale>  0 0.87064836E+03</rscale>
<asrwt>0</asrwt>
<pdfrwt beam="1">  1        2 0.24759934E+00 0.87064836E+03</pdfrwt>
<pdfrwt beam="2">  1       -2 0.17648205E+00 0.87064836E+03</pdfrwt>
<totfact> 0.21377353E+00</totfact>
</mgrwt>
</event>
<event>
 4    1  0.5387657E-008  0.2041353E+03  0.7818608E-02  0.1146296E+00
          2   -1    0    0  501    0  0.00000000000E+00  0.00000000000E+00  0.53932062981E+03  0.53932062981E+03  0.25500000000E-02 0. -1.
         -2   -1    0    0    0  501 -0.00000000000E+00 -0.00000000000E+00 -0.13538399264E+03  0.13538399266E+03  0.25500000000E-02 0.  1.
    8880022    1    1    2    0    0  0.87739597901E+02 -0.10286557911E+03  0.42300016488E+03  0.46968112258E+03  0.15294330000E+03 0.  0.
    8880022    1    1    2    0    0 -0.87739597901E+02  0.10286557911E+03 -0.19063527711E+02  0.20502349990E+03  0.15294330000E+03 0.  1.
<mgrwt>
<rscale>  0 0.20413529E+03</rscale>
<asrwt>0</asrwt>
<pdfrwt beam="1">  1        2 0.82972405E-01 0.20413529E+03</pdfrwt>
<pdfrwt beam="2">  1       -2 0.20828307E-01 0.20413529E+03</pdfrwt>
<totfact> 0.11179053E+03</totfact>
</mgrwt>
</event>
<event>
 4    1  0.5387657E-008  0.1044776E+04  0.7818608E-02  0.9260754E-01
          2   -1    0    0  501    0  0.00000000000E+00  0.00000000000E+00  0.88641045717E+03  0.88641045717E+03  0.25500000000E-02 0. -1.
         -2   -1    0    0    0  501 -0.00000000000E+00 -0.00000000000E+00 -0.22849672853E+04  0.22849672853E+04  0.25500000000E-02 0.  1.
    8880022    1    1    2    0    0 -0.97493236414E+03  0.34303273404E+03  0.37743979465E+03  0.11108631882E+04  0.15294330000E+03 0.  0.
    8880022    1    1    2    0    0  0.97493236414E+03 -0.34303273404E+03 -0.17759966228E+04  0.20605145543E+04  0.15294330000E+03 0.  0.
<mgrwt>
<rscale>  0 0.10447757E+04</rscale>
<asrwt>0</asrwt>
<pdfrwt beam="1">  1        2 0.13637084E+00 0.10447757E+04</pdfrwt>
<pdfrwt beam="2">  1       -2 0.35153343E+00 0.10447757E+04</pdfrwt>
<totfact> 0.45803858E-01</totfact>
</mgrwt>
</event>
<event>
 4    1  0.5387657E-008  0.6389828E+03  0.7818608E-02  0.9827675E-01
          2   -1    0    0  501    0  0.00000000000E+00  0.00000000000E+00  0.28913630699E+04  0.28913630699E+04  0.25500000000E-02 0. -1.
         -2   -1    0    0    0  501 -0.00000000000E+00 -0.00000000000E+00 -0.18808925982E+03  0.18808925984E+03  0.25500000000E-02 0.  1.
    8880022    1    1    2    0    0  0.30429506682E+03 -0.54065875058E+03  0.58297313759E+03  0.86496052190E+03  0.15294330000E+03 0.  0.
    8880022    1    1    2    0    0 -0.30429506682E+03  0.54065875058E+03  0.21203006725E+04  0.22144918078E+04  0.15294330000E+03 0.  0.
<mgrwt>
<rscale>  0 0.63898281E+03</rscale>
<asrwt>0</asrwt>
<pdfrwt beam="1">  1        2 0.44482504E+00 0.63898281E+03</pdfrwt>
<pdfrwt beam="2">  1       -2 0.28936812E-01 0.63898281E+03</pdfrwt>
<totfact> 0.23983906E+01</totfact>
</mgrwt>
</event>
<event>
 4    1  0.5387657E-008  0.6511581E+03  0.7818608E-02  0.9804608E-01
          2   -1    0    0  501    0  0.00000000000E+00  0.00000000000E+00  0.31330032297E+03  0.31330032298E+03  0.25500000000E-02 0. -1.
         -2   -1    0    0    0  501 -0.00000000000E+00 -0.00000000000E+00 -0.13864498612E+04  0.13864498612E+04  0.25500000000E-02 0.  1.
    8880022    1    1    2    0    0 -0.42079546859E+03  0.47280694748E+03 -0.40527124588E+03  0.76697566567E+03  0.15294330000E+03 0.  0.
    8880022    1    1    2    0    0  0.42079546859E+03 -0.47280694748E+03 -0.66787829231E+03  0.93277451848E+03  0.15294330000E+03 0.  0.
<mgrwt>
<rscale>  0 0.65115811E+03</rscale>
<asrwt>0</asrwt>
<pdfrwt beam="1">  1        2 0.48200051E-01 0.65115811E+03</pdfrwt>
<pdfrwt beam="2">  1       -2 0.21329997E+00 0.65115811E+03</pdfrwt>
<totfact> 0.11755071E+01</totfact>
</mgrwt>
</event>
<event>
 4    1  0.5387657E-008  0.1688610E+03  0.7818608E-02  0.1179041E+00
         -2   -1    0    0    0  501 -0.00000000000E+00  0.00000000000E+00  0.11329071630E+03  0.11329071633E+03  0.25500000000E-02 0.  1.
          2   -1    0    0  501    0  0.00000000000E+00 -0.00000000000E+00 -0.86164849756E+03  0.86164849756E+03  0.25500000000E-02 0. -1.
    8880022    1    1    2    0    0  0.56610375856E+02  0.43790913608E+02 -0.78431967719E+03  0.80229133600E+03  0.15294330000E+03 0.  0.
    8880022    1    1    2    0    0 -0.56610375856E+02 -0.43790913608E+02  0.35961895933E+02  0.17264787790E+03  0.15294330000E+03 0.  1.
<mgrwt>
<rscale>  0 0.16886098E+03</rscale>
<asrwt>0</asrwt>
<pdfrwt beam="1">  1        2 0.13256130E+00 0.16886098E+03</pdfrwt>
<pdfrwt beam="2">  1       -2 0.17429342E-01 0.16886098E+03</pdfrwt>
<totfact> 0.86147510E+02</totfact>
</mgrwt>
</event>
<event>
 4    1  0.5387657E-008  0.8706492E+03  0.7818608E-02  0.9463034E-01
          2   -1    0    0  501    0  0.00000000000E+00  0.00000000000E+00  0.15795702524E+04  0.15795702524E+04  0.25500000000E-02 0. -1.
         -2   -1    0    0    0  501 -0.00000000000E+00 -0.00000000000E+00 -0.63282324846E+03  0.63282324847E+03  0.25500000000E-02 0.  1.
    8880022    1    1    2    0    0 -0.15553244231E+03 -0.84288077519E+03  0.10171658714E+04  0.13389011931E+04  0.15294330000E+03 0.  0.
    8880022    1    1    2    0    0  0.15553244231E+03  0.84288077519E+03 -0.70418867533E+02  0.87349230776E+03  0.15294330000E+03 0.  0.
<mgrwt>
<rscale>  0 0.87064918E+03</rscale>
<asrwt>0</asrwt>
<pdfrwt beam="1">  1        2 0.24301081E+00 0.87064918E+03</pdfrwt>
<pdfrwt beam="2">  1       -2 0.97357423E-01 0.87064918E+03</pdfrwt>
<totfact> 0.10180429E+01</totfact>
</mgrwt>
</event>
<event>
 4    1  0.5387657E-008  0.2450345E+03  0.7818608E-02  0.1116484E+00
          2   -1    0    0  501    0  0.00000000000E+00  0.00000000000E+00  0.10766029662E+04  0.10766029662E+04  0.25500000000E-02 0. -1.
         -2   -1    0    0    0  501 -0.00000000000E+00 -0.00000000000E+00 -0.10344663568E+03  0.10344663571E+03  0.25500000000E-02 0.  1.
    8880022    1    1    2    0    0  0.11366874341E+03  0.15404436062E+03  0.88713663913E+03  0.92035499552E+03  0.15294330000E+03 0. -1.
    8880022    1    1    2    0    0 -0.11366874341E+03 -0.15404436062E+03  0.86019691391E+02  0.25969460639E+03  0.15294330000E+03 0.  1.
<mgrwt>
<rscale>  0 0.24503449E+03</rscale>
<asrwt>0</asrwt>
<pdfrwt beam="1">  1        2 0.16563123E+00 0.24503449E+03</pdfrwt>
<pdfrwt beam="2">  1       -2 0.15914867E-01 0.24503449E+03</pdfrwt>
<totfact> 0.73507244E+02</totfact>
</mgrwt>
</event>
<event>
 4    1  0.5387657E-008  0.5694115E+03  0.7818608E-02  0.9970982E-01
          2   -1    0    0  501    0  0.00000000000E+00  0.00000000000E+00  0.90751500029E+03  0.90751500029E+03  0.25500000000E-02 0. -1.
         -2   -1    0    0    0  501 -0.00000000000E+00 -0.00000000000E+00 -0.59195669055E+03  0.59195669056E+03  0.25500000000E-02 0.  1.
    8880022    1    1    2    0    0  0.35518195341E+03 -0.41795166509E+03  0.62984863613E+03  0.84908113383E+03  0.15294330000E+03 0.  0.
    8880022    1    1    2    0    0 -0.35518195341E+03  0.41795166509E+03 -0.31429032639E+03  0.65039055702E+03  0.15294330000E+03 0.  0.
<mgrwt>
<rscale>  0 0.56941151E+03</rscale>
<asrwt>0</asrwt>
<pdfrwt beam="1">  1        2 0.13961769E+00 0.56941151E+03</pdfrwt>
<pdfrwt beam="2">  1       -2 0.91070260E-01 0.56941151E+03</pdfrwt>
<totfact> 0.30839503E+01</totfact>
</mgrwt>
</event>
<event>
 4    1  0.5387657E-008  0.6984868E+03  0.7818608E-02  0.9719824E-01
          2   -1    0    0  501    0  0.00000000000E+00  0.00000000000E+00  0.26721248891E+04  0.26721248891E+04  0.25500000000E-02 0. -1.
         -2   -1    0    0    0  501 -0.00000000000E+00 -0.00000000000E+00 -0.20891679805E+03  0.20891679806E+03  0.25500000000E-02 0.  1.
    8880022    1    1    2    0    0 -0.63557717389E+03 -0.24603609179E+03  0.17430410607E+04  0.18777848372E+04  0.15294330000E+03 0.  0.
    8880022    1    1    2    0    0  0.63557717389E+03  0.24603609179E+03  0.72016703036E+03  0.10032568500E+04  0.15294330000E+03 0.  0.
<mgrwt>
<rscale>  0 0.69848676E+03</rscale>
<asrwt>0</asrwt>
<pdfrwt beam="1">  1        2 0.41109613E+00 0.69848676E+03</pdfrwt>
<pdfrwt beam="2">  1       -2 0.32141046E-01 0.69848676E+03</pdfrwt>
<totfact> 0.26269784E+01</totfact>
</mgrwt>
</event>
<event>
 4    1  0.5387657E-008  0.3760460E+03  0.7818608E-02  0.1052405E+00
          2   -1    0    0  501    0  0.00000000000E+00  0.00000000000E+00  0.16543421772E+04  0.16543421772E+04  0.25500000000E-02 0. -1.
         -2   -1    0    0    0  501 -0.00000000000E+00 -0.00000000000E+00 -0.12812624629E+03  0.12812624631E+03  0.25500000000E-02 0.  1.
    8880022    1    1    2    0    0  0.30987843738E+03  0.14830482122E+03  0.24892101225E+03  0.45096816884E+03  0.15294330000E+03 0.  0.
    8880022    1    1    2    0    0 -0.30987843738E+03 -0.14830482122E+03  0.12772949187E+04  0.13315002547E+04  0.15294330000E+03 0.  0.
<mgrwt>
<rscale>  0 0.37604603E+03</rscale>
<asrwt>0</asrwt>
<pdfrwt beam="1">  1        2 0.25451416E+00 0.37604603E+03</pdfrwt>
<pdfrwt beam="2">  1       -2 0.19711732E-01 0.37604603E+03</pdfrwt>
<totfact> 0.24065716E+02</totfact>
</mgrwt>
</event>
<event>
 4    1  0.5387657E-008  0.8881436E+03  0.7818608E-02  0.9440525E-01
          2   -1    0    0  501    0  0.00000000000E+00  0.00000000000E+00  0.24065968276E+04  0.24065968276E+04  0.25500000000E-02 0. -1.
         -2   -1    0    0    0  501 -0.00000000000E+00 -0.00000000000E+00 -0.62872919197E+03  0.62872919198E+03  0.25500000000E-02 0.  1.
    8880022    1    1    2    0    0  0.85910880858E+03  0.16534623156E+03 -0.16109379711E+03  0.90263513435E+03  0.15294330000E+03 0.  0.
    8880022    1    1    2    0    0 -0.85910880858E+03 -0.16534623156E+03  0.19389614327E+04  0.21326908852E+04  0.15294330000E+03 0.  0.
<mgrwt>
<rscale>  0 0.88814356E+03</rscale>
<asrwt>0</asrwt>
<pdfrwt beam="1">  1        2 0.37024566E+00 0.88814356E+03</pdfrwt>
<pdfrwt beam="2">  1       -2 0.96727569E-01 0.88814356E+03</pdfrwt>
<totfact> 0.36035748E+00</totfact>
</mgrwt>
</event>
<event>
 4    1  0.5387657E-008  0.5134984E+03  0.7818608E-02  0.1010314E+00
         -2   -1    0    0    0  501 -0.00000000000E+00  0.00000000000E+00  0.27878942316E+03  0.27878942317E+03  0.25500000000E-02 0.  1.
          2   -1    0    0  501    0  0.00000000000E+00 -0.00000000000E+00 -0.16022614622E+04  0.16022614622E+04  0.25500000000E-02 0. -1.
    8880022    1    1    2    0    0  0.44885819312E+03  0.19701594824E+03 -0.59722006452E+02  0.51695970100E+03  0.15294330000E+03 0.  0.
    8880022    1    1    2    0    0 -0.44885819312E+03 -0.19701594824E+03 -0.12637500326E+04  0.13640911844E+04  0.15294330000E+03 0.  0.
<mgrwt>
<rscale>  0 0.51349841E+03</rscale>
<asrwt>0</asrwt>
<pdfrwt beam="1">  1        2 0.24650176E+00 0.51349841E+03</pdfrwt>
<pdfrwt beam="2">  1       -2 0.42890681E-01 0.51349841E+03</pdfrwt>
<totfact> 0.60368608E+01</totfact>
</mgrwt>
</event>
<event>
 4    1  0.5387657E-008  0.7524859E+03  0.7818608E-02  0.9631458E-01
         -2   -1    0    0    0  501 -0.00000000000E+00  0.00000000000E+00  0.44304914678E+03  0.44304914679E+03  0.25500000000E-02 0.  1.
          2   -1    0    0  501    0  0.00000000000E+00 -0.00000000000E+00 -0.20816730294E+04  0.20816730294E+04  0.25500000000E-02 0. -1.
    8880022    1    1    2    0    0  0.24871161732E+02 -0.73635919079E+03 -0.16036547021E+04  0.17714241415E+04  0.15294330000E+03 0.  0.
    8880022    1    1    2    0    0 -0.24871161732E+02  0.73635919079E+03 -0.34969180573E+02  0.75329803474E+03  0.15294330000E+03 0.  0.
<mgrwt>
<rscale>  0 0.75248594E+03</rscale>
<asrwt>0</asrwt>
<pdfrwt beam="1">  1        2 0.32025738E+00 0.75248594E+03</pdfrwt>
<pdfrwt beam="2">  1       -2 0.68161409E-01 0.75248594E+03</pdfrwt>
<totfact> 0.12286522E+01</totfact>
</mgrwt>
</event>
<event>
 4    1  0.5387657E-008  0.4141013E+03  0.7818608E-02  0.1039003E+00
         -2   -1    0    0    0  501 -0.00000000000E+00  0.00000000000E+00  0.25175988490E+03  0.25175988491E+03  0.25500000000E-02 0.  1.
          2   -1    0    0  501    0  0.00000000000E+00 -0.00000000000E+00 -0.28077797987E+04  0.28077797987E+04  0.25500000000E-02 0. -1.
    8880022    1    1    2    0    0 -0.32446233065E+03 -0.20691169791E+03 -0.26093625557E+04  0.26420168157E+04  0.15294330000E+03 0.  0.
    8880022    1    1    2    0    0  0.32446233065E+03  0.20691169791E+03  0.53342641856E+02  0.41752286788E+03  0.15294330000E+03 0.  1.
<mgrwt>
<rscale>  0 0.41410133E+03</rscale>
<asrwt>0</asrwt>
<pdfrwt beam="1">  1        2 0.43196610E+00 0.41410133E+03</pdfrwt>
<pdfrwt beam="2">  1       -2 0.38732292E-01 0.41410133E+03</pdfrwt>
<totfact> 0.16391622E+01</totfact>
</mgrwt>
</event>
<event>
 4    1  0.5387657E-008  0.8297045E+03  0.7818608E-02  0.9517989E-01
          2   -1    0    0  501    0  0.00000000000E+00  0.00000000000E+00  0.10906869416E+04  0.10906869416E+04  0.25500000000E-02 0. -1.
         -2   -1    0    0    0  501 -0.00000000000E+00 -0.00000000000E+00 -0.90792194084E+03  0.90792194084E+03  0.25500000000E-02 0.  1.
    8880022    1    1    2    0    0 -0.88992163760E+02 -0.81061599587E+03 -0.46033710205E+03  0.94885183169E+03  0.15294330000E+03 0.  0.
    8880022    1    1    2    0    0  0.88992163760E+02  0.81061599587E+03  0.64310210285E+03  0.10497570508E+04  0.15294330000E+03 0.  0.
<mgrwt>
<rscale>  0 0.82970450E+03</rscale>
<asrwt>0</asrwt>
<pdfrwt beam="1">  1        2 0.16779799E+00 0.82970450E+03</pdfrwt>
<pdfrwt beam="2">  1       -2 0.13968030E+00 0.82970450E+03</pdfrwt>
<totfact> 0.80503852E+00</totfact>
</mgrwt>
</event>
<event>
 4    1  0.5387657E-008  0.2190243E+03  0.7818608E-02  0.1134613E+00
         -2   -1    0    0    0  501 -0.00000000000E+00  0.00000000000E+00  0.40006314391E+03  0.40006314392E+03  0.25500000000E-02 0.  1.
          2   -1    0    0  501    0  0.00000000000E+00 -0.00000000000E+00 -0.37662865713E+03  0.37662865714E+03  0.25500000000E-02 0. -1.
    8880022    1    1    2    0    0 -0.23159489115E+02  0.15506007754E+03 -0.30890275687E+03  0.37867209536E+03  0.15294330000E+03 0. -1.
    8880022    1    1    2    0    0  0.23159489115E+02 -0.15506007754E+03  0.33233724366E+03  0.39801970570E+03  0.15294330000E+03 0.  0.
<mgrwt>
<rscale>  0 0.21902430E+03</rscale>
<asrwt>0</asrwt>
<pdfrwt beam="1">  1        2 0.57942870E-01 0.21902430E+03</pdfrwt>
<pdfrwt beam="2">  1       -2 0.61548176E-01 0.21902430E+03</pdfrwt>
<totfact> 0.21637864E+02</totfact>
</mgrwt>
</event>
<event>
 4    1  0.5387657E-008  0.4138253E+03  0.7818608E-02  0.1039095E+00
         -2   -1    0    0    0  501 -0.00000000000E+00  0.00000000000E+00  0.37109373776E+03  0.37109373777E+03  0.25500000000E-02 0.  1.
          2   -1    0    0  501    0  0.00000000000E+00 -0.00000000000E+00 -0.93069859309E+03  0.93069859310E+03  0.25500000000E-02 0. -1.
    8880022    1    1    2    0    0 -0.33526488166E+03  0.18830074828E+03  0.18236145544E+03  0.45222457488E+03  0.15294330000E+03 0.  0.
    8880022    1    1    2    0    0  0.33526488166E+03 -0.18830074828E+03 -0.74196631077E+03  0.84956775599E+03  0.15294330000E+03 0.  0.
<mgrwt>
<rscale>  0 0.41382528E+03</rscale>
<asrwt>0</asrwt>
<pdfrwt beam="1">  1        2 0.14318440E+00 0.41382528E+03</pdfrwt>
<pdfrwt beam="2">  1       -2 0.57091345E-01 0.41382528E+03</pdfrwt>
<totfact> 0.84260117E+01</totfact>
</mgrwt>
</event>
<event>
 4    1  0.5387657E-008  0.6755821E+03  0.7818608E-02  0.9759926E-01
          2   -1    0    0  501    0  0.00000000000E+00  0.00000000000E+00  0.51226009947E+03  0.51226009948E+03  0.25500000000E-02 0. -1.
         -2   -1    0    0    0  501 -0.00000000000E+00 -0.00000000000E+00 -0.10444903117E+04  0.10444903117E+04  0.25500000000E-02 0.  1.
    8880022    1    1    2    0    0 -0.39166447132E+03 -0.52878963022E+03  0.32293927738E+02  0.67635351844E+03  0.15294330000E+03 0.  0.
    8880022    1    1    2    0    0  0.39166447132E+03  0.52878963022E+03 -0.56452413995E+03  0.88039689273E+03  0.15294330000E+03 0.  0.
<mgrwt>
<rscale>  0 0.67558211E+03</rscale>
<asrwt>0</asrwt>
<pdfrwt beam="1">  1        2 0.78809246E-01 0.67558211E+03</pdfrwt>
<pdfrwt beam="2">  1       -2 0.16069082E+00 0.67558211E+03</pdfrwt>
<totfact> 0.15232660E+01</totfact>
</mgrwt>
</event>
<event>
 4    1  0.5387657E-008  0.7389769E+03  0.7818608E-02  0.9652804E-01
         -2   -1    0    0    0  501 -0.00000000000E+00  0.00000000000E+00  0.20346497681E+04  0.20346497681E+04  0.25500000000E-02 0.  1.
          2   -1    0    0  501    0  0.00000000000E+00 -0.00000000000E+00 -0.60087927073E+03  0.60087927073E+03  0.25500000000E-02 0. -1.
    8880022    1    1    2    0    0  0.22296060775E+03  0.68773813950E+03  0.16971213906E+04  0.18510288622E+04  0.15294330000E+03 0.  0.
    8880022    1    1    2    0    0 -0.22296060775E+03 -0.68773813950E+03 -0.26335089326E+03  0.78450017663E+03  0.15294330000E+03 0. -1.
<mgrwt>
<rscale>  0 0.73897688E+03</rscale>
<asrwt>0</asrwt>
<pdfrwt beam="1">  1        2 0.92442963E-01 0.73897688E+03</pdfrwt>
<pdfrwt beam="2">  1       -2 0.31302305E+00 0.73897688E+03</pdfrwt>
<totfact> 0.13712489E+00</totfact>
</mgrwt>
</event>
<event>
 4    1  0.6726956E-008  0.9348789E+03  0.7818608E-02  0.9383002E-01
         -2   -1    0    0    0  501 -0.00000000000E+00  0.00000000000E+00  0.11256603285E+04  0.11256603285E+04  0.25500000000E-02 0.  1.
          2   -1    0    0  501    0  0.00000000000E+00 -0.00000000000E+00 -0.28099399998E+04  0.28099399998E+04  0.25500000000E-02 0. -1.
    8880022    1    1    2    0    0 -0.42618495259E+03  0.81790789408E+03 -0.25161397146E+04  0.26842052182E+04  0.15294330000E+03 0.  0.
    8880022    1    1    2    0    0  0.42618495259E+03 -0.81790789408E+03  0.83186004324E+03  0.12513951101E+04  0.15294330000E+03 0.  0.
<mgrwt>
<rscale>  0 0.93487892E+03</rscale>
<asrwt>0</asrwt>
<pdfrwt beam="1">  1        2 0.43229846E+00 0.93487892E+03</pdfrwt>
<pdfrwt beam="2">  1       -2 0.17317851E+00 0.93487892E+03</pdfrwt>
<totfact> 0.47269761E-01</totfact>
</mgrwt>
</event>
<event>
 4    1  0.5387657E-008  0.4924299E+03  0.7818608E-02  0.1015774E+00
         -2   -1    0    0    0  501 -0.00000000000E+00  0.00000000000E+00  0.39568706916E+03  0.39568706917E+03  0.25500000000E-02 0.  1.
          2   -1    0    0  501    0  0.00000000000E+00 -0.00000000000E+00 -0.23567037733E+04  0.23567037733E+04  0.25500000000E-02 0. -1.
    8880022    1    1    2    0    0  0.11345635068E+03  0.45411808408E+03  0.20331161408E+03  0.53275026348E+03  0.15294330000E+03 0.  0.
    8880022    1    1    2    0    0 -0.11345635068E+03 -0.45411808408E+03 -0.21643283182E+04  0.22196405789E+04  0.15294330000E+03 0.  0.
<mgrwt>
<rscale>  0 0.49242992E+03</rscale>
<asrwt>0</asrwt>
<pdfrwt beam="1">  1        2 0.36256980E+00 0.49242992E+03</pdfrwt>
<pdfrwt beam="2">  1       -2 0.60874935E-01 0.49242992E+03</pdfrwt>
<totfact> 0.11619001E+01</totfact>
</mgrwt>
</event>
<event>
 4    1  0.5387657E-008  0.8928180E+03  0.7818608E-02  0.9434604E-01
         -2   -1    0    0    0  501 -0.00000000000E+00  0.00000000000E+00  0.75673198810E+03  0.75673198811E+03  0.25500000000E-02 0.  1.
          2   -1    0    0  501    0  0.00000000000E+00 -0.00000000000E+00 -0.41894249225E+04  0.41894249225E+04  0.25500000000E-02 0. -1.
    8880022    1    1    2    0    0  0.75307990455E+03  0.45453600580E+03  0.42334937149E+03  0.98810357077E+03  0.15294330000E+03 0.  0.
    8880022    1    1    2    0    0 -0.75307990455E+03 -0.45453600580E+03 -0.38560423059E+04  0.39580533398E+04  0.15294330000E+03 0.  0.
<mgrwt>
<rscale>  0 0.89281800E+03</rscale>
<asrwt>0</asrwt>
<pdfrwt beam="1">  1        2 0.64452690E+00 0.89281800E+03</pdfrwt>
<pdfrwt beam="2">  1       -2 0.11642031E+00 0.89281800E+03</pdfrwt>
<totfact> 0.14725522E-01</totfact>
</mgrwt>
</event>
<event>
 4    1  0.5387657E-008  0.1755950E+03  0.7818608E-02  0.1172136E+00
          2   -1    0    0  501    0  0.00000000000E+00  0.00000000000E+00  0.29343103475E+04  0.29343103475E+04  0.25500000000E-02 0. -1.
         -2   -1    0    0    0  501 -0.00000000000E+00 -0.00000000000E+00 -0.11455872070E+03  0.11455872073E+03  0.25500000000E-02 0.  1.
    8880022    1    1    2    0    0  0.86233956648E+02 -0.23782268983E+01 -0.42962683111E+02  0.18077443513E+03  0.15294330000E+03 0.  0.
    8880022    1    1    2    0    0 -0.86233956648E+02  0.23782268983E+01  0.28627143099E+04  0.28680946331E+04  0.15294330000E+03 0. -1.
<mgrwt>
<rscale>  0 0.17559500E+03</rscale>
<asrwt>0</asrwt>
<pdfrwt beam="1">  1        2 0.45143235E+00 0.17559500E+03</pdfrwt>
<pdfrwt beam="2">  1       -2 0.17624419E-01 0.17559500E+03</pdfrwt>
<totfact> 0.62774427E+01</totfact>
</mgrwt>
</event>
<event>
 4    1  0.5387657E-008  0.3941415E+03  0.7818608E-02  0.1045827E+00
         -2   -1    0    0    0  501 -0.00000000000E+00  0.00000000000E+00  0.26659989939E+03  0.26659989940E+03  0.25500000000E-02 0.  1.
          2   -1    0    0  501    0  0.00000000000E+00 -0.00000000000E+00 -0.21430814495E+04  0.21430814495E+04  0.25500000000E-02 0. -1.
    8880022    1    1    2    0    0 -0.28517218674E+03 -0.22501716033E+03 -0.19663181007E+04  0.20054312316E+04  0.15294330000E+03 0.  0.
    8880022    1    1    2    0    0  0.28517218674E+03  0.22501716033E+03  0.89836550557E+02  0.40425011733E+03  0.15294330000E+03 0.  1.
<mgrwt>
<rscale>  0 0.39414154E+03</rscale>
<asrwt>0</asrwt>
<pdfrwt beam="1">  1        2 0.32970483E+00 0.39414154E+03</pdfrwt>
<pdfrwt beam="2">  1       -2 0.41015371E-01 0.39414154E+03</pdfrwt>
<totfact> 0.34563293E+01</totfact>
</mgrwt>
</event>
<event>
 4    1  0.5387657E-008  0.1836333E+03  0.7818608E-02  0.1164332E+00
         -2   -1    0    0    0  501 -0.00000000000E+00  0.00000000000E+00  0.35552795822E+03  0.35552795823E+03  0.25500000000E-02 0.  1.
          2   -1    0    0  501    0  0.00000000000E+00 -0.00000000000E+00 -0.14521212291E+03  0.14521212294E+03  0.25500000000E-02 0. -1.
    8880022    1    1    2    0    0 -0.85157130101E+02 -0.55478026347E+02 -0.42290638374E+02  0.18844017439E+03  0.15294330000E+03 0. -1.
    8880022    1    1    2    0    0  0.85157130101E+02  0.55478026347E+02  0.25260647368E+03  0.31229990678E+03  0.15294330000E+03 0.  1.
<mgrwt>
<rscale>  0 0.18363333E+03</rscale>
<asrwt>0</asrwt>
<pdfrwt beam="1">  1        2 0.22340327E-01 0.18363333E+03</pdfrwt>
<pdfrwt beam="2">  1       -2 0.54696608E-01 0.18363333E+03</pdfrwt>
<totfact> 0.77841261E+02</totfact>
</mgrwt>
</event>
<event>
 4    1  0.5387657E-008  0.3069057E+03  0.7818608E-02  0.1081839E+00
         -2   -1    0    0    0  501 -0.00000000000E+00  0.00000000000E+00  0.16868585198E+03  0.16868585200E+03  0.25500000000E-02 0.  1.
          2   -1    0    0  501    0  0.00000000000E+00 -0.00000000000E+00 -0.23459786642E+04  0.23459786642E+04  0.25500000000E-02 0. -1.
    8880022    1    1    2    0    0 -0.24183235833E+03 -0.11097988767E+03 -0.21861926904E+04  0.22076298507E+04  0.15294330000E+03 0.  0.
    8880022    1    1    2    0    0  0.24183235833E+03  0.11097988767E+03  0.88998781695E+01  0.30703466555E+03  0.15294330000E+03 0.  0.
<mgrwt>
<rscale>  0 0.30690565E+03</rscale>
<asrwt>0</asrwt>
<pdfrwt beam="1">  1        2 0.36091977E+00 0.30690565E+03</pdfrwt>
<pdfrwt beam="2">  1       -2 0.25951671E-01 0.30690565E+03</pdfrwt>
<totfact> 0.64506872E+01</totfact>
</mgrwt>
</event>
<event>
 4    1  0.5387657E-008  0.2286015E+03  0.7818608E-02  0.1127628E+00
         -2   -1    0    0    0  501 -0.00000000000E+00  0.00000000000E+00  0.36501768395E+02  0.36501768484E+02  0.25500000000E-02 0.  1.
          2   -1    0    0  501    0  0.00000000000E+00 -0.00000000000E+00 -0.14593754407E+04  0.14593754407E+04  0.25500000000E-02 0. -1.
    8880022    1    1    2    0    0  0.16990291215E+03 -0.22190652463E-01 -0.81448239199E+03  0.84595521154E+03  0.15294330000E+03 0.  0.
    8880022    1    1    2    0    0 -0.16990291215E+03  0.22190652463E-01 -0.60839128031E+03  0.64992199764E+03  0.15294330000E+03 0.  0.
<mgrwt>
<rscale>  0 0.22860152E+03</rscale>
<asrwt>0</asrwt>
<pdfrwt beam="1">  1        2 0.22451925E+00 0.22860152E+03</pdfrwt>
<pdfrwt beam="2">  1       -2 0.56156578E-02 0.22860152E+03</pdfrwt>
<totfact> 0.23521730E+03</totfact>
</mgrwt>
</event>
<event>
 4    1  0.5387657E-008  0.5306443E+03  0.7818608E-02  0.1006076E+00
         -2   -1    0    0    0  501 -0.00000000000E+00  0.00000000000E+00  0.31193216273E+03  0.31193216274E+03  0.25500000000E-02 0.  1.
          2   -1    0    0  501    0  0.00000000000E+00 -0.00000000000E+00 -0.39186252580E+04  0.39186252580E+04  0.25500000000E-02 0. -1.
    8880022    1    1    2    0    0 -0.50809431543E+03  0.56504967165E+01  0.52365123877E+02  0.53322183067E+03  0.15294330000E+03 0.  0.
    8880022    1    1    2    0    0  0.50809431543E+03 -0.56504967165E+01 -0.36590582192E+04  0.36973355901E+04  0.15294330000E+03 0. -1.
<mgrwt>
<rscale>  0 0.53064434E+03</rscale>
<asrwt>0</asrwt>
<pdfrwt beam="1">  1        2 0.60286539E+00 0.53064434E+03</pdfrwt>
<pdfrwt beam="2">  1       -2 0.47989566E-01 0.53064434E+03</pdfrwt>
<totfact> 0.19254014E+00</totfact>
</mgrwt>
</event>
<event>
 4    1  0.5387657E-008  0.7321341E+03  0.7818608E-02  0.9663804E-01
          2   -1    0    0  501    0  0.00000000000E+00  0.00000000000E+00  0.38476279670E+03  0.38476279670E+03  0.25500000000E-02 0. -1.
         -2   -1    0    0    0  501 -0.00000000000E+00 -0.00000000000E+00 -0.22612193699E+04  0.22612193699E+04  0.25500000000E-02 0.  1.
    8880022    1    1    2    0    0  0.76140827906E+02  0.71192079274E+03 -0.17579578233E+04  0.19043203518E+04  0.15294330000E+03 0.  0.
    8880022    1    1    2    0    0 -0.76140827906E+02 -0.71192079274E+03 -0.11849874992E+03  0.74166181482E+03  0.15294330000E+03 0.  0.
<mgrwt>
<rscale>  0 0.73213407E+03</rscale>
<asrwt>0</asrwt>
<pdfrwt beam="1">  1        2 0.59194278E-01 0.73213407E+03</pdfrwt>
<pdfrwt beam="2">  1       -2 0.34787990E+00 0.73213407E+03</pdfrwt>
<totfact> 0.14072520E+00</totfact>
</mgrwt>
</event>
<event>
 4    1  0.5387657E-008  0.4836588E+03  0.7818608E-02  0.1018134E+00
         -2   -1    0    0    0  501 -0.00000000000E+00  0.00000000000E+00  0.52498634637E+03  0.52498634638E+03  0.25500000000E-02 0.  1.
          2   -1    0    0  501    0  0.00000000000E+00 -0.00000000000E+00 -0.20297155554E+04  0.20297155554E+04  0.25500000000E-02 0. -1.
    8880022    1    1    2    0    0 -0.41691418026E+03  0.19161618518E+03 -0.18808298317E+04  0.19420212937E+04  0.15294330000E+03 0.  0.
    8880022    1    1    2    0    0  0.41691418026E+03 -0.19161618518E+03  0.37610062271E+03  0.61268060810E+03  0.15294330000E+03 0.  0.
<mgrwt>
<rscale>  0 0.48365881E+03</rscale>
<asrwt>0</asrwt>
<pdfrwt beam="1">  1        2 0.31226393E+00 0.48365881E+03</pdfrwt>
<pdfrwt beam="2">  1       -2 0.80767131E-01 0.48365881E+03</pdfrwt>
<totfact> 0.94917229E+00</totfact>
</mgrwt>
</event>
<event>
 4    1  0.5387657E-008  0.2363462E+03  0.7818608E-02  0.1122251E+00
          2   -1    0    0  501    0  0.00000000000E+00  0.00000000000E+00  0.25539082010E+04  0.25539082010E+04  0.25500000000E-02 0. -1.
         -2   -1    0    0    0  501 -0.00000000000E+00 -0.00000000000E+00 -0.30609486745E+03  0.30609486746E+03  0.25500000000E-02 0.  1.
    8880022    1    1    2    0    0 -0.11576514934E+03  0.13808084374E+03  0.25018705976E+04  0.25130093572E+04  0.15294330000E+03 0.  0.
    8880022    1    1    2    0    0  0.11576514934E+03 -0.13808084374E+03 -0.25405726406E+03  0.34699371125E+03  0.15294330000E+03 0.  0.
<mgrwt>
<rscale>  0 0.23634623E+03</rscale>
<asrwt>0</asrwt>
<pdfrwt beam="1">  1        2 0.39290896E+00 0.23634623E+03</pdfrwt>
<pdfrwt beam="2">  1       -2 0.47091518E-01 0.23634623E+03</pdfrwt>
<totfact> 0.16749610E+01</totfact>
</mgrwt>
</event>
<event>
 4    1  0.5387657E-008  0.1030012E+04  0.7818608E-02  0.9276227E-01
         -2   -1    0    0    0  501 -0.00000000000E+00  0.00000000000E+00  0.10088578782E+04  0.10088578782E+04  0.25500000000E-02 0.  1.
          2   -1    0    0  501    0  0.00000000000E+00 -0.00000000000E+00 -0.13642319803E+04  0.13642319803E+04  0.25500000000E-02 0. -1.
    8880022    1    1    2    0    0 -0.99786591514E+03  0.20444336775E+03  0.39031481731E+03  0.11014857170E+04  0.15294330000E+03 0.  0.
    8880022    1    1    2    0    0  0.99786591514E+03 -0.20444336775E+03 -0.74568891932E+03  0.12716041415E+04  0.15294330000E+03 0.  0.
<mgrwt>
<rscale>  0 0.10300122E+04</rscale>
<asrwt>0</asrwt>
<pdfrwt beam="1">  1        2 0.20988184E+00 0.10300122E+04</pdfrwt>
<pdfrwt beam="2">  1       -2 0.15520890E+00 0.10300122E+04</pdfrwt>
<totfact> 0.41025485E+00</totfact>
</mgrwt>
</event>
<event>
 4    1  0.5387657E-008  0.9264175E+03  0.7818608E-02  0.9393148E-01
         -2   -1    0    0    0  501 -0.00000000000E+00  0.00000000000E+00  0.10123254046E+04  0.10123254046E+04  0.25500000000E-02 0.  1.
          2   -1    0    0  501    0  0.00000000000E+00 -0.00000000000E+00 -0.13047935838E+04  0.13047935838E+04  0.25500000000E-02 0. -1.
    8880022    1    1    2    0    0  0.90846015902E+03 -0.97764821543E+02 -0.83188410096E+03  0.12451026589E+04  0.15294330000E+03 0.  0.
    8880022    1    1    2    0    0 -0.90846015902E+03  0.97764821543E+02  0.53941592175E+03  0.10720163294E+04  0.15294330000E+03 0.  0.
<mgrwt>
<rscale>  0 0.92641755E+03</rscale>
<asrwt>0</asrwt>
<pdfrwt beam="1">  1        2 0.20073747E+00 0.92641755E+03</pdfrwt>
<pdfrwt beam="2">  1       -2 0.15574237E+00 0.92641755E+03</pdfrwt>
<totfact> 0.44511023E+00</totfact>
</mgrwt>
</event>
<event>
 4    1  0.5387657E-008  0.4198476E+03  0.7818608E-02  0.1037116E+00
          2   -1    0    0  501    0  0.00000000000E+00  0.00000000000E+00  0.98428372740E+03  0.98428372740E+03  0.25500000000E-02 0. -1.
         -2   -1    0    0    0  501 -0.00000000000E+00 -0.00000000000E+00 -0.24777979275E+03  0.24777979277E+03  0.25500000000E-02 0.  1.
    8880022    1    1    2    0    0  0.32538074430E+03 -0.21681263011E+03  0.69261182484E+03  0.80992785991E+03  0.15294330000E+03 0.  0.
    8880022    1    1    2    0    0 -0.32538074430E+03  0.21681263011E+03  0.43892109801E+02  0.42213566025E+03  0.15294330000E+03 0.  0.
<mgrwt>
<rscale>  0 0.41984759E+03</rscale>
<asrwt>0</asrwt>
<pdfrwt beam="1">  1        2 0.15142827E+00 0.41984759E+03</pdfrwt>
<pdfrwt beam="2">  1       -2 0.38119968E-01 0.41984759E+03</pdfrwt>
<totfact> 0.17391163E+02</totfact>
</mgrwt>
</event>
<event>
 4    1  0.5387657E-008  0.6874102E+03  0.7818608E-02  0.9739008E-01
          2   -1    0    0  501    0  0.00000000000E+00  0.00000000000E+00  0.15534099469E+04  0.15534099469E+04  0.25500000000E-02 0. -1.
         -2   -1    0    0    0  501 -0.00000000000E+00 -0.00000000000E+00 -0.96798706807E+03  0.96798706807E+03  0.25500000000E-02 0.  1.
    8880022    1    1    2    0    0 -0.32669746490E+03 -0.58515798326E+03  0.13366956239E+04  0.15030927925E+04  0.15294330000E+03 0.  0.
    8880022    1    1    2    0    0  0.32669746490E+03  0.58515798326E+03 -0.75127274508E+03  0.10183042225E+04  0.15294330000E+03 0.  0.
<mgrwt>
<rscale>  0 0.68741018E+03</rscale>
<asrwt>0</asrwt>
<pdfrwt beam="1">  1        2 0.23898614E+00 0.68741018E+03</pdfrwt>
<pdfrwt beam="2">  1       -2 0.14892109E+00 0.68741018E+03</pdfrwt>
<totfact> 0.37559545E+00</totfact>
</mgrwt>
</event>
<event>
 4    1  0.5387657E-008  0.1205595E+04  0.7818608E-02  0.9107973E-01
          2   -1    0    0  501    0  0.00000000000E+00  0.00000000000E+00  0.22160946968E+04  0.22160946968E+04  0.25500000000E-02 0. -1.
         -2   -1    0    0    0  501 -0.00000000000E+00 -0.00000000000E+00 -0.11620094265E+04  0.11620094265E+04  0.25500000000E-02 0.  1.
    8880022    1    1    2    0    0 -0.11117294519E+04  0.44059610864E+03  0.16417873911E+04  0.20368909631E+04  0.15294330000E+03 0.  0.
    8880022    1    1    2    0    0  0.11117294519E+04 -0.44059610864E+03 -0.58770212080E+03  0.13412131601E+04  0.15294330000E+03 0.  0.
<mgrwt>
<rscale>  0 0.12055949E+04</rscale>
<asrwt>0</asrwt>
<pdfrwt beam="1">  1        2 0.34093765E+00 0.12055949E+04</pdfrwt>
<pdfrwt beam="2">  1       -2 0.17877068E+00 0.12055949E+04</pdfrwt>
<totfact> 0.90954232E-01</totfact>
</mgrwt>
</event>
<event>
 4    1  0.5387657E-008  0.6281402E+03  0.7818608E-02  0.9848685E-01
         -2   -1    0    0    0  501 -0.00000000000E+00  0.00000000000E+00  0.36259884376E+03  0.36259884377E+03  0.25500000000E-02 0.  1.
          2   -1    0    0  501    0  0.00000000000E+00 -0.00000000000E+00 -0.42202342081E+04  0.42202342081E+04  0.25500000000E-02 0. -1.
    8880022    1    1    2    0    0  0.52690769000E+03  0.30583772812E+03 -0.39028435195E+04  0.39530681274E+04  0.15294330000E+03 0.  0.
    8880022    1    1    2    0    0 -0.52690769000E+03 -0.30583772812E+03  0.45208155139E+02  0.62976492442E+03  0.15294330000E+03 0.  0.
<mgrwt>
<rscale>  0 0.62814018E+03</rscale>
<asrwt>0</asrwt>
<pdfrwt beam="1">  1        2 0.64926677E+00 0.62814018E+03</pdfrwt>
<pdfrwt beam="2">  1       -2 0.55784441E-01 0.62814018E+03</pdfrwt>
<totfact> 0.78528662E-01</totfact>
</mgrwt>
</event>
<event>
 4    1  0.5387657E-008  0.1626223E+03  0.7818608E-02  0.1185768E+00
          2   -1    0    0  501    0  0.00000000000E+00  0.00000000000E+00  0.17091168063E+04  0.17091168063E+04  0.25500000000E-02 0. -1.
         -2   -1    0    0    0  501 -0.00000000000E+00 -0.00000000000E+00 -0.31125601424E+02  0.31125601529E+02  0.25500000000E-02 0.  1.
    8880022    1    1    2    0    0 -0.32317785043E+02  0.44832008865E+02  0.14560271176E+04  0.14650805331E+04  0.15294330000E+03 0. -1.
    8880022    1    1    2    0    0  0.32317785043E+02 -0.44832008865E+02  0.22196408723E+03  0.27516187469E+03  0.15294330000E+03 0.  0.
<mgrwt>
<rscale>  0 0.16262227E+03</rscale>
<asrwt>0</asrwt>
<pdfrwt beam="1">  1        2 0.26294112E+00 0.16262227E+03</pdfrwt>
<pdfrwt beam="2">  1       -2 0.47885527E-02 0.16262227E+03</pdfrwt>
<totfact> 0.22163827E+03</totfact>
</mgrwt>
</event>
<event>
 4    1  0.5387657E-008  0.1959862E+03  0.7818608E-02  0.1153170E+00
          2   -1    0    0  501    0  0.00000000000E+00  0.00000000000E+00  0.13919265163E+04  0.13919265163E+04  0.25500000000E-02 0. -1.
         -2   -1    0    0    0  501 -0.00000000000E+00 -0.00000000000E+00 -0.17373277251E+03  0.17373277253E+03  0.25500000000E-02 0.  1.
    8880022    1    1    2    0    0 -0.30051579038E+02  0.11881006209E+03  0.13270684225E+04  0.13414623287E+04  0.15294330000E+03 0. -1.
    8880022    1    1    2    0    0  0.30051579038E+02 -0.11881006209E+03 -0.10887467872E+03  0.22419696014E+03  0.15294330000E+03 0.  0.
<mgrwt>
<rscale>  0 0.19598618E+03</rscale>
<asrwt>0</asrwt>
<pdfrwt beam="1">  1        2 0.21414255E+00 0.19598618E+03</pdfrwt>
<pdfrwt beam="2">  1       -2 0.26728118E-01 0.19598618E+03</pdfrwt>
<totfact> 0.20213658E+02</totfact>
</mgrwt>
</event>
<event>
 4    1  0.5387657E-008  0.7752664E+03  0.7818608E-02  0.9596525E-01
         -2   -1    0    0    0  501 -0.00000000000E+00  0.00000000000E+00  0.93316009248E+03  0.93316009248E+03  0.25500000000E-02 0.  1.
          2   -1    0    0  501    0  0.00000000000E+00 -0.00000000000E+00 -0.87511749779E+03  0.87511749779E+03  0.25500000000E-02 0. -1.
    8880022    1    1    2    0    0 -0.55847632943E+03  0.51550990362E+03 -0.43553133576E+03  0.88922745612E+03  0.15294330000E+03 0.  0.
    8880022    1    1    2    0    0  0.55847632943E+03 -0.51550990362E+03  0.49357393045E+03  0.91905013416E+03  0.15294330000E+03 0.  0.
<mgrwt>
<rscale>  0 0.77526636E+03</rscale>
<asrwt>0</asrwt>
<pdfrwt beam="1">  1        2 0.13463346E+00 0.77526636E+03</pdfrwt>
<pdfrwt beam="2">  1       -2 0.14356309E+00 0.77526636E+03</pdfrwt>
<totfact> 0.10395805E+01</totfact>
</mgrwt>
</event>
<event>
 4    1  0.5387657E-008  0.7492207E+03  0.7818608E-02  0.9636574E-01
          2   -1    0    0  501    0  0.00000000000E+00  0.00000000000E+00  0.15588803891E+04  0.15588803891E+04  0.25500000000E-02 0. -1.
         -2   -1    0    0    0  501 -0.00000000000E+00 -0.00000000000E+00 -0.94860798010E+03  0.94860798010E+03  0.25500000000E-02 0.  1.
    8880022    1    1    2    0    0  0.52981768091E+03 -0.50718167721E+03 -0.68238567810E+03  0.10134011523E+04  0.15294330000E+03 0.  0.
    8880022    1    1    2    0    0 -0.52981768091E+03  0.50718167721E+03  0.12926580871E+04  0.14940872170E+04  0.15294330000E+03 0.  0.
<mgrwt>
<rscale>  0 0.74922072E+03</rscale>
<asrwt>0</asrwt>
<pdfrwt beam="1">  1        2 0.23982775E+00 0.74922072E+03</pdfrwt>
<pdfrwt beam="2">  1       -2 0.14593969E+00 0.74922072E+03</pdfrwt>
<totfact> 0.38932938E+00</totfact>
</mgrwt>
</event>
<event>
 4    1  0.5387657E-008  0.4256279E+03  0.7818608E-02  0.1035250E+00
         -2   -1    0    0    0  501 -0.00000000000E+00  0.00000000000E+00  0.18857575659E+04  0.18857575659E+04  0.25500000000E-02 0.  1.
          2   -1    0    0  501    0  0.00000000000E+00 -0.00000000000E+00 -0.63401604373E+03  0.63401604374E+03  0.25500000000E-02 0. -1.
    8880022    1    1    2    0    0  0.35777972050E+03  0.17251405279E+03 -0.53464748189E+03  0.68337911127E+03  0.15294330000E+03 0.  0.
    8880022    1    1    2    0    0 -0.35777972050E+03 -0.17251405279E+03  0.17863890040E+04  0.18363944984E+04  0.15294330000E+03 0.  1.
<mgrwt>
<rscale>  0 0.42562787E+03</rscale>
<asrwt>0</asrwt>
<pdfrwt beam="1">  1        2 0.97540931E-01 0.42562787E+03</pdfrwt>
<pdfrwt beam="2">  1       -2 0.29011654E+00 0.42562787E+03</pdfrwt>
<totfact> 0.18901209E+00</totfact>
</mgrwt>
</event>
<event>
 4    1  0.5387657E-008  0.5054421E+03  0.7818608E-02  0.1012368E+00
         -2   -1    0    0    0  501 -0.00000000000E+00  0.00000000000E+00  0.25158108066E+03  0.25158108068E+03  0.25500000000E-02 0.  1.
          2   -1    0    0  501    0  0.00000000000E+00 -0.00000000000E+00 -0.22186629292E+04  0.22186629292E+04  0.25500000000E-02 0. -1.
    8880022    1    1    2    0    0  0.13051308927E+03 -0.46373093594E+03 -0.18931039384E+04  0.19594168066E+04  0.15294330000E+03 0.  0.
    8880022    1    1    2    0    0 -0.13051308927E+03  0.46373093594E+03 -0.73977910155E+02  0.51082720329E+03  0.15294330000E+03 0.  0.
<mgrwt>
<rscale>  0 0.50544208E+03</rscale>
<asrwt>0</asrwt>
<pdfrwt beam="1">  1        2 0.34133274E+00 0.50544208E+03</pdfrwt>
<pdfrwt beam="2">  1       -2 0.38704783E-01 0.50544208E+03</pdfrwt>
<totfact> 0.34302941E+01</totfact>
</mgrwt>
</event>
<event>
 4    1  0.5387657E-008  0.4735627E+03  0.7818608E-02  0.1020919E+00
          2   -1    0    0  501    0  0.00000000000E+00  0.00000000000E+00  0.12227859790E+04  0.12227859790E+04  0.25500000000E-02 0. -1.
         -2   -1    0    0    0  501 -0.00000000000E+00 -0.00000000000E+00 -0.93042748170E+03  0.93042748171E+03  0.25500000000E-02 0.  1.
    8880022    1    1    2    0    0  0.34172704769E+03 -0.28998720510E+03 -0.81850121436E+03  0.94562457940E+03  0.15294330000E+03 0.  0.
    8880022    1    1    2    0    0 -0.34172704769E+03  0.28998720510E+03  0.11108597116E+04  0.12075888813E+04  0.15294330000E+03 0. -1.
<mgrwt>
<rscale>  0 0.47356268E+03</rscale>
<asrwt>0</asrwt>
<pdfrwt beam="1">  1        2 0.18812092E+00 0.47356268E+03</pdfrwt>
<pdfrwt beam="2">  1       -2 0.14314269E+00 0.47356268E+03</pdfrwt>
<totfact> 0.66639830E+00</totfact>
</mgrwt>
</event>
<event>
 4    1  0.5387657E-008  0.7531295E+03  0.7818608E-02  0.9630453E-01
          2   -1    0    0  501    0  0.00000000000E+00  0.00000000000E+00  0.43746933019E+04  0.43746933019E+04  0.25500000000E-02 0. -1.
         -2   -1    0    0    0  501 -0.00000000000E+00 -0.00000000000E+00 -0.14931915035E+03  0.14931915037E+03  0.25500000000E-02 0.  1.
    8880022    1    1    2    0    0 -0.45007641917E+03  0.58416064754E+03  0.12918339429E+04  0.14953391035E+04  0.15294330000E+03 0.  0.
    8880022    1    1    2    0    0  0.45007641917E+03 -0.58416064754E+03  0.29335402086E+04  0.30286733488E+04  0.15294330000E+03 0.  0.
<mgrwt>
<rscale>  0 0.75312954E+03</rscale>
<asrwt>0</asrwt>
<pdfrwt beam="1">  1        2 0.67302970E+00 0.75312954E+03</pdfrwt>
<pdfrwt beam="2">  1       -2 0.22972178E-01 0.75312954E+03</pdfrwt>
<totfact> 0.30425597E+00</totfact>
</mgrwt>
</event>
<event>
 4    1  0.5387657E-008  0.1690983E+03  0.7818608E-02  0.1178791E+00
         -2   -1    0    0    0  501 -0.00000000000E+00  0.00000000000E+00  0.94365083173E+02  0.94365083208E+02  0.25500000000E-02 0.  1.
          2   -1    0    0  501    0  0.00000000000E+00 -0.00000000000E+00 -0.85483742720E+03  0.85483742720E+03  0.25500000000E-02 0. -1.
    8880022    1    1    2    0    0 -0.60135301273E+02 -0.39828554378E+02 -0.76155304077E+03  0.78010079805E+03  0.15294330000E+03 0. -1.
    8880022    1    1    2    0    0  0.60135301273E+02  0.39828554378E+02  0.10806967402E+01  0.16910171236E+03  0.15294330000E+03 0.  0.
<mgrwt>
<rscale>  0 0.16909826E+03</rscale>
<asrwt>0</asrwt>
<pdfrwt beam="1">  1        2 0.13151345E+00 0.16909826E+03</pdfrwt>
<pdfrwt beam="2">  1       -2 0.14517706E-01 0.16909826E+03</pdfrwt>
<totfact> 0.11773978E+03</totfact>
</mgrwt>
</event>
<event>
 4    1  0.5387657E-008  0.7398451E+03  0.7818608E-02  0.9651418E-01
          2   -1    0    0  501    0  0.00000000000E+00  0.00000000000E+00  0.14814242786E+04  0.14814242786E+04  0.25500000000E-02 0. -1.
         -2   -1    0    0    0  501 -0.00000000000E+00 -0.00000000000E+00 -0.59085138990E+03  0.59085138991E+03  0.25500000000E-02 0.  1.
    8880022    1    1    2    0    0  0.69791946136E+03  0.19206142184E+03 -0.18891870116E+03  0.76358437187E+03  0.15294330000E+03 0.  0.
    8880022    1    1    2    0    0 -0.69791946136E+03 -0.19206142184E+03  0.10794915898E+04  0.13086912966E+04  0.15294330000E+03 0.  0.
<mgrwt>
<rscale>  0 0.73984513E+03</rscale>
<asrwt>0</asrwt>
<pdfrwt beam="1">  1        2 0.22791142E+00 0.73984513E+03</pdfrwt>
<pdfrwt beam="2">  1       -2 0.90900215E-01 0.73984513E+03</pdfrwt>
<totfact> 0.13771829E+01</totfact>
</mgrwt>
</event>
<event>
 4    1  0.5387657E-008  0.2413558E+03  0.7818608E-02  0.1118893E+00
         -2   -1    0    0    0  501 -0.00000000000E+00  0.00000000000E+00  0.33203287706E+03  0.33203287707E+03  0.25500000000E-02 0.  1.
          2   -1    0    0  501    0  0.00000000000E+00 -0.00000000000E+00 -0.44289628448E+03  0.44289628449E+03  0.25500000000E-02 0. -1.
    8880022    1    1    2    0    0 -0.63561602649E+02 -0.17555875046E+03 -0.35652808914E+03  0.43054022292E+03  0.15294330000E+03 0.  0.
    8880022    1    1    2    0    0  0.63561602649E+02  0.17555875046E+03  0.24566468172E+03  0.34438893863E+03  0.15294330000E+03 0.  0.
<mgrwt>
<rscale>  0 0.24135576E+03</rscale>
<asrwt>0</asrwt>
<pdfrwt beam="1">  1        2 0.68137890E-01 0.24135576E+03</pdfrwt>
<pdfrwt beam="2">  1       -2 0.51081981E-01 0.24135576E+03</pdfrwt>
<totfact> 0.26498701E+02</totfact>
</mgrwt>
</event>
<event>
 4    1  0.6739741E-008  0.4656888E+03  0.7818608E-02  0.1023144E+00
          2   -1    0    0  501    0  0.00000000000E+00  0.00000000000E+00  0.22469391278E+04  0.22469391278E+04  0.25500000000E-02 0. -1.
         -2   -1    0    0    0  501 -0.00000000000E+00 -0.00000000000E+00 -0.66070137151E+03  0.66070137152E+03  0.25500000000E-02 0.  1.
    8880022    1    1    2    0    0  0.41648148861E+03 -0.14148348918E+03  0.21365609268E+04  0.21867232690E+04  0.15294330000E+03 0.  0.
    8880022    1    1    2    0    0 -0.41648148861E+03  0.14148348918E+03 -0.55032317049E+03  0.72091723038E+03  0.15294330000E+03 0.  0.
<mgrwt>
<rscale>  0 0.46568880E+03</rscale>
<asrwt>0</asrwt>
<pdfrwt beam="1">  1        2 0.34568294E+00 0.46568880E+03</pdfrwt>
<pdfrwt beam="2">  1       -2 0.10164636E+00 0.46568880E+03</pdfrwt>
<totfact> 0.42911997E+00</totfact>
</mgrwt>
</event>
<event>
 4    1  0.5387657E-008  0.2149905E+03  0.7818608E-02  0.1137674E+00
         -2   -1    0    0    0  501 -0.00000000000E+00  0.00000000000E+00  0.14571470983E+03  0.14571470986E+03  0.25500000000E-02 0.  1.
          2   -1    0    0  501    0  0.00000000000E+00 -0.00000000000E+00 -0.61996745921E+03  0.61996745921E+03  0.25500000000E-02 0. -1.
    8880022    1    1    2    0    0  0.13389900240E+03 -0.70002318147E+02 -0.50466570342E+03  0.54855117593E+03  0.15294330000E+03 0. -1.
    8880022    1    1    2    0    0 -0.13389900240E+03  0.70002318147E+02  0.30412954052E+02  0.21713099313E+03  0.15294330000E+03 0.  0.
<mgrwt>
<rscale>  0 0.21499051E+03</rscale>
<asrwt>0</asrwt>
<pdfrwt beam="1">  1        2 0.95379608E-01 0.21499051E+03</pdfrwt>
<pdfrwt beam="2">  1       -2 0.22417648E-01 0.21499051E+03</pdfrwt>
<totfact> 0.83931162E+02</totfact>
</mgrwt>
</event>
<event>
 4    1  0.5387657E-008  0.1884337E+03  0.7818608E-02  0.1159882E+00
          2   -1    0    0  501    0  0.00000000000E+00  0.00000000000E+00  0.71617569193E+03  0.71617569194E+03  0.25500000000E-02 0. -1.
         -2   -1    0    0    0  501 -0.00000000000E+00 -0.00000000000E+00 -0.15660662382E+03  0.15660662384E+03  0.25500000000E-02 0.  1.
    8880022    1    1    2    0    0  0.45720814163E+02  0.10012603719E+03 -0.80975846248E+02  0.20509596988E+03  0.15294330000E+03 0.  0.
    8880022    1    1    2    0    0 -0.45720814163E+02 -0.10012603719E+03  0.64054491436E+03  0.66768634590E+03  0.15294330000E+03 0.  0.
<mgrwt>
<rscale>  0 0.18843373E+03</rscale>
<asrwt>0</asrwt>
<pdfrwt beam="1">  1        2 0.11018088E+00 0.18843373E+03</pdfrwt>
<pdfrwt beam="2">  1       -2 0.24093326E-01 0.18843373E+03</pdfrwt>
<totfact> 0.62392353E+02</totfact>
</mgrwt>
</event>
<event>
 4    1  0.5387657E-008  0.5475855E+03  0.7818608E-02  0.1002054E+00
          2   -1    0    0  501    0  0.00000000000E+00  0.00000000000E+00  0.42956247899E+04  0.42956247899E+04  0.25500000000E-02 0. -1.
         -2   -1    0    0    0  501 -0.00000000000E+00 -0.00000000000E+00 -0.97647617819E+02  0.97647617852E+02  0.25500000000E-02 0.  1.
    8880022    1    1    2    0    0 -0.15089089002E+02  0.52557639155E+03  0.32719767262E+04  0.33174812093E+04  0.15294330000E+03 0.  0.
    8880022    1    1    2    0    0  0.15089089002E+02 -0.52557639155E+03  0.92600044583E+03  0.10757911984E+04  0.15294330000E+03 0.  0.
<mgrwt>
<rscale>  0 0.54758550E+03</rscale>
<asrwt>0</asrwt>
<pdfrwt beam="1">  1        2 0.66086532E+00 0.54758550E+03</pdfrwt>
<pdfrwt beam="2">  1       -2 0.15022711E-01 0.54758550E+03</pdfrwt>
<totfact> 0.78743570E+00</totfact>
</mgrwt>
</event>
<event>
 4    1  0.5387657E-008  0.6030463E+03  0.7818608E-02  0.9899106E-01
          2   -1    0    0  501    0  0.00000000000E+00  0.00000000000E+00  0.65484830686E+03  0.65484830687E+03  0.25500000000E-02 0. -1.
         -2   -1    0    0    0  501 -0.00000000000E+00 -0.00000000000E+00 -0.14994445885E+04  0.14994445885E+04  0.25500000000E-02 0.  1.
    8880022    1    1    2    0    0  0.54337668999E+03  0.21216732343E+03 -0.12770087747E+04  0.14122380338E+04  0.15294330000E+03 0.  0.
    8880022    1    1    2    0    0 -0.54337668999E+03 -0.21216732343E+03  0.43241249310E+03  0.74205486156E+03  0.15294330000E+03 0.  0.
<mgrwt>
<rscale>  0 0.60304631E+03</rscale>
<asrwt>0</asrwt>
<pdfrwt beam="1">  1        2 0.10074589E+00 0.60304631E+03</pdfrwt>
<pdfrwt beam="2">  1       -2 0.23068378E+00 0.60304631E+03</pdfrwt>
<totfact> 0.39587146E+00</totfact>
</mgrwt>
</event>
<event>
 4    1  0.5387657E-008  0.9824466E+03  0.7818608E-02  0.9328009E-01
         -2   -1    0    0    0  501 -0.00000000000E+00  0.00000000000E+00  0.12405645740E+04  0.12405645741E+04  0.25500000000E-02 0.  1.
          2   -1    0    0  501    0  0.00000000000E+00 -0.00000000000E+00 -0.19907285822E+04  0.19907285822E+04  0.25500000000E-02 0. -1.
    8880022    1    1    2    0    0  0.12531140118E+03 -0.96234440524E+03  0.88592084251E+03  0.13228972348E+04  0.15294330000E+03 0.  0.
    8880022    1    1    2    0    0 -0.12531140118E+03  0.96234440524E+03 -0.16360848507E+04  0.19083959215E+04  0.15294330000E+03 0. -1.
<mgrwt>
<rscale>  0 0.98244662E+03</rscale>
<asrwt>0</asrwt>
<pdfrwt beam="1">  1        2 0.30626594E+00 0.98244662E+03</pdfrwt>
<pdfrwt beam="2">  1       -2 0.19085609E+00 0.98244662E+03</pdfrwt>
<totfact> 0.10349192E+00</totfact>
</mgrwt>
</event>
<event>
 4    1  0.5387657E-008  0.8241308E+03  0.7818608E-02  0.9525731E-01
          2   -1    0    0  501    0  0.00000000000E+00  0.00000000000E+00  0.19972212930E+04  0.19972212930E+04  0.25500000000E-02 0. -1.
         -2   -1    0    0    0  501 -0.00000000000E+00 -0.00000000000E+00 -0.70511737690E+03  0.70511737690E+03  0.25500000000E-02 0.  1.
    8880022    1    1    2    0    0  0.80626636931E+03 -0.75726634357E+02  0.16182499134E+04  0.18160188371E+04  0.15294330000E+03 0.  0.
    8880022    1    1    2    0    0 -0.80626636931E+03  0.75726634357E+02 -0.32614599732E+03  0.88631983280E+03  0.15294330000E+03 0.  0.
<mgrwt>
<rscale>  0 0.82413084E+03</rscale>
<asrwt>0</asrwt>
<pdfrwt beam="1">  1        2 0.30726481E+00 0.82413084E+03</pdfrwt>
<pdfrwt beam="2">  1       -2 0.10847960E+00 0.82413084E+03</pdfrwt>
<totfact> 0.46657469E+00</totfact>
</mgrwt>
</event>
<event>
 4    1  0.5387657E-008  0.8746674E+03  0.7818608E-02  0.9457814E-01
          2   -1    0    0  501    0  0.00000000000E+00  0.00000000000E+00  0.24106001454E+04  0.24106001454E+04  0.25500000000E-02 0. -1.
         -2   -1    0    0    0  501 -0.00000000000E+00 -0.00000000000E+00 -0.94173595891E+03  0.94173595891E+03  0.25500000000E-02 0.  1.
    8880022    1    1    2    0    0  0.31226719777E+03  0.80258375326E+03 -0.63038324091E+03  0.10781586930E+04  0.15294330000E+03 0.  0.
    8880022    1    1    2    0    0 -0.31226719777E+03 -0.80258375326E+03  0.20992474274E+04  0.22741774113E+04  0.15294330000E+03 0.  0.
<mgrwt>
<rscale>  0 0.87466744E+03</rscale>
<asrwt>0</asrwt>
<pdfrwt beam="1">  1        2 0.37086156E+00 0.87466744E+03</pdfrwt>
<pdfrwt beam="2">  1       -2 0.14488246E+00 0.87466744E+03</pdfrwt>
<totfact> 0.13192358E+00</totfact>
</mgrwt>
</event>
<event>
 4    1  0.5387657E-008  0.8994360E+03  0.7818608E-02  0.9426287E-01
         -2   -1    0    0    0  501 -0.00000000000E+00  0.00000000000E+00  0.80422220950E+03  0.80422220951E+03  0.25500000000E-02 0.  1.
          2   -1    0    0  501    0  0.00000000000E+00 -0.00000000000E+00 -0.28186313069E+04  0.28186313069E+04  0.25500000000E-02 0. -1.
    8880022    1    1    2    0    0 -0.75642498517E+03 -0.46196834353E+03  0.44546112228E+03  0.10037035285E+04  0.15294330000E+03 0.  0.
    8880022    1    1    2    0    0  0.75642498517E+03  0.46196834353E+03 -0.24598702197E+04  0.26191499879E+04  0.15294330000E+03 0.  0.
<mgrwt>
<rscale>  0 0.89943602E+03</rscale>
<asrwt>0</asrwt>
<pdfrwt beam="1">  1        2 0.43363558E+00 0.89943602E+03</pdfrwt>
<pdfrwt beam="2">  1       -2 0.12372650E+00 0.89943602E+03</pdfrwt>
<totfact> 0.11426628E+00</totfact>
</mgrwt>
</event>
<event>
 4    1  0.5650558E-008  0.6126034E+03  0.7818608E-02  0.9879598E-01
          2   -1    0    0  501    0  0.00000000000E+00  0.00000000000E+00  0.16780995815E+04  0.16780995815E+04  0.25500000000E-02 0. -1.
         -2   -1    0    0    0  501 -0.00000000000E+00 -0.00000000000E+00 -0.95149695218E+03  0.95149695219E+03  0.25500000000E-02 0.  1.
    8880022    1    1    2    0    0  0.14461494332E+03 -0.57530666659E+03 -0.78665074748E+03  0.99704678626E+03  0.15294330000E+03 0.  0.
    8880022    1    1    2    0    0 -0.14461494332E+03  0.57530666659E+03  0.15132533768E+04  0.16325497475E+04  0.15294330000E+03 0.  0.
<mgrwt>
<rscale>  0 0.61260338E+03</rscale>
<asrwt>0</asrwt>
<pdfrwt beam="1">  1        2 0.25816917E+00 0.61260338E+03</pdfrwt>
<pdfrwt beam="2">  1       -2 0.14638415E+00 0.61260338E+03</pdfrwt>
<totfact> 0.34050624E+00</totfact>
</mgrwt>
</event>
<event>
 4    1  0.5387657E-008  0.3343412E+03  0.7818608E-02  0.1069232E+00
          2   -1    0    0  501    0  0.00000000000E+00  0.00000000000E+00  0.72271687843E+03  0.72271687843E+03  0.25500000000E-02 0. -1.
         -2   -1    0    0    0  501 -0.00000000000E+00 -0.00000000000E+00 -0.32900395518E+03  0.32900395519E+03  0.25500000000E-02 0.  1.
    8880022    1    1    2    0    0 -0.63118196990E+01  0.29724150897E+03  0.57964464506E+03  0.66915762066E+03  0.15294330000E+03 0.  0.
    8880022    1    1    2    0    0  0.63118196990E+01 -0.29724150897E+03 -0.18593172180E+03  0.38256321296E+03  0.15294330000E+03 0.  1.
<mgrwt>
<rscale>  0 0.33434115E+03</rscale>
<asrwt>0</asrwt>
<pdfrwt beam="1">  1        2 0.11118721E+00 0.33434115E+03</pdfrwt>
<pdfrwt beam="2">  1       -2 0.50615993E-01 0.33434115E+03</pdfrwt>
<totfact> 0.15157482E+02</totfact>
</mgrwt>
</event>
<event>
 4    1  0.5387657E-008  0.7386362E+03  0.7818608E-02  0.9653349E-01
          2   -1    0    0  501    0  0.00000000000E+00  0.00000000000E+00  0.26494513449E+04  0.26494513449E+04  0.25500000000E-02 0. -1.
         -2   -1    0    0    0  501 -0.00000000000E+00 -0.00000000000E+00 -0.30074436815E+03  0.30074436816E+03  0.25500000000E-02 0.  1.
    8880022    1    1    2    0    0 -0.71504516535E+03  0.10441324114E+03  0.20026290463E+04  0.21345037980E+04  0.15294330000E+03 0.  0.
    8880022    1    1    2    0    0  0.71504516535E+03 -0.10441324114E+03  0.34607793049E+03  0.81569191513E+03  0.15294330000E+03 0.  0.
<mgrwt>
<rscale>  0 0.73863615E+03</rscale>
<asrwt>0</asrwt>
<pdfrwt beam="1">  1        2 0.40760791E+00 0.73863615E+03</pdfrwt>
<pdfrwt beam="2">  1       -2 0.46268364E-01 0.73863615E+03</pdfrwt>
<totfact> 0.13278890E+01</totfact>
</mgrwt>
</event>
<event>
 4    1  0.5387657E-008  0.2415964E+03  0.7818608E-02  0.1118734E+00
          2   -1    0    0  501    0  0.00000000000E+00  0.00000000000E+00  0.14740054815E+04  0.14740054815E+04  0.25500000000E-02 0. -1.
         -2   -1    0    0    0  501 -0.00000000000E+00 -0.00000000000E+00 -0.13956213601E+03  0.13956213604E+03  0.25500000000E-02 0.  1.
    8880022    1    1    2    0    0  0.13131000503E+03 -0.13317222777E+03 -0.15578768288E+02  0.24209814272E+03  0.15294330000E+03 0.  1.
    8880022    1    1    2    0    0 -0.13131000503E+03  0.13317222777E+03  0.13500221137E+04  0.13714694748E+04  0.15294330000E+03 0.  0.
<mgrwt>
<rscale>  0 0.24159638E+03</rscale>
<asrwt>0</asrwt>
<pdfrwt beam="1">  1        2 0.22677008E+00 0.24159638E+03</pdfrwt>
<pdfrwt beam="2">  1       -2 0.21471097E-01 0.24159638E+03</pdfrwt>
<totfact> 0.26534559E+02</totfact>
</mgrwt>
</event>
<event>
 4    1  0.5387657E-008  0.3691734E+03  0.7818608E-02  0.1055009E+00
         -2   -1    0    0    0  501 -0.00000000000E+00  0.00000000000E+00  0.12029846351E+03  0.12029846353E+03  0.25500000000E-02 0.  1.
          2   -1    0    0  501    0  0.00000000000E+00 -0.00000000000E+00 -0.15773666521E+04  0.15773666521E+04  0.25500000000E-02 0. -1.
    8880022    1    1    2    0    0  0.25990111595E+02  0.33499526766E+03 -0.27796254785E+03  0.46211702660E+03  0.15294330000E+03 0.  0.
    8880022    1    1    2    0    0 -0.25990111595E+02 -0.33499526766E+03 -0.11791056408E+04  0.12355480890E+04  0.15294330000E+03 0. -1.
<mgrwt>
<rscale>  0 0.36917336E+03</rscale>
<asrwt>0</asrwt>
<pdfrwt beam="1">  1        2 0.24267178E+00 0.36917336E+03</pdfrwt>
<pdfrwt beam="2">  1       -2 0.18507457E-01 0.36917336E+03</pdfrwt>
<totfact> 0.29524618E+02</totfact>
</mgrwt>
</event>
<event>
 4    1  0.5387657E-008  0.6388516E+03  0.7818608E-02  0.9827926E-01
          2   -1    0    0  501    0  0.00000000000E+00  0.00000000000E+00  0.13010705710E+04  0.13010705710E+04  0.25500000000E-02 0. -1.
         -2   -1    0    0    0  501 -0.00000000000E+00 -0.00000000000E+00 -0.54014721930E+03  0.54014721931E+03  0.25500000000E-02 0.  1.
    8880022    1    1    2    0    0 -0.34757117699E+03 -0.51374504366E+03  0.97655364588E+03  0.11669568841E+04  0.15294330000E+03 0.  0.
    8880022    1    1    2    0    0  0.34757117699E+03  0.51374504366E+03 -0.21563029416E+03  0.67426090628E+03  0.15294330000E+03 0.  0.
<mgrwt>
<rscale>  0 0.63885158E+03</rscale>
<asrwt>0</asrwt>
<pdfrwt beam="1">  1        2 0.20016470E+00 0.63885158E+03</pdfrwt>
<pdfrwt beam="2">  1       -2 0.83099573E-01 0.63885158E+03</pdfrwt>
<totfact> 0.21666160E+01</totfact>
</mgrwt>
</event>
<event>
 4    1  0.5387657E-008  0.3640593E+03  0.7818608E-02  0.1056988E+00
          2   -1    0    0  501    0  0.00000000000E+00  0.00000000000E+00  0.19911993748E+04  0.19911993748E+04  0.25500000000E-02 0. -1.
         -2   -1    0    0    0  501 -0.00000000000E+00 -0.00000000000E+00 -0.43496477216E+03  0.43496477216E+03  0.25500000000E-02 0.  1.
    8880022    1    1    2    0    0  0.33033123384E+03 -0.53676811552E+01  0.18945287932E+04  0.19291911614E+04  0.15294330000E+03 0.  0.
    8880022    1    1    2    0    0 -0.33033123384E+03  0.53676811552E+01 -0.33829419051E+03  0.49697298558E+03  0.15294330000E+03 0.  0.
<mgrwt>
<rscale>  0 0.36405932E+03</rscale>
<asrwt>0</asrwt>
<pdfrwt beam="1">  1        2 0.30633837E+00 0.36405932E+03</pdfrwt>
<pdfrwt beam="2">  1       -2 0.66917657E-01 0.36405932E+03</pdfrwt>
<totfact> 0.15521564E+01</totfact>
</mgrwt>
</event>
<event>
 4    1  0.5387657E-008  0.3090587E+03  0.7818608E-02  0.1080798E+00
          2   -1    0    0  501    0  0.00000000000E+00  0.00000000000E+00  0.17052548588E+04  0.17052548588E+04  0.25500000000E-02 0. -1.
         -2   -1    0    0    0  501 -0.00000000000E+00 -0.00000000000E+00 -0.34208023061E+03  0.34208023062E+03  0.25500000000E-02 0.  1.
    8880022    1    1    2    0    0 -0.25516863206E+03 -0.83753199155E+02  0.16177010702E+04  0.16469590264E+04  0.15294330000E+03 0. -1.
    8880022    1    1    2    0    0  0.25516863206E+03  0.83753199155E+02 -0.25452644199E+03  0.40037606303E+03  0.15294330000E+03 0.  0.
<mgrwt>
<rscale>  0 0.30905870E+03</rscale>
<asrwt>0</asrwt>
<pdfrwt beam="1">  1        2 0.26234690E+00 0.30905870E+03</pdfrwt>
<pdfrwt beam="2">  1       -2 0.52627729E-01 0.30905870E+03</pdfrwt>
<totfact> 0.36894824E+01</totfact>
</mgrwt>
</event>
<event>
 4    1  0.5387657E-008  0.1227709E+04  0.7818608E-02  0.9088943E-01
          2   -1    0    0  501    0  0.00000000000E+00  0.00000000000E+00  0.24254648042E+04  0.24254648042E+04  0.25500000000E-02 0. -1.
         -2   -1    0    0    0  501 -0.00000000000E+00 -0.00000000000E+00 -0.76979685286E+03  0.76979685286E+03  0.25500000000E-02 0.  1.
    8880022    1    1    2    0    0  0.16599900997E+03 -0.12067814684E+04  0.15292075853E+04  0.19610570302E+04  0.15294330000E+03 0.  0.
    8880022    1    1    2    0    0 -0.16599900997E+03  0.12067814684E+04  0.12646036609E+03  0.12342046269E+04  0.15294330000E+03 0.  0.
<mgrwt>
<rscale>  0 0.12277088E+04</rscale>
<asrwt>0</asrwt>
<pdfrwt beam="1">  1        2 0.37314843E+00 0.12277088E+04</pdfrwt>
<pdfrwt beam="2">  1       -2 0.11843028E+00 0.12277088E+04</pdfrwt>
<totfact> 0.20602621E+00</totfact>
</mgrwt>
</event>
<event>
 4    1  0.5387657E-008  0.3283472E+03  0.7818608E-02  0.1071871E+00
         -2   -1    0    0    0  501 -0.00000000000E+00  0.00000000000E+00  0.44201554703E+03  0.44201554704E+03  0.25500000000E-02 0.  1.
          2   -1    0    0  501    0  0.00000000000E+00 -0.00000000000E+00 -0.10116985128E+04  0.10116985128E+04  0.25500000000E-02 0. -1.
    8880022    1    1    2    0    0 -0.85334417093E+02  0.27773781598E+03  0.34836347936E+03  0.47871601596E+03  0.15294330000E+03 0.  1.
    8880022    1    1    2    0    0  0.85334417093E+02 -0.27773781598E+03 -0.91804644513E+03  0.97499804389E+03  0.15294330000E+03 0.  0.
<mgrwt>
<rscale>  0 0.32834724E+03</rscale>
<asrwt>0</asrwt>
<pdfrwt beam="1">  1        2 0.15564592E+00 0.32834724E+03</pdfrwt>
<pdfrwt beam="2">  1       -2 0.68002392E-01 0.32834724E+03</pdfrwt>
<totfact> 0.52546452E+01</totfact>
</mgrwt>
</event>
<event>
 4    1  0.5387657E-008  0.4774979E+03  0.7818608E-02  0.1019825E+00
          2   -1    0    0  501    0  0.00000000000E+00  0.00000000000E+00  0.25678513154E+04  0.25678513154E+04  0.25500000000E-02 0. -1.
         -2   -1    0    0    0  501 -0.00000000000E+00 -0.00000000000E+00 -0.19020073498E+03  0.19020073500E+03  0.25500000000E-02 0.  1.
    8880022    1    1    2    0    0 -0.22516493500E+03  0.39231789632E+03  0.18188341787E+03  0.51096556678E+03  0.15294330000E+03 0.  0.
    8880022    1    1    2    0    0  0.22516493500E+03 -0.39231789632E+03  0.21957671626E+04  0.22470864836E+04  0.15294330000E+03 0.  0.
<mgrwt>
<rscale>  0 0.47749789E+03</rscale>
<asrwt>0</asrwt>
<pdfrwt beam="1">  1        2 0.39505401E+00 0.47749789E+03</pdfrwt>
<pdfrwt beam="2">  1       -2 0.29261654E-01 0.47749789E+03</pdfrwt>
<totfact> 0.37411202E+01</totfact>
</mgrwt>
</event>
<event>
 4    1  0.5387657E-008  0.2625745E+03  0.7818608E-02  0.1105606E+00
          2   -1    0    0  501    0  0.00000000000E+00  0.00000000000E+00  0.17889579165E+04  0.17889579165E+04  0.25500000000E-02 0. -1.
         -2   -1    0    0    0  501 -0.00000000000E+00 -0.00000000000E+00 -0.60158686327E+02  0.60158686381E+02  0.25500000000E-02 0.  1.
    8880022    1    1    2    0    0  0.17745453937E+03  0.11859006819E+03  0.14186497059E+04  0.14427447310E+04  0.15294330000E+03 0.  0.
    8880022    1    1    2    0    0 -0.17745453937E+03 -0.11859006819E+03  0.31014952425E+03  0.40637187184E+03  0.15294330000E+03 0.  1.
<mgrwt>
<rscale>  0 0.26257451E+03</rscale>
<asrwt>0</asrwt>
<pdfrwt beam="1">  1        2 0.27522425E+00 0.26257451E+03</pdfrwt>
<pdfrwt beam="2">  1       -2 0.92551840E-02 0.26257451E+03</pdfrwt>
<totfact> 0.72211657E+02</totfact>
</mgrwt>
</event>
<event>
 4    1  0.5387657E-008  0.1900193E+03  0.7818608E-02  0.1158444E+00
         -2   -1    0    0    0  501 -0.00000000000E+00  0.00000000000E+00  0.84596495669E+02  0.84596495708E+02  0.25500000000E-02 0.  1.
          2   -1    0    0  501    0  0.00000000000E+00 -0.00000000000E+00 -0.13194242884E+04  0.13194242884E+04  0.25500000000E-02 0. -1.
    8880022    1    1    2    0    0 -0.10309699334E+03 -0.45680131610E+02 -0.40007959255E+02  0.19418536062E+03  0.15294330000E+03 0.  1.
    8880022    1    1    2    0    0  0.10309699334E+03  0.45680131610E+02 -0.11948198335E+04  0.12098354235E+04  0.15294330000E+03 0.  0.
<mgrwt>
<rscale>  0 0.19001926E+03</rscale>
<asrwt>0</asrwt>
<pdfrwt beam="1">  1        2 0.20298834E+00 0.19001926E+03</pdfrwt>
<pdfrwt beam="2">  1       -2 0.13014846E-01 0.19001926E+03</pdfrwt>
<totfact> 0.74918814E+02</totfact>
</mgrwt>
</event>
<event>
 4    1  0.5387657E-008  0.6543647E+03  0.7818608E-02  0.9798623E-01
         -2   -1    0    0    0  501 -0.00000000000E+00  0.00000000000E+00  0.27664100826E+03  0.27664100827E+03  0.25500000000E-02 0.  1.
          2   -1    0    0  501    0  0.00000000000E+00 -0.00000000000E+00 -0.17942462921E+04  0.17942462921E+04  0.25500000000E-02 0. -1.
    8880022    1    1    2    0    0 -0.63082266017E+03 -0.82850783209E+02 -0.11425280224E+04  0.13166485544E+04  0.15294330000E+03 0.  0.
    8880022    1    1    2    0    0  0.63082266017E+03  0.82850783209E+02 -0.37507726145E+03  0.75423874597E+03  0.15294330000E+03 0.  0.
<mgrwt>
<rscale>  0 0.65436468E+03</rscale>
<asrwt>0</asrwt>
<pdfrwt beam="1">  1        2 0.27603788E+00 0.65436468E+03</pdfrwt>
<pdfrwt beam="2">  1       -2 0.42560156E-01 0.65436468E+03</pdfrwt>
<totfact> 0.47258615E+01</totfact>
</mgrwt>
</event>
<event>
 4    1  0.5387657E-008  0.5105609E+03  0.7818608E-02  0.1011059E+00
          2   -1    0    0  501    0  0.00000000000E+00  0.00000000000E+00  0.21827338511E+04  0.21827338511E+04  0.25500000000E-02 0. -1.
         -2   -1    0    0    0  501 -0.00000000000E+00 -0.00000000000E+00 -0.44029250371E+03  0.44029250372E+03  0.25500000000E-02 0.  1.
    8880022    1    1    2    0    0 -0.34032710482E+01  0.48710282462E+03 -0.24838493272E+03  0.56777413804E+03  0.15294330000E+03 0.  0.
    8880022    1    1    2    0    0  0.34032710482E+01 -0.48710282462E+03  0.19908262801E+04  0.20552522168E+04  0.15294330000E+03 0.  0.
<mgrwt>
<rscale>  0 0.51056087E+03</rscale>
<asrwt>0</asrwt>
<pdfrwt beam="1">  1        2 0.33580522E+00 0.51056087E+03</pdfrwt>
<pdfrwt beam="2">  1       -2 0.67737306E-01 0.51056087E+03</pdfrwt>
<totfact> 0.11472211E+01</totfact>
</mgrwt>
</event>
<event>
 4    1  0.5387657E-008  0.2817922E+03  0.7818608E-02  0.1094714E+00
         -2   -1    0    0    0  501 -0.00000000000E+00  0.00000000000E+00  0.43854458257E+03  0.43854458258E+03  0.25500000000E-02 0.  1.
          2   -1    0    0  501    0  0.00000000000E+00 -0.00000000000E+00 -0.54977557424E+03  0.54977557425E+03  0.25500000000E-02 0. -1.
    8880022    1    1    2    0    0 -0.87393740745E+02 -0.21994896748E+03 -0.46029883628E+03  0.53970536954E+03  0.15294330000E+03 0.  0.
    8880022    1    1    2    0    0  0.87393740745E+02  0.21994896748E+03  0.34906784461E+03  0.44861478729E+03  0.15294330000E+03 0.  0.
<mgrwt>
<rscale>  0 0.28179224E+03</rscale>
<asrwt>0</asrwt>
<pdfrwt beam="1">  1        2 0.84580858E-01 0.28179224E+03</pdfrwt>
<pdfrwt beam="2">  1       -2 0.67468397E-01 0.28179224E+03</pdfrwt>
<totfact> 0.11643381E+02</totfact>
</mgrwt>
</event>
<event>
 4    1  0.5387657E-008  0.2166074E+03  0.7818608E-02  0.1136438E+00
         -2   -1    0    0    0  501 -0.00000000000E+00  0.00000000000E+00  0.16132799371E+03  0.16132799373E+03  0.25500000000E-02 0.  1.
          2   -1    0    0  501    0  0.00000000000E+00 -0.00000000000E+00 -0.41020139035E+03  0.41020139035E+03  0.25500000000E-02 0. -1.
    8880022    1    1    2    0    0  0.15176924660E+03 -0.22207824307E+02 -0.27859369445E+03  0.35289260586E+03  0.15294330000E+03 0. -1.
    8880022    1    1    2    0    0 -0.15176924660E+03  0.22207824307E+02  0.29720297805E+02  0.21863677822E+03  0.15294330000E+03 0.  0.
<mgrwt>
<rscale>  0 0.21660735E+03</rscale>
<asrwt>0</asrwt>
<pdfrwt beam="1">  1        2 0.63107906E-01 0.21660735E+03</pdfrwt>
<pdfrwt beam="2">  1       -2 0.24819692E-01 0.21660735E+03</pdfrwt>
<totfact> 0.11163460E+03</totfact>
</mgrwt>
</event>
<event>
 4    1  0.5387657E-008  0.2462434E+03  0.7818608E-02  0.1115702E+00
          2   -1    0    0  501    0  0.00000000000E+00  0.00000000000E+00  0.20404385980E+03  0.20404385982E+03  0.25500000000E-02 0. -1.
         -2   -1    0    0    0  501 -0.00000000000E+00 -0.00000000000E+00 -0.56369059711E+03  0.56369059712E+03  0.25500000000E-02 0.  1.
    8880022    1    1    2    0    0  0.97632726992E+02 -0.16646925397E+03 -0.44377577583E+03  0.50751625997E+03  0.15294330000E+03 0.  1.
    8880022    1    1    2    0    0 -0.97632726992E+02  0.16646925397E+03  0.84129038524E+02  0.26021819697E+03  0.15294330000E+03 0.  0.
<mgrwt>
<rscale>  0 0.24624341E+03</rscale>
<asrwt>0</asrwt>
<pdfrwt beam="1">  1        2 0.31391363E-01 0.24624341E+03</pdfrwt>
<pdfrwt beam="2">  1       -2 0.86721630E-01 0.24624341E+03</pdfrwt>
<totfact> 0.19970046E+02</totfact>
</mgrwt>
</event>
<event>
 4    1  0.5387657E-008  0.2821782E+03  0.7818608E-02  0.1094505E+00
          2   -1    0    0  501    0  0.00000000000E+00  0.00000000000E+00  0.67918072156E+03  0.67918072157E+03  0.25500000000E-02 0. -1.
         -2   -1    0    0    0  501 -0.00000000000E+00 -0.00000000000E+00 -0.53048576501E+03  0.53048576501E+03  0.25500000000E-02 0.  1.
    8880022    1    1    2    0    0  0.20885184873E+03 -0.11231100786E+03 -0.45948504870E+03  0.53921333459E+03  0.15294330000E+03 0.  0.
    8880022    1    1    2    0    0 -0.20885184873E+03  0.11231100786E+03  0.60818000526E+03  0.67045315199E+03  0.15294330000E+03 0. -1.
<mgrwt>
<rscale>  0 0.28217815E+03</rscale>
<asrwt>0</asrwt>
<pdfrwt beam="1">  1        2 0.10448934E+00 0.28217815E+03</pdfrwt>
<pdfrwt beam="2">  1       -2 0.81613194E-01 0.28217815E+03</pdfrwt>
<totfact> 0.59976307E+01</totfact>
</mgrwt>
</event>
<event>
 4    1  0.5387657E-008  0.1547492E+03  0.7818608E-02  0.1194756E+00
          2   -1    0    0  501    0  0.00000000000E+00  0.00000000000E+00  0.31980260344E+03  0.31980260345E+03  0.25500000000E-02 0. -1.
         -2   -1    0    0    0  501 -0.00000000000E+00 -0.00000000000E+00 -0.25722374172E+03  0.25722374174E+03  0.25500000000E-02 0.  1.
    8880022    1    1    2    0    0  0.20153789986E+02  0.12226753391E+02  0.27420406517E+03  0.31485741395E+03  0.15294330000E+03 0. -1.
    8880022    1    1    2    0    0 -0.20153789986E+02 -0.12226753391E+02 -0.21162520346E+03  0.26216893123E+03  0.15294330000E+03 0.  0.
<mgrwt>
<rscale>  0 0.15474922E+03</rscale>
<asrwt>0</asrwt>
<pdfrwt beam="1">  1        2 0.49200400E-01 0.15474922E+03</pdfrwt>
<pdfrwt beam="2">  1       -2 0.39572884E-01 0.15474922E+03</pdfrwt>
<totfact> 0.62074311E+02</totfact>
</mgrwt>
</event>
<event>
 4    1  0.5387657E-008  0.1299436E+04  0.7818608E-02  0.9030013E-01
          2   -1    0    0  501    0  0.00000000000E+00  0.00000000000E+00  0.14611556999E+04  0.14611556999E+04  0.25500000000E-02 0. -1.
         -2   -1    0    0    0  501 -0.00000000000E+00 -0.00000000000E+00 -0.11992764857E+04  0.11992764857E+04  0.25500000000E-02 0.  1.
    8880022    1    1    2    0    0 -0.70925887932E+03 -0.10780045181E+04  0.38475118307E+03  0.13551999944E+04  0.15294330000E+03 0.  0.
    8880022    1    1    2    0    0  0.70925887932E+03  0.10780045181E+04 -0.12287196894E+03  0.13052321911E+04  0.15294330000E+03 0.  0.
<mgrwt>
<rscale>  0 0.12994359E+04</rscale>
<asrwt>0</asrwt>
<pdfrwt beam="1">  1        2 0.22479318E+00 0.12994359E+04</pdfrwt>
<pdfrwt beam="2">  1       -2 0.18450408E+00 0.12994359E+04</pdfrwt>
<totfact> 0.21664980E+00</totfact>
</mgrwt>
</event>
<event>
 4    1  0.5387657E-008  0.4642438E+03  0.7818608E-02  0.1023558E+00
          2   -1    0    0  501    0  0.00000000000E+00  0.00000000000E+00  0.17139709893E+04  0.17139709893E+04  0.25500000000E-02 0. -1.
         -2   -1    0    0    0  501 -0.00000000000E+00 -0.00000000000E+00 -0.22785455433E+03  0.22785455434E+03  0.25500000000E-02 0.  1.
    8880022    1    1    2    0    0  0.10665344954E+03  0.42515375747E+03  0.13930168710E+04  0.14683386297E+04  0.15294330000E+03 0.  0.
    8880022    1    1    2    0    0 -0.10665344954E+03 -0.42515375747E+03  0.93099563992E+02  0.47348691388E+03  0.15294330000E+03 0.  0.
<mgrwt>
<rscale>  0 0.46424382E+03</rscale>
<asrwt>0</asrwt>
<pdfrwt beam="1">  1        2 0.26368785E+00 0.46424382E+03</pdfrwt>
<pdfrwt beam="2">  1       -2 0.35054546E-01 0.46424382E+03</pdfrwt>
<totfact> 0.78095561E+01</totfact>
</mgrwt>
</event>
<event>
 4    1  0.5387657E-008  0.3765260E+03  0.7818608E-02  0.1052225E+00
          2   -1    0    0  501    0  0.00000000000E+00  0.00000000000E+00  0.11457249934E+04  0.11457249934E+04  0.25500000000E-02 0. -1.
         -2   -1    0    0    0  501 -0.00000000000E+00 -0.00000000000E+00 -0.22295651814E+03  0.22295651815E+03  0.25500000000E-02 0.  1.
    8880022    1    1    2    0    0  0.37641771274E+02  0.34199890676E+03  0.91789886367E+03  0.99212405077E+03  0.15294330000E+03 0.  0.
    8880022    1    1    2    0    0 -0.37641771274E+02 -0.34199890676E+03  0.48696116278E+01  0.37655746083E+03  0.15294330000E+03 0.  0.
<mgrwt>
<rscale>  0 0.37652597E+03</rscale>
<asrwt>0</asrwt>
<pdfrwt beam="1">  1        2 0.17626538E+00 0.37652597E+03</pdfrwt>
<pdfrwt beam="2">  1       -2 0.34301003E-01 0.37652597E+03</pdfrwt>
<totfact> 0.17038671E+02</totfact>
</mgrwt>
</event>
<event>
 4    1  0.5387657E-008  0.3342818E+03  0.7818608E-02  0.1069258E+00
         -2   -1    0    0    0  501 -0.00000000000E+00  0.00000000000E+00  0.52469132565E+03  0.52469132565E+03  0.25500000000E-02 0.  1.
          2   -1    0    0  501    0  0.00000000000E+00 -0.00000000000E+00 -0.11483548123E+04  0.11483548123E+04  0.25500000000E-02 0. -1.
    8880022    1    1    2    0    0 -0.25560066524E+03  0.15172662384E+03 -0.10668103986E+04  0.11179573999E+04  0.15294330000E+03 0.  0.
    8880022    1    1    2    0    0  0.25560066524E+03 -0.15172662384E+03  0.44314691198E+03  0.55508873801E+03  0.15294330000E+03 0.  0.
<mgrwt>
<rscale>  0 0.33428180E+03</rscale>
<asrwt>0</asrwt>
<pdfrwt beam="1">  1        2 0.17666997E+00 0.33428180E+03</pdfrwt>
<pdfrwt beam="2">  1       -2 0.80721743E-01 0.33428180E+03</pdfrwt>
<totfact> 0.29887960E+01</totfact>
</mgrwt>
</event>
<event>
 4    1  0.5387657E-008  0.4360211E+03  0.7818608E-02  0.1031975E+00
          2   -1    0    0  501    0  0.00000000000E+00  0.00000000000E+00  0.18791166042E+04  0.18791166042E+04  0.25500000000E-02 0. -1.
         -2   -1    0    0    0  501 -0.00000000000E+00 -0.00000000000E+00 -0.26879181087E+03  0.26879181088E+03  0.25500000000E-02 0.  1.
    8880022    1    1    2    0    0 -0.24293190938E+03 -0.32818715211E+03 -0.42924109711E+02  0.43812880710E+03  0.15294330000E+03 0.  1.
    8880022    1    1    2    0    0  0.24293190938E+03  0.32818715211E+03  0.16532489030E+04  0.17097796079E+04  0.15294330000E+03 0.  0.
<mgrwt>
<rscale>  0 0.43602107E+03</rscale>
<asrwt>0</asrwt>
<pdfrwt beam="1">  1        2 0.28909485E+00 0.43602107E+03</pdfrwt>
<pdfrwt beam="2">  1       -2 0.41352587E-01 0.43602107E+03</pdfrwt>
<totfact> 0.46647260E+01</totfact>
</mgrwt>
</event>
<event>
 4    1  0.5387657E-008  0.3637239E+03  0.7818608E-02  0.1057119E+00
         -2   -1    0    0    0  501 -0.00000000000E+00  0.00000000000E+00  0.73274705729E+02  0.73274705773E+02  0.25500000000E-02 0.  1.
          2   -1    0    0  501    0  0.00000000000E+00 -0.00000000000E+00 -0.20361130819E+04  0.20361130819E+04  0.25500000000E-02 0. -1.
    8880022    1    1    2    0    0 -0.46340794691E+02  0.32673528086E+03 -0.13363947772E+04  0.13850076052E+04  0.15294330000E+03 0.  0.
    8880022    1    1    2    0    0  0.46340794691E+02 -0.32673528086E+03 -0.62644359898E+03  0.72438018245E+03  0.15294330000E+03 0.  0.
<mgrwt>
<rscale>  0 0.36372389E+03</rscale>
<asrwt>0</asrwt>
<pdfrwt beam="1">  1        2 0.31324812E+00 0.36372389E+03</pdfrwt>
<pdfrwt beam="2">  1       -2 0.11273033E-01 0.36372389E+03</pdfrwt>
<totfact> 0.38391420E+02</totfact>
</mgrwt>
</event>
<event>
 4    1  0.5387657E-008  0.1093242E+04  0.7818608E-02  0.9211804E-01
          2   -1    0    0  501    0  0.00000000000E+00  0.00000000000E+00  0.36184525298E+04  0.36184525298E+04  0.25500000000E-02 0. -1.
         -2   -1    0    0    0  501 -0.00000000000E+00 -0.00000000000E+00 -0.35757268056E+03  0.35757268057E+03  0.25500000000E-02 0.  1.
    8880022    1    1    2    0    0  0.92881396432E+03  0.55595896549E+03  0.21794689510E+04  0.24382908589E+04  0.15294330000E+03 0.  0.
    8880022    1    1    2    0    0 -0.92881396432E+03 -0.55595896549E+03  0.10814108983E+04  0.15377343515E+04  0.15294330000E+03 0.  0.
<mgrwt>
<rscale>  0 0.10932417E+04</rscale>
<asrwt>0</asrwt>
<pdfrwt beam="1">  1        2 0.55668500E+00 0.10932417E+04</pdfrwt>
<pdfrwt beam="2">  1       -2 0.55011182E-01 0.10932417E+04</pdfrwt>
<totfact> 0.21340720E+00</totfact>
</mgrwt>
</event>
<event>
 4    1  0.5387657E-008  0.3327597E+03  0.7818608E-02  0.1069922E+00
          2   -1    0    0  501    0  0.00000000000E+00  0.00000000000E+00  0.69217640318E+03  0.69217640318E+03  0.25500000000E-02 0. -1.
         -2   -1    0    0    0  501 -0.00000000000E+00 -0.00000000000E+00 -0.67730201508E+03  0.67730201509E+03  0.25500000000E-02 0.  1.
    8880022    1    1    2    0    0 -0.28845233598E+03  0.64285160384E+02 -0.59099888057E+03  0.67823938387E+03  0.15294330000E+03 0.  0.
    8880022    1    1    2    0    0  0.28845233598E+03 -0.64285160384E+02  0.60587326867E+03  0.69123903440E+03  0.15294330000E+03 0.  0.
<mgrwt>
<rscale>  0 0.33275965E+03</rscale>
<asrwt>0</asrwt>
<pdfrwt beam="1">  1        2 0.10648868E+00 0.33275965E+03</pdfrwt>
<pdfrwt beam="2">  1       -2 0.10420031E+00 0.33275965E+03</pdfrwt>
<totfact> 0.33174525E+01</totfact>
</mgrwt>
</event>
<event>
 4    1  0.5387657E-008  0.3631225E+03  0.7818608E-02  0.1057354E+00
         -2   -1    0    0    0  501 -0.00000000000E+00  0.00000000000E+00  0.18586160317E+03  0.18586160319E+03  0.25500000000E-02 0.  1.
          2   -1    0    0  501    0  0.00000000000E+00 -0.00000000000E+00 -0.12741574538E+04  0.12741574538E+04  0.25500000000E-02 0. -1.
    8880022    1    1    2    0    0  0.25580817593E+03  0.20743308753E+03 -0.10301430937E+04  0.10922695433E+04  0.15294330000E+03 0.  0.
    8880022    1    1    2    0    0 -0.25580817593E+03 -0.20743308753E+03 -0.58152756917E+02  0.36774951370E+03  0.15294330000E+03 0.  0.
<mgrwt>
<rscale>  0 0.36312252E+03</rscale>
<asrwt>0</asrwt>
<pdfrwt beam="1">  1        2 0.19602422E+00 0.36312252E+03</pdfrwt>
<pdfrwt beam="2">  1       -2 0.28594094E-01 0.36312252E+03</pdfrwt>
<totfact> 0.20149894E+02</totfact>
</mgrwt>
</event>
<event>
 4    1  0.5387657E-008  0.2335866E+03  0.7818608E-02  0.1124141E+00
         -2   -1    0    0    0  501 -0.00000000000E+00  0.00000000000E+00  0.45060339224E+02  0.45060339296E+02  0.25500000000E-02 0.  1.
          2   -1    0    0  501    0  0.00000000000E+00 -0.00000000000E+00 -0.17583237171E+04  0.17583237171E+04  0.25500000000E-02 0. -1.
    8880022    1    1    2    0    0 -0.15103780688E+03 -0.91425495052E+02 -0.13597594603E+04  0.13796769488E+04  0.15294330000E+03 0.  0.
    8880022    1    1    2    0    0  0.15103780688E+03  0.91425495052E+02 -0.35350391764E+03  0.42370710762E+03  0.15294330000E+03 0.  0.
<mgrwt>
<rscale>  0 0.23358659E+03</rscale>
<asrwt>0</asrwt>
<pdfrwt beam="1">  1        2 0.27051129E+00 0.23358659E+03</pdfrwt>
<pdfrwt beam="2">  1       -2 0.69323612E-02 0.23358659E+03</pdfrwt>
<totfact> 0.11823668E+03</totfact>
</mgrwt>
</event>
<event>
 4    1  0.5387657E-008  0.2701372E+03  0.7818608E-02  0.1101201E+00
         -2   -1    0    0    0  501 -0.00000000000E+00  0.00000000000E+00  0.68640588943E+03  0.68640588943E+03  0.25500000000E-02 0.  1.
          2   -1    0    0  501    0  0.00000000000E+00 -0.00000000000E+00 -0.69648457539E+03  0.69648457539E+03  0.25500000000E-02 0. -1.
    8880022    1    1    2    0    0  0.85041697509E+02  0.20579210322E+03  0.63144985566E+03  0.68680641617E+03  0.15294330000E+03 0.  0.
    8880022    1    1    2    0    0 -0.85041697509E+02 -0.20579210322E+03 -0.64152854162E+03  0.69608404865E+03  0.15294330000E+03 0.  0.
<mgrwt>
<rscale>  0 0.27013725E+03</rscale>
<asrwt>0</asrwt>
<pdfrwt beam="1">  1        2 0.10715147E+00 0.27013725E+03</pdfrwt>
<pdfrwt beam="2">  1       -2 0.10560091E+00 0.27013725E+03</pdfrwt>
<totfact> 0.32316945E+01</totfact>
</mgrwt>
</event>
<event>
 4    1  0.5387657E-008  0.2153768E+03  0.7818608E-02  0.1137377E+00
         -2   -1    0    0    0  501 -0.00000000000E+00  0.00000000000E+00  0.62370429187E+02  0.62370429239E+02  0.25500000000E-02 0.  1.
          2   -1    0    0  501    0  0.00000000000E+00 -0.00000000000E+00 -0.18484047452E+04  0.18484047452E+04  0.25500000000E-02 0. -1.
    8880022    1    1    2    0    0  0.77608412569E+02  0.13027841502E+03 -0.15443819937E+03  0.26502517156E+03  0.15294330000E+03 0.  0.
    8880022    1    1    2    0    0 -0.77608412569E+02 -0.13027841502E+03 -0.16315961166E+04  0.16457500028E+04  0.15294330000E+03 0.  0.
<mgrwt>
<rscale>  0 0.21537684E+03</rscale>
<asrwt>0</asrwt>
<pdfrwt beam="1">  1        2 0.28436992E+00 0.21537684E+03</pdfrwt>
<pdfrwt beam="2">  1       -2 0.95954520E-02 0.21537684E+03</pdfrwt>
<totfact> 0.63947877E+02</totfact>
</mgrwt>
</event>
<event>
 4    1  0.5387657E-008  0.1342962E+04  0.7818608E-02  0.8996173E-01
         -2   -1    0    0    0  501 -0.00000000000E+00  0.00000000000E+00  0.75202006153E+03  0.75202006153E+03  0.25500000000E-02 0.  1.
          2   -1    0    0  501    0  0.00000000000E+00 -0.00000000000E+00 -0.25540439426E+04  0.25540439426E+04  0.25500000000E-02 0. -1.
    8880022    1    1    2    0    0  0.10394553539E+04 -0.83647321151E+03 -0.13092520381E+04  0.18755498977E+04  0.15294330000E+03 0. -1.
    8880022    1    1    2    0    0 -0.10394553539E+04  0.83647321151E+03 -0.49277184292E+03  0.14305141064E+04  0.15294330000E+03 0.  1.
<mgrwt>
<rscale>  0 0.13429618E+04</rscale>
<asrwt>0</asrwt>
<pdfrwt beam="1">  1        2 0.39292983E+00 0.13429618E+04</pdfrwt>
<pdfrwt beam="2">  1       -2 0.11569540E+00 0.13429618E+04</pdfrwt>
<totfact> 0.18173835E+00</totfact>
</mgrwt>
</event>
<event>
 4    1  0.5387657E-008  0.2685258E+03  0.7818608E-02  0.1102126E+00
          2   -1    0    0  501    0  0.00000000000E+00  0.00000000000E+00  0.36306827138E+03  0.36306827139E+03  0.25500000000E-02 0. -1.
         -2   -1    0    0    0  501 -0.00000000000E+00 -0.00000000000E+00 -0.73491557041E+03  0.73491557041E+03  0.25500000000E-02 0.  1.
    8880022    1    1    2    0    0  0.21991765075E+03  0.18726621465E+02 -0.65490609960E+03  0.70781926491E+03  0.15294330000E+03 0.  0.
    8880022    1    1    2    0    0 -0.21991765075E+03 -0.18726621465E+02  0.28305880058E+03  0.39016457690E+03  0.15294330000E+03 0. -1.
<mgrwt>
<rscale>  0 0.26852581E+03</rscale>
<asrwt>0</asrwt>
<pdfrwt beam="1">  1        2 0.55856658E-01 0.26852581E+03</pdfrwt>
<pdfrwt beam="2">  1       -2 0.11306393E+00 0.26852581E+03</pdfrwt>
<totfact> 0.57551317E+01</totfact>
</mgrwt>
</event>
<event>
 4    1  0.5387657E-008  0.2296967E+03  0.7818608E-02  0.1126853E+00
         -2   -1    0    0    0  501 -0.00000000000E+00  0.00000000000E+00  0.83968763138E+02  0.83968763177E+02  0.25500000000E-02 0.  1.
          2   -1    0    0  501    0  0.00000000000E+00 -0.00000000000E+00 -0.12431777564E+04  0.12431777564E+04  0.25500000000E-02 0. -1.
    8880022    1    1    2    0    0  0.14469579480E+03  0.91826256970E+02 -0.11294084233E+03  0.25596136698E+03  0.15294330000E+03 0.  0.
    8880022    1    1    2    0    0 -0.14469579480E+03 -0.91826256970E+02 -0.10462681510E+04  0.10711851526E+04  0.15294330000E+03 0.  0.
<mgrwt>
<rscale>  0 0.22969673E+03</rscale>
<asrwt>0</asrwt>
<pdfrwt beam="1">  1        2 0.19125810E+00 0.22969673E+03</pdfrwt>
<pdfrwt beam="2">  1       -2 0.12918272E-01 0.22969673E+03</pdfrwt>
<totfact> 0.83236464E+02</totfact>
</mgrwt>
</event>
<event>
 4    1  0.5387657E-008  0.1616048E+04  0.7818608E-02  0.8810749E-01
         -2   -1    0    0    0  501 -0.00000000000E+00  0.00000000000E+00  0.18203235222E+04  0.18203235222E+04  0.25500000000E-02 0.  1.
          2   -1    0    0  501    0  0.00000000000E+00 -0.00000000000E+00 -0.16885542484E+04  0.16885542484E+04  0.25500000000E-02 0. -1.
    8880022    1    1    2    0    0  0.12471718192E+04  0.10162594345E+04 -0.61437646961E+03  0.17288929650E+04  0.15294330000E+03 0.  0.
    8880022    1    1    2    0    0 -0.12471718192E+04 -0.10162594345E+04  0.74614574333E+03  0.17799848056E+04  0.15294330000E+03 0.  0.
<mgrwt>
<rscale>  0 0.16160484E+04</rscale>
<asrwt>0</asrwt>
<pdfrwt beam="1">  1        2 0.25977758E+00 0.16160484E+04</pdfrwt>
<pdfrwt beam="2">  1       -2 0.28004977E+00 0.16160484E+04</pdfrwt>
<totfact> 0.38857321E-01</totfact>
</mgrwt>
</event>
<event>
 4    1  0.5387657E-008  0.3593575E+03  0.7818608E-02  0.1058839E+00
          2   -1    0    0  501    0  0.00000000000E+00  0.00000000000E+00  0.16357635004E+04  0.16357635004E+04  0.25500000000E-02 0. -1.
         -2   -1    0    0    0  501 -0.00000000000E+00 -0.00000000000E+00 -0.37398945040E+03  0.37398945041E+03  0.25500000000E-02 0.  1.
    8880022    1    1    2    0    0 -0.26160879185E+03  0.19315025077E+03 -0.26164870643E+03  0.44451982851E+03  0.15294330000E+03 0.  0.
    8880022    1    1    2    0    0  0.26160879185E+03 -0.19315025077E+03  0.15234227565E+04  0.15652331224E+04  0.15294330000E+03 0.  0.
<mgrwt>
<rscale>  0 0.35935753E+03</rscale>
<asrwt>0</asrwt>
<pdfrwt beam="1">  1        2 0.25165592E+00 0.35935753E+03</pdfrwt>
<pdfrwt beam="2">  1       -2 0.57536839E-01 0.35935753E+03</pdfrwt>
<totfact> 0.33009849E+01</totfact>
</mgrwt>
</event>
<event>
 4    1  0.5387657E-008  0.6981915E+03  0.7818608E-02  0.9720330E-01
          2   -1    0    0  501    0  0.00000000000E+00  0.00000000000E+00  0.91076235558E+03  0.91076235558E+03  0.25500000000E-02 0. -1.
         -2   -1    0    0    0  501 -0.00000000000E+00 -0.00000000000E+00 -0.55393501904E+03  0.55393501905E+03  0.25500000000E-02 0.  1.
    8880022    1    1    2    0    0 -0.37275894279E+03 -0.57020216861E+03  0.43853718051E+02  0.69956739784E+03  0.15294330000E+03 0.  0.
    8880022    1    1    2    0    0  0.37275894279E+03  0.57020216861E+03  0.31297361849E+03  0.76512997680E+03  0.15294330000E+03 0.  0.
<mgrwt>
<rscale>  0 0.69819152E+03</rscale>
<asrwt>0</asrwt>
<pdfrwt beam="1">  1        2 0.14011728E+00 0.69819152E+03</pdfrwt>
<pdfrwt beam="2">  1       -2 0.85220773E-01 0.69819152E+03</pdfrwt>
<totfact> 0.35227791E+01</totfact>
</mgrwt>
</event>
<event>
 4    1  0.5387657E-008  0.5850737E+03  0.7818608E-02  0.9936866E-01
         -2   -1    0    0    0  501 -0.00000000000E+00  0.00000000000E+00  0.10349347617E+04  0.10349347617E+04  0.25500000000E-02 0.  1.
          2   -1    0    0  501    0  0.00000000000E+00 -0.00000000000E+00 -0.12745382013E+04  0.12745382013E+04  0.25500000000E-02 0. -1.
    8880022    1    1    2    0    0  0.11445365834E+03  0.55300993105E+03 -0.11134719112E+04  0.12578278792E+04  0.15294330000E+03 0.  0.
    8880022    1    1    2    0    0 -0.11445365834E+03 -0.55300993105E+03  0.87386847154E+03  0.10516450838E+04  0.15294330000E+03 0.  0.
<mgrwt>
<rscale>  0 0.58507374E+03</rscale>
<asrwt>0</asrwt>
<pdfrwt beam="1">  1        2 0.19608280E+00 0.58507374E+03</pdfrwt>
<pdfrwt beam="2">  1       -2 0.15922073E+00 0.58507374E+03</pdfrwt>
<totfact> 0.45935680E+00</totfact>
</mgrwt>
</event>
<event>
 4    1  0.5387657E-008  0.9213717E+03  0.7818608E-02  0.9399253E-01
          2   -1    0    0  501    0  0.00000000000E+00  0.00000000000E+00  0.19676262830E+04  0.19676262830E+04  0.25500000000E-02 0. -1.
         -2   -1    0    0    0  501 -0.00000000000E+00 -0.00000000000E+00 -0.61600793189E+03  0.61600793189E+03  0.25500000000E-02 0.  1.
    8880022    1    1    2    0    0  0.90371787899E+03  0.93957816356E+02  0.13829048847E+04  0.16617315214E+04  0.15294330000E+03 0.  0.
    8880022    1    1    2    0    0 -0.90371787899E+03 -0.93957816356E+02 -0.31286533591E+02  0.92190269349E+03  0.15294330000E+03 0.  0.
<mgrwt>
<rscale>  0 0.92137166E+03</rscale>
<asrwt>0</asrwt>
<pdfrwt beam="1">  1        2 0.30271174E+00 0.92137166E+03</pdfrwt>
<pdfrwt beam="2">  1       -2 0.94770451E-01 0.92137166E+03</pdfrwt>
<totfact> 0.65938151E+00</totfact>
</mgrwt>
</event>
<event>
 4    1  0.5387657E-008  0.2367273E+03  0.7818608E-02  0.1121992E+00
          2   -1    0    0  501    0  0.00000000000E+00  0.00000000000E+00  0.10388525341E+04  0.10388525341E+04  0.25500000000E-02 0. -1.
         -2   -1    0    0    0  501 -0.00000000000E+00 -0.00000000000E+00 -0.22125282024E+03  0.22125282026E+03  0.25500000000E-02 0.  1.
    8880022    1    1    2    0    0  0.17441681649E+03 -0.47190527532E+02 -0.13908830578E+03  0.27456398450E+03  0.15294330000E+03 0.  1.
    8880022    1    1    2    0    0 -0.17441681649E+03  0.47190527532E+02  0.95668801963E+03  0.98554136985E+03  0.15294330000E+03 0.  0.
<mgrwt>
<rscale>  0 0.23672732E+03</rscale>
<asrwt>0</asrwt>
<pdfrwt beam="1">  1        2 0.15982347E+00 0.23672732E+03</pdfrwt>
<pdfrwt beam="2">  1       -2 0.34038895E-01 0.23672732E+03</pdfrwt>
<totfact> 0.20432277E+02</totfact>
</mgrwt>
</event>
<event>
 4    1  0.5387657E-008  0.1557125E+04  0.7818608E-02  0.8847329E-01
         -2   -1    0    0    0  501 -0.00000000000E+00  0.00000000000E+00  0.84690034924E+03  0.84690034925E+03  0.25500000000E-02 0.  1.
          2   -1    0    0  501    0  0.00000000000E+00 -0.00000000000E+00 -0.34928220904E+04  0.34928220904E+04  0.25500000000E-02 0. -1.
    8880022    1    1    2    0    0 -0.63677510510E+03  0.14127155651E+04 -0.40152009911E+03  0.16080602742E+04  0.15294330000E+03 0.  0.
    8880022    1    1    2    0    0  0.63677510510E+03 -0.14127155651E+04 -0.22444016420E+04  0.27316621654E+04  0.15294330000E+03 0.  0.
<mgrwt>
<rscale>  0 0.15571254E+04</rscale>
<asrwt>0</asrwt>
<pdfrwt beam="1">  1        2 0.53735724E+00 0.15571254E+04</pdfrwt>
<pdfrwt beam="2">  1       -2 0.13029236E+00 0.15571254E+04</pdfrwt>
<totfact> 0.33724694E-01</totfact>
</mgrwt>
</event>
<event>
 4    1  0.5387657E-008  0.2585316E+03  0.7818608E-02  0.1108029E+00
         -2   -1    0    0    0  501 -0.00000000000E+00  0.00000000000E+00  0.11437337274E+04  0.11437337274E+04  0.25500000000E-02 0.  1.
          2   -1    0    0  501    0  0.00000000000E+00 -0.00000000000E+00 -0.68371729372E+02  0.68371729419E+02  0.25500000000E-02 0. -1.
    8880022    1    1    2    0    0 -0.13141641147E+03 -0.16179198526E+03  0.76867888669E+03  0.81099063099E+03  0.15294330000E+03 0. -1.
    8880022    1    1    2    0    0  0.13141641147E+03  0.16179198526E+03  0.30668311129E+03  0.40111482578E+03  0.15294330000E+03 0.  0.
<mgrwt>
<rscale>  0 0.25853157E+03</rscale>
<asrwt>0</asrwt>
<pdfrwt beam="1">  1        2 0.10518728E-01 0.25853157E+03</pdfrwt>
<pdfrwt beam="2">  1       -2 0.17595903E+00 0.25853157E+03</pdfrwt>
<totfact> 0.12477786E+02</totfact>
</mgrwt>
</event>
<event>
 4    1  0.5387657E-008  0.4983528E+03  0.7818608E-02  0.1014210E+00
         -2   -1    0    0    0  501 -0.00000000000E+00  0.00000000000E+00  0.29750374060E+03  0.29750374061E+03  0.25500000000E-02 0.  1.
          2   -1    0    0  501    0  0.00000000000E+00 -0.00000000000E+00 -0.14257493058E+04  0.14257493058E+04  0.25500000000E-02 0. -1.
    8880022    1    1    2    0    0  0.30857591868E+03  0.36020100929E+03 -0.94034069842E+01  0.49844151287E+03  0.15294330000E+03 0.  0.
    8880022    1    1    2    0    0 -0.30857591868E+03 -0.36020100929E+03 -0.11188421582E+04  0.12248115335E+04  0.15294330000E+03 0.  0.
<mgrwt>
<rscale>  0 0.49835280E+03</rscale>
<asrwt>0</asrwt>
<pdfrwt beam="1">  1        2 0.21934604E+00 0.49835280E+03</pdfrwt>
<pdfrwt beam="2">  1       -2 0.45769807E-01 0.49835280E+03</pdfrwt>
<totfact> 0.66510806E+01</totfact>
</mgrwt>
</event>
<event>
 4    1  0.5387657E-008  0.3167707E+03  0.7818608E-02  0.1077145E+00
          2   -1    0    0  501    0  0.00000000000E+00  0.00000000000E+00  0.19230871805E+03  0.19230871806E+03  0.25500000000E-02 0. -1.
         -2   -1    0    0    0  501 -0.00000000000E+00 -0.00000000000E+00 -0.10692988945E+04  0.10692988945E+04  0.25500000000E-02 0.  1.
    8880022    1    1    2    0    0  0.12835048697E+03 -0.24592313764E+03 -0.88987534006E+03  0.94457493668E+03  0.15294330000E+03 0.  1.
    8880022    1    1    2    0    0 -0.12835048697E+03  0.24592313764E+03  0.12885163592E+02  0.31703267590E+03  0.15294330000E+03 0.  0.
<mgrwt>
<rscale>  0 0.31677072E+03</rscale>
<asrwt>0</asrwt>
<pdfrwt beam="1">  1        2 0.29585957E-01 0.31677072E+03</pdfrwt>
<pdfrwt beam="2">  1       -2 0.16450752E+00 0.31677072E+03</pdfrwt>
<totfact> 0.44302352E+01</totfact>
</mgrwt>
</event>
<event>
 4    1  0.5387657E-008  0.3215247E+03  0.7818608E-02  0.1074950E+00
          2   -1    0    0  501    0  0.00000000000E+00  0.00000000000E+00  0.29407057502E+04  0.29407057502E+04  0.25500000000E-02 0. -1.
         -2   -1    0    0    0  501 -0.00000000000E+00 -0.00000000000E+00 -0.14164379085E+03  0.14164379088E+03  0.25500000000E-02 0.  1.
    8880022    1    1    2    0    0 -0.27600455162E+03  0.61708561700E+02  0.27358394809E+04  0.27546679977E+04  0.15294330000E+03 0. -1.
    8880022    1    1    2    0    0  0.27600455162E+03 -0.61708561700E+02  0.63222478455E+02  0.32768154342E+03  0.15294330000E+03 0.  0.
<mgrwt>
<rscale>  0 0.32152467E+03</rscale>
<asrwt>0</asrwt>
<pdfrwt beam="1">  1        2 0.45241627E+00 0.32152467E+03</pdfrwt>
<pdfrwt beam="2">  1       -2 0.21791352E-01 0.32152467E+03</pdfrwt>
<totfact> 0.40416096E+01</totfact>
</mgrwt>
</event>
<event>
 4    1  0.5387657E-008  0.6993261E+03  0.7818608E-02  0.9718385E-01
         -2   -1    0    0    0  501 -0.00000000000E+00  0.00000000000E+00  0.25931212844E+04  0.25931212844E+04  0.25500000000E-02 0.  1.
          2   -1    0    0  501    0  0.00000000000E+00 -0.00000000000E+00 -0.31262399356E+03  0.31262399357E+03  0.25500000000E-02 0. -1.
    8880022    1    1    2    0    0  0.45961510473E+03  0.50439997620E+03  0.22513916199E+03  0.73467317616E+03  0.15294330000E+03 0.  0.
    8880022    1    1    2    0    0 -0.45961510473E+03 -0.50439997620E+03  0.20553581289E+04  0.21710721019E+04  0.15294330000E+03 0.  0.
<mgrwt>
<rscale>  0 0.69932613E+03</rscale>
<asrwt>0</asrwt>
<pdfrwt beam="1">  1        2 0.48095998E-01 0.69932613E+03</pdfrwt>
<pdfrwt beam="2">  1       -2 0.39894175E+00 0.69932613E+03</pdfrwt>
<totfact> 0.84747699E-01</totfact>
</mgrwt>
</event>
<event>
 4    1  0.5387657E-008  0.5511957E+03  0.7818608E-02  0.1001218E+00
          2   -1    0    0  501    0  0.00000000000E+00  0.00000000000E+00  0.14224114269E+04  0.14224114270E+04  0.25500000000E-02 0. -1.
         -2   -1    0    0    0  501 -0.00000000000E+00 -0.00000000000E+00 -0.23658594012E+03  0.23658594013E+03  0.25500000000E-02 0.  1.
    8880022    1    1    2    0    0 -0.50771464285E+03 -0.15050200833E+03  0.33431690636E+03  0.64465840564E+03  0.15294330000E+03 0.  0.
    8880022    1    1    2    0    0  0.50771464285E+03  0.15050200833E+03  0.85150858047E+03  0.10143389614E+04  0.15294330000E+03 0.  1.
<mgrwt>
<rscale>  0 0.55119567E+03</rscale>
<asrwt>0</asrwt>
<pdfrwt beam="1">  1        2 0.21883252E+00 0.55119567E+03</pdfrwt>
<pdfrwt beam="2">  1       -2 0.36397837E-01 0.55119567E+03</pdfrwt>
<totfact> 0.10362214E+02</totfact>
</mgrwt>
</event>
<event>
 4    1  0.5387657E-008  0.8503062E+03  0.7818608E-02  0.9489926E-01
         -2   -1    0    0    0  501 -0.00000000000E+00  0.00000000000E+00  0.58498275304E+03  0.58498275305E+03  0.25500000000E-02 0.  1.
          2   -1    0    0  501    0  0.00000000000E+00 -0.00000000000E+00 -0.20269070214E+04  0.20269070214E+04  0.25500000000E-02 0. -1.
    8880022    1    1    2    0    0 -0.18605546989E+03 -0.81548284850E+03  0.94829323945E+02  0.85557768073E+03  0.15294330000E+03 0.  0.
    8880022    1    1    2    0    0  0.18605546989E+03  0.81548284850E+03 -0.15367535923E+04  0.17563120937E+04  0.15294330000E+03 0.  0.
<mgrwt>
<rscale>  0 0.85030616E+03</rscale>
<asrwt>0</asrwt>
<pdfrwt beam="1">  1        2 0.31183185E+00 0.85030616E+03</pdfrwt>
<pdfrwt beam="2">  1       -2 0.89997348E-01 0.85030616E+03</pdfrwt>
<totfact> 0.69653074E+00</totfact>
</mgrwt>
</event>
<event>
 4    1  0.5387657E-008  0.6884769E+03  0.7818608E-02  0.9737144E-01
          2   -1    0    0  501    0  0.00000000000E+00  0.00000000000E+00  0.46816515420E+03  0.46816515421E+03  0.25500000000E-02 0. -1.
         -2   -1    0    0    0  501 -0.00000000000E+00 -0.00000000000E+00 -0.19380323291E+04  0.19380323291E+04  0.25500000000E-02 0.  1.
    8880022    1    1    2    0    0  0.67122688121E+03  0.79510198698E+01 -0.15663622458E+04  0.17109912574E+04  0.15294330000E+03 0.  1.
    8880022    1    1    2    0    0 -0.67122688121E+03 -0.79510198698E+01  0.96495070954E+02  0.69520622588E+03  0.15294330000E+03 0.  0.
<mgrwt>
<rscale>  0 0.68847687E+03</rscale>
<asrwt>0</asrwt>
<pdfrwt beam="1">  1        2 0.72025409E-01 0.68847687E+03</pdfrwt>
<pdfrwt beam="2">  1       -2 0.29815882E+00 0.68847687E+03</pdfrwt>
<totfact> 0.22785154E+00</totfact>
</mgrwt>
</event>
<event>
 4    1  0.5387657E-008  0.4182043E+03  0.7818608E-02  0.1037652E+00
         -2   -1    0    0    0  501 -0.00000000000E+00  0.00000000000E+00  0.27355360207E+03  0.27355360208E+03  0.25500000000E-02 0.  1.
          2   -1    0    0  501    0  0.00000000000E+00 -0.00000000000E+00 -0.22084794324E+04  0.22084794324E+04  0.25500000000E-02 0. -1.
    8880022    1    1    2    0    0 -0.38493332448E+03  0.57701742224E+02  0.78607982777E+02  0.42552793483E+03  0.15294330000E+03 0.  0.
    8880022    1    1    2    0    0  0.38493332448E+03 -0.57701742224E+02 -0.20135338131E+04  0.20565050997E+04  0.15294330000E+03 0. -1.
<mgrwt>
<rscale>  0 0.41820427E+03</rscale>
<asrwt>0</asrwt>
<pdfrwt beam="1">  1        2 0.33976606E+00 0.41820427E+03</pdfrwt>
<pdfrwt beam="2">  1       -2 0.42085171E-01 0.41820427E+03</pdfrwt>
<totfact> 0.30125169E+01</totfact>
</mgrwt>
</event>
<event>
 4    1  0.5387657E-008  0.5234069E+03  0.7818608E-02  0.1007844E+00
          2   -1    0    0  501    0  0.00000000000E+00  0.00000000000E+00  0.23058594949E+04  0.23058594949E+04  0.25500000000E-02 0. -1.
         -2   -1    0    0    0  501 -0.00000000000E+00 -0.00000000000E+00 -0.52504054366E+03  0.52504054367E+03  0.25500000000E-02 0.  1.
    8880022    1    1    2    0    0 -0.46118392685E+03  0.19460863721E+03  0.21354555405E+04  0.21986644025E+04  0.15294330000E+03 0.  0.
    8880022    1    1    2    0    0  0.46118392685E+03 -0.19460863721E+03 -0.35463658930E+03  0.63223563610E+03  0.15294330000E+03 0.  0.
<mgrwt>
<rscale>  0 0.52340691E+03</rscale>
<asrwt>0</asrwt>
<pdfrwt beam="1">  1        2 0.35474762E+00 0.52340691E+03</pdfrwt>
<pdfrwt beam="2">  1       -2 0.80775467E-01 0.52340691E+03</pdfrwt>
<totfact> 0.66527854E+00</totfact>
</mgrwt>
</event>
<event>
 4    1  0.5387657E-008  0.1561147E+04  0.7818608E-02  0.8844779E-01
         -2   -1    0    0    0  501 -0.00000000000E+00  0.00000000000E+00  0.12737472483E+04  0.12737472483E+04  0.25500000000E-02 0.  1.
          2   -1    0    0  501    0  0.00000000000E+00 -0.00000000000E+00 -0.37641693790E+04  0.37641693790E+04  0.25500000000E-02 0. -1.
    8880022    1    1    2    0    0  0.10642294335E+04  0.11319029908E+04 -0.30115061501E+04  0.33921010617E+04  0.15294330000E+03 0.  0.
    8880022    1    1    2    0    0 -0.10642294335E+04 -0.11319029908E+04  0.52108401941E+03  0.16458155656E+04  0.15294330000E+03 0.  0.
<mgrwt>
<rscale>  0 0.15611471E+04</rscale>
<asrwt>0</asrwt>
<pdfrwt beam="1">  1        2 0.57910298E+00 0.15611471E+04</pdfrwt>
<pdfrwt beam="2">  1       -2 0.19596112E+00 0.15611471E+04</pdfrwt>
<totfact> 0.69784312E-02</totfact>
</mgrwt>
</event>
<event>
 4    1  0.5387657E-008  0.6342812E+03  0.7818608E-02  0.9836730E-01
          2   -1    0    0  501    0  0.00000000000E+00  0.00000000000E+00  0.11493160811E+04  0.11493160811E+04  0.25500000000E-02 0. -1.
         -2   -1    0    0    0  501 -0.00000000000E+00 -0.00000000000E+00 -0.72468613139E+03  0.72468613140E+03  0.25500000000E-02 0.  1.
    8880022    1    1    2    0    0  0.35993057827E+03  0.49937062401E+03  0.88602449111E+03  0.10896568695E+04  0.15294330000E+03 0.  0.
    8880022    1    1    2    0    0 -0.35993057827E+03 -0.49937062401E+03 -0.46139454140E+03  0.78434534304E+03  0.15294330000E+03 0.  0.
<mgrwt>
<rscale>  0 0.63428124E+03</rscale>
<asrwt>0</asrwt>
<pdfrwt beam="1">  1        2 0.17681786E+00 0.63428124E+03</pdfrwt>
<pdfrwt beam="2">  1       -2 0.11149017E+00 0.63428124E+03</pdfrwt>
<totfact> 0.13364096E+01</totfact>
</mgrwt>
</event>
<event>
 4    1  0.5387657E-008  0.5492129E+03  0.7818608E-02  0.1001676E+00
         -2   -1    0    0    0  501 -0.00000000000E+00  0.00000000000E+00  0.11318776610E+04  0.11318776610E+04  0.25500000000E-02 0.  1.
          2   -1    0    0  501    0  0.00000000000E+00 -0.00000000000E+00 -0.68532314891E+03  0.68532314892E+03  0.25500000000E-02 0. -1.
    8880022    1    1    2    0    0  0.42093810332E+03 -0.31789034047E+03  0.93358314300E+03  0.10831492479E+04  0.15294330000E+03 0.  0.
    8880022    1    1    2    0    0 -0.42093810332E+03  0.31789034047E+03 -0.48702863088E+03  0.73405156202E+03  0.15294330000E+03 0.  0.
<mgrwt>
<rscale>  0 0.54921290E+03</rscale>
<asrwt>0</asrwt>
<pdfrwt beam="1">  1        2 0.10543433E+00 0.54921290E+03</pdfrwt>
<pdfrwt beam="2">  1       -2 0.17413502E+00 0.54921290E+03</pdfrwt>
<totfact> 0.87625304E+00</totfact>
</mgrwt>
</event>
<event>
 4    1  0.5387657E-008  0.4574397E+03  0.7818608E-02  0.1025526E+00
          2   -1    0    0  501    0  0.00000000000E+00  0.00000000000E+00  0.39381545494E+03  0.39381545495E+03  0.25500000000E-02 0. -1.
         -2   -1    0    0    0  501 -0.00000000000E+00 -0.00000000000E+00 -0.68421444098E+03  0.68421444099E+03  0.25500000000E-02 0.  1.
    8880022    1    1    2    0    0 -0.18767077491E+03  0.38812248878E+03  0.10958209340E+03  0.47038205138E+03  0.15294330000E+03 0.  0.
    8880022    1    1    2    0    0  0.18767077491E+03 -0.38812248878E+03 -0.39998107944E+03  0.60764784455E+03  0.15294330000E+03 0.  0.
<mgrwt>
<rscale>  0 0.45743966E+03</rscale>
<asrwt>0</asrwt>
<pdfrwt beam="1">  1        2 0.60586993E-01 0.45743966E+03</pdfrwt>
<pdfrwt beam="2">  1       -2 0.10526376E+00 0.45743966E+03</pdfrwt>
<totfact> 0.61074337E+01</totfact>
</mgrwt>
</event>
<event>
 4    1  0.5387657E-008  0.1729435E+03  0.7818608E-02  0.1174813E+00
         -2   -1    0    0    0  501 -0.00000000000E+00  0.00000000000E+00  0.25820222877E+02  0.25820223003E+02  0.25500000000E-02 0.  1.
          2   -1    0    0  501    0  0.00000000000E+00 -0.00000000000E+00 -0.23235946677E+04  0.23235946677E+04  0.25500000000E-02 0. -1.
    8880022    1    1    2    0    0 -0.29828386939E+02  0.75020485608E+02 -0.31702052034E+03  0.36112528194E+03  0.15294330000E+03 0.  0.
    8880022    1    1    2    0    0  0.29828386939E+02 -0.75020485608E+02 -0.19807539245E+04  0.19882896088E+04  0.15294330000E+03 0. -1.
<mgrwt>
<rscale>  0 0.17294351E+03</rscale>
<asrwt>0</asrwt>
<pdfrwt beam="1">  1        2 0.35747594E+00 0.17294351E+03</pdfrwt>
<pdfrwt beam="2">  1       -2 0.39723438E-02 0.17294351E+03</pdfrwt>
<totfact> 0.14068316E+03</totfact>
</mgrwt>
</event>
<event>
 4    1  0.5387657E-008  0.2279295E+03  0.7818608E-02  0.1128106E+00
          2   -1    0    0  501    0  0.00000000000E+00  0.00000000000E+00  0.11692157725E+03  0.11692157728E+03  0.25500000000E-02 0. -1.
         -2   -1    0    0    0  501 -0.00000000000E+00 -0.00000000000E+00 -0.71559112333E+03  0.71559112334E+03  0.25500000000E-02 0.  1.
    8880022    1    1    2    0    0  0.16000271335E+02  0.16823845184E+03 -0.43050668174E+02  0.23195947578E+03  0.15294330000E+03 0.  0.
    8880022    1    1    2    0    0 -0.16000271335E+02 -0.16823845184E+03 -0.55561887791E+03  0.60055322484E+03  0.15294330000E+03 0.  0.
<mgrwt>
<rscale>  0 0.22792946E+03</rscale>
<asrwt>0</asrwt>
<pdfrwt beam="1">  1        2 0.17987935E-01 0.22792946E+03</pdfrwt>
<pdfrwt beam="2">  1       -2 0.11009094E+00 0.22792946E+03</pdfrwt>
<totfact> 0.21558200E+02</totfact>
</mgrwt>
</event>
<event>
 4    1  0.5387657E-008  0.5321549E+03  0.7818608E-02  0.1005711E+00
         -2   -1    0    0    0  501 -0.00000000000E+00  0.00000000000E+00  0.86921867277E+03  0.86921867278E+03  0.25500000000E-02 0.  1.
          2   -1    0    0  501    0  0.00000000000E+00 -0.00000000000E+00 -0.43076383768E+03  0.43076383769E+03  0.25500000000E-02 0. -1.
    8880022    1    1    2    0    0 -0.50877257867E+02  0.50715744391E+03  0.54008624101E+03  0.75820971310E+03  0.15294330000E+03 0.  0.
    8880022    1    1    2    0    0  0.50877257867E+02 -0.50715744391E+03 -0.10163140593E+03  0.54177279737E+03  0.15294330000E+03 0.  0.
<mgrwt>
<rscale>  0 0.53215488E+03</rscale>
<asrwt>0</asrwt>
<pdfrwt beam="1">  1        2 0.66271360E-01 0.53215488E+03</pdfrwt>
<pdfrwt beam="2">  1       -2 0.13372595E+00 0.53215488E+03</pdfrwt>
<totfact> 0.30488365E+01</totfact>
</mgrwt>
</event>
<event>
 4    1  0.5387657E-008  0.3547702E+03  0.7818608E-02  0.1060674E+00
          2   -1    0    0  501    0  0.00000000000E+00  0.00000000000E+00  0.82518664022E+03  0.82518664022E+03  0.25500000000E-02 0. -1.
         -2   -1    0    0    0  501 -0.00000000000E+00 -0.00000000000E+00 -0.21204805647E+03  0.21204805648E+03  0.25500000000E-02 0.  1.
    8880022    1    1    2    0    0  0.15109747151E+03 -0.28220520350E+03  0.31798066327E+02  0.35619235368E+03  0.15294330000E+03 0.  0.
    8880022    1    1    2    0    0 -0.15109747151E+03  0.28220520350E+03  0.58134051742E+03  0.68104234302E+03  0.15294330000E+03 0.  0.
<mgrwt>
<rscale>  0 0.35477017E+03</rscale>
<asrwt>0</asrwt>
<pdfrwt beam="1">  1        2 0.12695179E+00 0.35477017E+03</pdfrwt>
<pdfrwt beam="2">  1       -2 0.32622778E-01 0.35477017E+03</pdfrwt>
<totfact> 0.29863857E+02</totfact>
</mgrwt>
</event>
<event>
 4    1  0.5387657E-008  0.7517628E+03  0.7818608E-02  0.9632589E-01
          2   -1    0    0  501    0  0.00000000000E+00  0.00000000000E+00  0.15054373094E+04  0.15054373094E+04  0.25500000000E-02 0. -1.
         -2   -1    0    0    0  501 -0.00000000000E+00 -0.00000000000E+00 -0.41056531918E+03  0.41056531919E+03  0.25500000000E-02 0.  1.
    8880022    1    1    2    0    0 -0.72798763304E+03  0.10858023346E+03  0.82779017563E+03  0.11182056559E+04  0.15294330000E+03 0.  0.
    8880022    1    1    2    0    0  0.72798763304E+03 -0.10858023346E+03  0.26708181457E+03  0.79779697270E+03  0.15294330000E+03 0.  0.
<mgrwt>
<rscale>  0 0.75176280E+03</rscale>
<asrwt>0</asrwt>
<pdfrwt beam="1">  1        2 0.23160574E+00 0.75176280E+03</pdfrwt>
<pdfrwt beam="2">  1       -2 0.63163895E-01 0.75176280E+03</pdfrwt>
<totfact> 0.29939999E+01</totfact>
</mgrwt>
</event>
<event>
 4    1  0.5387657E-008  0.3312588E+03  0.7818608E-02  0.1070581E+00
         -2   -1    0    0    0  501 -0.00000000000E+00  0.00000000000E+00  0.81000840712E+03  0.81000840713E+03  0.25500000000E-02 0.  1.
          2   -1    0    0  501    0  0.00000000000E+00 -0.00000000000E+00 -0.48181221412E+03  0.48181221413E+03  0.25500000000E-02 0. -1.
    8880022    1    1    2    0    0  0.21601805822E+03  0.19919071782E+03 -0.38352984308E+03  0.50678154770E+03  0.15294330000E+03 0. -1.
    8880022    1    1    2    0    0 -0.21601805822E+03 -0.19919071782E+03  0.71172603608E+03  0.78503907355E+03  0.15294330000E+03 0.  0.
<mgrwt>
<rscale>  0 0.33125881E+03</rscale>
<asrwt>0</asrwt>
<pdfrwt beam="1">  1        2 0.74124956E-01 0.33125881E+03</pdfrwt>
<pdfrwt beam="2">  1       -2 0.12461668E+00 0.33125881E+03</pdfrwt>
<totfact> 0.32915427E+01</totfact>
</mgrwt>
</event>
<event>
 4    1  0.5387657E-008  0.1232719E+04  0.7818608E-02  0.9084690E-01
         -2   -1    0    0    0  501 -0.00000000000E+00  0.00000000000E+00  0.77550685120E+03  0.77550685120E+03  0.25500000000E-02 0.  1.
          2   -1    0    0  501    0  0.00000000000E+00 -0.00000000000E+00 -0.31413765143E+04  0.31413765143E+04  0.25500000000E-02 0. -1.
    8880022    1    1    2    0    0  0.83667208526E+03 -0.89229162768E+03  0.18330513615E+02  0.12328552988E+04  0.15294330000E+03 0.  0.
    8880022    1    1    2    0    0 -0.83667208526E+03  0.89229162768E+03 -0.23842001767E+04  0.26840280667E+04  0.15294330000E+03 0.  0.
<mgrwt>
<rscale>  0 0.12327190E+04</rscale>
<asrwt>0</asrwt>
<pdfrwt beam="1">  1        2 0.48328869E+00 0.12327190E+04</pdfrwt>
<pdfrwt beam="2">  1       -2 0.11930875E+00 0.12327190E+04</pdfrwt>
<totfact> 0.75181868E-01</totfact>
</mgrwt>
</event>
<event>
 4    1  0.5387657E-008  0.2050285E+03  0.7818608E-02  0.1145564E+00
         -2   -1    0    0    0  501 -0.00000000000E+00  0.00000000000E+00  0.39387459043E+03  0.39387459043E+03  0.25500000000E-02 0.  1.
          2   -1    0    0  501    0  0.00000000000E+00 -0.00000000000E+00 -0.60938376032E+03  0.60938376033E+03  0.25500000000E-02 0. -1.
    8880022    1    1    2    0    0  0.11365796910E+02 -0.13607297877E+03  0.34783471131E+03  0.40376438216E+03  0.15294330000E+03 0.  0.
    8880022    1    1    2    0    0 -0.11365796910E+02  0.13607297877E+03 -0.56334388120E+03  0.59949396860E+03  0.15294330000E+03 0.  0.
<mgrwt>
<rscale>  0 0.20502851E+03</rscale>
<asrwt>0</asrwt>
<pdfrwt beam="1">  1        2 0.93751348E-01 0.20502851E+03</pdfrwt>
<pdfrwt beam="2">  1       -2 0.60596090E-01 0.20502851E+03</pdfrwt>
<totfact> 0.13107239E+02</totfact>
</mgrwt>
</event>
<event>
 4    1  0.5387657E-008  0.2939990E+03  0.7818608E-02  0.1088280E+00
          2   -1    0    0  501    0  0.00000000000E+00  0.00000000000E+00  0.13078898379E+03  0.13078898381E+03  0.25500000000E-02 0. -1.
         -2   -1    0    0    0  501 -0.00000000000E+00 -0.00000000000E+00 -0.11749219450E+04  0.11749219450E+04  0.25500000000E-02 0.  1.
    8880022    1    1    2    0    0 -0.23995620661E+03 -0.73923996726E+02 -0.95389687888E+03  0.99817565935E+03  0.15294330000E+03 0.  0.
    8880022    1    1    2    0    0  0.23995620661E+03  0.73923996726E+02 -0.90236082317E+02  0.30753526944E+03  0.15294330000E+03 0. -1.
<mgrwt>
<rscale>  0 0.29399896E+03</rscale>
<asrwt>0</asrwt>
<pdfrwt beam="1">  1        2 0.20121383E-01 0.29399896E+03</pdfrwt>
<pdfrwt beam="2">  1       -2 0.18075722E+00 0.29399896E+03</pdfrwt>
<totfact> 0.53096912E+01</totfact>
</mgrwt>
</event>
<event>
 4    1  0.5387657E-008  0.4059374E+03  0.7818608E-02  0.1041743E+00
          2   -1    0    0  501    0  0.00000000000E+00  0.00000000000E+00  0.66814477311E+03  0.66814477311E+03  0.25500000000E-02 0. -1.
         -2   -1    0    0    0  501 -0.00000000000E+00 -0.00000000000E+00 -0.41396225981E+03  0.41396225982E+03  0.25500000000E-02 0.  1.
    8880022    1    1    2    0    0 -0.81801683788E+02  0.36701770224E+03  0.47108337300E+03  0.62185585674E+03  0.15294330000E+03 0. -1.
    8880022    1    1    2    0    0  0.81801683788E+02 -0.36701770224E+03 -0.21690085970E+03  0.46025117619E+03  0.15294330000E+03 0.  0.
<mgrwt>
<rscale>  0 0.40593739E+03</rscale>
<asrwt>0</asrwt>
<pdfrwt beam="1">  1        2 0.10279150E+00 0.40593739E+03</pdfrwt>
<pdfrwt beam="2">  1       -2 0.63686501E-01 0.40593739E+03</pdfrwt>
<totfact> 0.10304307E+02</totfact>
</mgrwt>
</event>
<event>
 4    1  0.5387657E-008  0.2632906E+03  0.7818608E-02  0.1105182E+00
          2   -1    0    0  501    0  0.00000000000E+00  0.00000000000E+00  0.53170049482E+03  0.53170049482E+03  0.25500000000E-02 0. -1.
         -2   -1    0    0    0  501 -0.00000000000E+00 -0.00000000000E+00 -0.27287356667E+03  0.27287356668E+03  0.25500000000E-02 0.  1.
    8880022    1    1    2    0    0  0.14276568412E+03 -0.15983817870E+03  0.42012100003E+03  0.49580600199E+03  0.15294330000E+03 0. -1.
    8880022    1    1    2    0    0 -0.14276568412E+03  0.15983817870E+03 -0.16129407188E+03  0.30876805950E+03  0.15294330000E+03 0.  0.
<mgrwt>
<rscale>  0 0.26329059E+03</rscale>
<asrwt>0</asrwt>
<pdfrwt beam="1">  1        2 0.81800075E-01 0.26329059E+03</pdfrwt>
<pdfrwt beam="2">  1       -2 0.41980549E-01 0.26329059E+03</pdfrwt>
<totfact> 0.31748036E+02</totfact>
</mgrwt>
</event>
<event>
 4    1  0.5387657E-008  0.1111505E+04  0.7818608E-02  0.9194050E-01
          2   -1    0    0  501    0  0.00000000000E+00  0.00000000000E+00  0.22021437762E+04  0.22021437762E+04  0.25500000000E-02 0. -1.
         -2   -1    0    0    0  501 -0.00000000000E+00 -0.00000000000E+00 -0.10369932528E+04  0.10369932528E+04  0.25500000000E-02 0.  1.
    8880022    1    1    2    0    0 -0.78968598007E+03 -0.76710420858E+03  0.16798189641E+04  0.20142582305E+04  0.15294330000E+03 0.  0.
    8880022    1    1    2    0    0  0.78968598007E+03  0.76710420858E+03 -0.51466844077E+03  0.12248787984E+04  0.15294330000E+03 0.  0.
<mgrwt>
<rscale>  0 0.11115055E+04</rscale>
<asrwt>0</asrwt>
<pdfrwt beam="1">  1        2 0.33879135E+00 0.11115055E+04</pdfrwt>
<pdfrwt beam="2">  1       -2 0.15953743E+00 0.11115055E+04</pdfrwt>
<totfact> 0.12878800E+00</totfact>
</mgrwt>
</event>
<event>
 4    1  0.5387657E-008  0.1165896E+04  0.7818608E-02  0.9143243E-01
         -2   -1    0    0    0  501 -0.00000000000E+00  0.00000000000E+00  0.64818677914E+03  0.64818677915E+03  0.25500000000E-02 0.  1.
          2   -1    0    0  501    0  0.00000000000E+00 -0.00000000000E+00 -0.22325491016E+04  0.22325491016E+04  0.25500000000E-02 0. -1.
    8880022    1    1    2    0    0  0.11194154127E+04  0.28780308517E+03 -0.43740092620E+03  0.12452440344E+04  0.15294330000E+03 0.  0.
    8880022    1    1    2    0    0 -0.11194154127E+04 -0.28780308517E+03 -0.11469613962E+04  0.16354918463E+04  0.15294330000E+03 0.  0.
<mgrwt>
<rscale>  0 0.11658959E+04</rscale>
<asrwt>0</asrwt>
<pdfrwt beam="1">  1        2 0.34346909E+00 0.11658959E+04</pdfrwt>
<pdfrwt beam="2">  1       -2 0.99721044E-01 0.11658959E+04</pdfrwt>
<totfact> 0.40514977E+00</totfact>
</mgrwt>
</event>
<event>
 4    1  0.5387657E-008  0.3406342E+03  0.7818608E-02  0.1066526E+00
          2   -1    0    0  501    0  0.00000000000E+00  0.00000000000E+00  0.63739804864E+03  0.63739804864E+03  0.25500000000E-02 0. -1.
         -2   -1    0    0    0  501 -0.00000000000E+00 -0.00000000000E+00 -0.43284739209E+03  0.43284739210E+03  0.25500000000E-02 0.  1.
    8880022    1    1    2    0    0 -0.13720065028E+03  0.27169098892E+03  0.50961483115E+03  0.61297548160E+03  0.15294330000E+03 0.  0.
    8880022    1    1    2    0    0  0.13720065028E+03 -0.27169098892E+03 -0.30506417461E+03  0.45726995915E+03  0.15294330000E+03 0.  0.
<mgrwt>
<rscale>  0 0.34063421E+03</rscale>
<asrwt>0</asrwt>
<pdfrwt beam="1">  1        2 0.98061238E-01 0.34063421E+03</pdfrwt>
<pdfrwt beam="2">  1       -2 0.66591906E-01 0.34063421E+03</pdfrwt>
<totfact> 0.99956241E+01</totfact>
</mgrwt>
</event>
<event>
 4    1  0.5387657E-008  0.4351806E+03  0.7818608E-02  0.1032236E+00
          2   -1    0    0  501    0  0.00000000000E+00  0.00000000000E+00  0.92325024498E+03  0.92325024498E+03  0.25500000000E-02 0. -1.
         -2   -1    0    0    0  501 -0.00000000000E+00 -0.00000000000E+00 -0.25449850563E+03  0.25449850564E+03  0.25500000000E-02 0.  1.
    8880022    1    1    2    0    0  0.18219982743E+03  0.36440875259E+03  0.59374890040E+03  0.73615210780E+03  0.15294330000E+03 0.  0.
    8880022    1    1    2    0    0 -0.18219982743E+03 -0.36440875259E+03  0.75002838953E+02  0.44159664282E+03  0.15294330000E+03 0.  0.
<mgrwt>
<rscale>  0 0.43518062E+03</rscale>
<asrwt>0</asrwt>
<pdfrwt beam="1">  1        2 0.14203850E+00 0.43518062E+03</pdfrwt>
<pdfrwt beam="2">  1       -2 0.39153617E-01 0.43518062E+03</pdfrwt>
<totfact> 0.18047712E+02</totfact>
</mgrwt>
</event>
<event>
 4    1  0.5387657E-008  0.4799735E+03  0.7818608E-02  0.1019142E+00
         -2   -1    0    0    0  501 -0.00000000000E+00  0.00000000000E+00  0.38859286774E+03  0.38859286775E+03  0.25500000000E-02 0.  1.
          2   -1    0    0  501    0  0.00000000000E+00 -0.00000000000E+00 -0.14339525250E+04  0.14339525250E+04  0.25500000000E-02 0. -1.
    8880022    1    1    2    0    0  0.45250608122E+03 -0.47128785171E+02 -0.12206024398E+04  0.13115810478E+04  0.15294330000E+03 0.  0.
    8880022    1    1    2    0    0 -0.45250608122E+03  0.47128785171E+02  0.17524278255E+03  0.51096434493E+03  0.15294330000E+03 0.  1.
<mgrwt>
<rscale>  0 0.47997347E+03</rscale>
<asrwt>0</asrwt>
<pdfrwt beam="1">  1        2 0.22060808E+00 0.47997347E+03</pdfrwt>
<pdfrwt beam="2">  1       -2 0.59783519E-01 0.47997347E+03</pdfrwt>
<totfact> 0.38267761E+01</totfact>
</mgrwt>
</event>
<event>
 4    1  0.5387657E-008  0.4204783E+03  0.7818608E-02  0.1036911E+00
          2   -1    0    0  501    0  0.00000000000E+00  0.00000000000E+00  0.91338326140E+03  0.91338326141E+03  0.25500000000E-02 0. -1.
         -2   -1    0    0    0  501 -0.00000000000E+00 -0.00000000000E+00 -0.64170673797E+03  0.64170673797E+03  0.25500000000E-02 0.  1.
    8880022    1    1    2    0    0  0.38206799818E+03  0.86223051304E+02 -0.51393725454E+03  0.66402825575E+03  0.15294330000E+03 0.  1.
    8880022    1    1    2    0    0 -0.38206799818E+03 -0.86223051304E+02  0.78561377798E+03  0.89106174364E+03  0.15294330000E+03 0.  0.
<mgrwt>
<rscale>  0 0.42047833E+03</rscale>
<asrwt>0</asrwt>
<pdfrwt beam="1">  1        2 0.14052050E+00 0.42047833E+03</pdfrwt>
<pdfrwt beam="2">  1       -2 0.98724113E-01 0.42047833E+03</pdfrwt>
<totfact> 0.25899818E+01</totfact>
</mgrwt>
</event>
<event>
 4    1  0.5387657E-008  0.9851330E+03  0.7818608E-02  0.9325003E-01
         -2   -1    0    0    0  501 -0.00000000000E+00  0.00000000000E+00  0.28303497495E+03  0.28303497496E+03  0.25500000000E-02 0.  1.
          2   -1    0    0  501    0  0.00000000000E+00 -0.00000000000E+00 -0.46615562720E+04  0.46615562720E+04  0.25500000000E-02 0. -1.
    8880022    1    1    2    0    0  0.62570337475E+03  0.74537960582E+03 -0.34606046801E+04  0.35980928108E+04  0.15294330000E+03 0.  0.
    8880022    1    1    2    0    0 -0.62570337475E+03 -0.74537960582E+03 -0.91791661689E+03  0.13464984361E+04  0.15294330000E+03 0.  0.
<mgrwt>
<rscale>  0 0.98513305E+03</rscale>
<asrwt>0</asrwt>
<pdfrwt beam="1">  1        2 0.71716245E+00 0.98513305E+03</pdfrwt>
<pdfrwt beam="2">  1       -2 0.43543846E-01 0.98513305E+03</pdfrwt>
<totfact> 0.45894091E-01</totfact>
</mgrwt>
</event>
<event>
 4    1  0.5387657E-008  0.2151142E+04  0.7818608E-02  0.8539044E-01
          2   -1    0    0  501    0  0.00000000000E+00  0.00000000000E+00  0.44391418762E+04  0.44391418762E+04  0.25500000000E-02 0. -1.
         -2   -1    0    0    0  501 -0.00000000000E+00 -0.00000000000E+00 -0.14274339541E+04  0.14274339541E+04  0.25500000000E-02 0.  1.
    8880022    1    1    2    0    0 -0.44685272773E+03 -0.20986521447E+04 -0.17567445715E+02  0.21512132514E+04  0.15294330000E+03 0.  0.
    8880022    1    1    2    0    0  0.44685272773E+03  0.20986521447E+04  0.30292753679E+04  0.37153625789E+04  0.15294330000E+03 0.  0.
<mgrwt>
<rscale>  0 0.21511415E+04</rscale>
<asrwt>0</asrwt>
<pdfrwt beam="1">  1        2 0.68294490E+00 0.21511415E+04</pdfrwt>
<pdfrwt beam="2">  1       -2 0.21960523E+00 0.21511415E+04</pdfrwt>
<totfact> 0.12339852E-02</totfact>
</mgrwt>
</event>
<event>
 4    1  0.5387657E-008  0.4245365E+03  0.7818608E-02  0.1035600E+00
          2   -1    0    0  501    0  0.00000000000E+00  0.00000000000E+00  0.67068340183E+03  0.67068340183E+03  0.25500000000E-02 0. -1.
         -2   -1    0    0    0  501 -0.00000000000E+00 -0.00000000000E+00 -0.29765320829E+03  0.29765320831E+03  0.25500000000E-02 0.  1.
    8880022    1    1    2    0    0  0.10997164203E+03  0.38045481046E+03  0.35583283459E+02  0.42602517288E+03  0.15294330000E+03 0.  1.
    8880022    1    1    2    0    0 -0.10997164203E+03 -0.38045481046E+03  0.33744691008E+03  0.54231143726E+03  0.15294330000E+03 0.  0.
<mgrwt>
<rscale>  0 0.42453654E+03</rscale>
<asrwt>0</asrwt>
<pdfrwt beam="1">  1        2 0.10318206E+00 0.42453654E+03</pdfrwt>
<pdfrwt beam="2">  1       -2 0.45792802E-01 0.42453654E+03</pdfrwt>
<totfact> 0.20129020E+02</totfact>
</mgrwt>
</event>
<event>
 4    1  0.5387657E-008  0.5090067E+03  0.7818608E-02  0.1011454E+00
          2   -1    0    0  501    0  0.00000000000E+00  0.00000000000E+00  0.27606280695E+04  0.27606280695E+04  0.25500000000E-02 0. -1.
         -2   -1    0    0    0  501 -0.00000000000E+00 -0.00000000000E+00 -0.10546729829E+03  0.10546729832E+03  0.25500000000E-02 0.  1.
    8880022    1    1    2    0    0 -0.28179393039E+03  0.39533327137E+03  0.85198842219E+03  0.99245762590E+03  0.15294330000E+03 0.  0.
    8880022    1    1    2    0    0  0.28179393039E+03 -0.39533327137E+03  0.18031723490E+04  0.18736377419E+04  0.15294330000E+03 0.  0.
<mgrwt>
<rscale>  0 0.50900675E+03</rscale>
<asrwt>0</asrwt>
<pdfrwt beam="1">  1        2 0.42471199E+00 0.50900675E+03</pdfrwt>
<pdfrwt beam="2">  1       -2 0.16225739E-01 0.50900675E+03</pdfrwt>
<totfact> 0.81376074E+01</totfact>
</mgrwt>
</event>
<event>
 4    1  0.5387657E-008  0.8953082E+03  0.7818608E-02  0.9431465E-01
         -2   -1    0    0    0  501 -0.00000000000E+00  0.00000000000E+00  0.85257079419E+03  0.85257079420E+03  0.25500000000E-02 0.  1.
          2   -1    0    0  501    0  0.00000000000E+00 -0.00000000000E+00 -0.23702704331E+04  0.23702704331E+04  0.25500000000E-02 0. -1.
    8880022    1    1    2    0    0  0.36164177083E+03 -0.80461190722E+03  0.49282212100E+03  0.10219835555E+04  0.15294330000E+03 0.  0.
    8880022    1    1    2    0    0 -0.36164177083E+03  0.80461190722E+03 -0.20105217599E+04  0.22008576719E+04  0.15294330000E+03 0.  0.
<mgrwt>
<rscale>  0 0.89530818E+03</rscale>
<asrwt>0</asrwt>
<pdfrwt beam="1">  1        2 0.36465699E+00 0.89530818E+03</pdfrwt>
<pdfrwt beam="2">  1       -2 0.13116474E+00 0.89530818E+03</pdfrwt>
<totfact> 0.17911727E+00</totfact>
</mgrwt>
</event>
<event>
 4    1  0.5387657E-008  0.4580083E+03  0.7818608E-02  0.1025360E+00
          2   -1    0    0  501    0  0.00000000000E+00  0.00000000000E+00  0.14508316346E+04  0.14508316346E+04  0.25500000000E-02 0. -1.
         -2   -1    0    0    0  501 -0.00000000000E+00 -0.00000000000E+00 -0.16915406822E+03  0.16915406824E+03  0.25500000000E-02 0.  1.
    8880022    1    1    2    0    0  0.20909117910E+03 -0.37770466327E+03  0.33215383676E+03  0.56577182514E+03  0.15294330000E+03 0.  0.
    8880022    1    1    2    0    0 -0.20909117910E+03  0.37770466327E+03  0.94952372965E+03  0.10542138777E+04  0.15294330000E+03 0.  0.
<mgrwt>
<rscale>  0 0.45800828E+03</rscale>
<asrwt>0</asrwt>
<pdfrwt beam="1">  1        2 0.22320487E+00 0.45800828E+03</pdfrwt>
<pdfrwt beam="2">  1       -2 0.26023702E-01 0.45800828E+03</pdfrwt>
<totfact> 0.18814329E+02</totfact>
</mgrwt>
</event>
<event>
 4    1  0.5387657E-008  0.1228511E+04  0.7818608E-02  0.9088261E-01
          2   -1    0    0  501    0  0.00000000000E+00  0.00000000000E+00  0.26093998837E+04  0.26093998837E+04  0.25500000000E-02 0. -1.
         -2   -1    0    0    0  501 -0.00000000000E+00 -0.00000000000E+00 -0.30167946300E+04  0.30167946300E+04  0.25500000000E-02 0.  1.
    8880022    1    1    2    0    0 -0.11370376120E+04 -0.43930929018E+03 -0.27327925273E+04  0.29962299367E+04  0.15294330000E+03 0.  0.
    8880022    1    1    2    0    0  0.11370376120E+04  0.43930929018E+03  0.23253977809E+04  0.26299645770E+04  0.15294330000E+03 0.  0.
<mgrwt>
<rscale>  0 0.12285108E+04</rscale>
<asrwt>0</asrwt>
<pdfrwt beam="1">  1        2 0.40144614E+00 0.12285108E+04</pdfrwt>
<pdfrwt beam="2">  1       -2 0.46412225E+00 0.12285108E+04</pdfrwt>
<totfact> 0.82729981E-03</totfact>
</mgrwt>
</event>
<event>
 4    1  0.5387657E-008  0.2092879E+03  0.7818608E-02  0.1142131E+00
          2   -1    0    0  501    0  0.00000000000E+00  0.00000000000E+00  0.24397229074E+04  0.24397229074E+04  0.25500000000E-02 0. -1.
         -2   -1    0    0    0  501 -0.00000000000E+00 -0.00000000000E+00 -0.56889372600E+02  0.56889372657E+02  0.25500000000E-02 0.  1.
    8880022    1    1    2    0    0  0.68366778613E+02  0.12544228115E+03  0.22241324868E+04  0.22339576438E+04  0.15294330000E+03 0.  0.
    8880022    1    1    2    0    0 -0.68366778613E+02 -0.12544228115E+03  0.15870104804E+03  0.26265463632E+03  0.15294330000E+03 0.  0.
<mgrwt>
<rscale>  0 0.20928792E+03</rscale>
<asrwt>0</asrwt>
<pdfrwt beam="1">  1        2 0.37534196E+00 0.20928792E+03</pdfrwt>
<pdfrwt beam="2">  1       -2 0.87522118E-02 0.20928792E+03</pdfrwt>
<totfact> 0.36138240E+02</totfact>
</mgrwt>
</event>
<event>
 4    1  0.5387657E-008  0.7750406E+03  0.7818608E-02  0.9596864E-01
          2   -1    0    0  501    0  0.00000000000E+00  0.00000000000E+00  0.66666725033E+03  0.66666725033E+03  0.25500000000E-02 0. -1.
         -2   -1    0    0    0  501 -0.00000000000E+00 -0.00000000000E+00 -0.12198924367E+04  0.12198924367E+04  0.25500000000E-02 0.  1.
    8880022    1    1    2    0    0  0.14556357015E+03 -0.74572618494E+03 -0.75887198341E+03  0.10847002517E+04  0.15294330000E+03 0.  0.
    8880022    1    1    2    0    0 -0.14556357015E+03  0.74572618494E+03  0.20564679704E+03  0.80185943532E+03  0.15294330000E+03 0.  0.
<mgrwt>
<rscale>  0 0.77504061E+03</rscale>
<asrwt>0</asrwt>
<pdfrwt beam="1">  1        2 0.10256419E+00 0.77504061E+03</pdfrwt>
<pdfrwt beam="2">  1       -2 0.18767576E+00 0.77504061E+03</pdfrwt>
<totfact> 0.71123978E+00</totfact>
</mgrwt>
</event>
<event>
 4    1  0.5387657E-008  0.6968861E+03  0.7818608E-02  0.9722572E-01
          2   -1    0    0  501    0  0.00000000000E+00  0.00000000000E+00  0.10476379725E+04  0.10476379725E+04  0.25500000000E-02 0. -1.
         -2   -1    0    0    0  501 -0.00000000000E+00 -0.00000000000E+00 -0.66684436784E+03  0.66684436784E+03  0.25500000000E-02 0.  1.
    8880022    1    1    2    0    0  0.46798736446E+03  0.49320011572E+03 -0.28290211029E+03  0.75211952804E+03  0.15294330000E+03 0.  0.
    8880022    1    1    2    0    0 -0.46798736446E+03 -0.49320011572E+03  0.66369571492E+03  0.96236281228E+03  0.15294330000E+03 0.  0.
<mgrwt>
<rscale>  0 0.69688606E+03</rscale>
<asrwt>0</asrwt>
<pdfrwt beam="1">  1        2 0.16117507E+00 0.69688606E+03</pdfrwt>
<pdfrwt beam="2">  1       -2 0.10259144E+00 0.69688606E+03</pdfrwt>
<totfact> 0.18677715E+01</totfact>
</mgrwt>
</event>
<event>
 4    1  0.5387657E-008  0.4938399E+03  0.7818608E-02  0.1015399E+00
          2   -1    0    0  501    0  0.00000000000E+00  0.00000000000E+00  0.16960071450E+04  0.16960071450E+04  0.25500000000E-02 0. -1.
         -2   -1    0    0    0  501 -0.00000000000E+00 -0.00000000000E+00 -0.40025763548E+03  0.40025763548E+03  0.25500000000E-02 0.  1.
    8880022    1    1    2    0    0  0.46932702717E+03 -0.14774603643E+02  0.14868673999E+04  0.15667330549E+04  0.15294330000E+03 0.  0.
    8880022    1    1    2    0    0 -0.46932702717E+03  0.14774603643E+02 -0.19111789041E+03  0.52953172558E+03  0.15294330000E+03 0.  0.
<mgrwt>
<rscale>  0 0.49383985E+03</rscale>
<asrwt>0</asrwt>
<pdfrwt beam="1">  1        2 0.26092418E+00 0.49383985E+03</pdfrwt>
<pdfrwt beam="2">  1       -2 0.61578097E-01 0.49383985E+03</pdfrwt>
<totfact> 0.25813125E+01</totfact>
</mgrwt>
</event>
<event>
 4    1  0.5387657E-008  0.6051046E+03  0.7818608E-02  0.9894872E-01
         -2   -1    0    0    0  501 -0.00000000000E+00  0.00000000000E+00  0.15529060721E+04  0.15529060721E+04  0.25500000000E-02 0.  1.
          2   -1    0    0  501    0  0.00000000000E+00 -0.00000000000E+00 -0.33855172095E+03  0.33855172096E+03  0.25500000000E-02 0. -1.
    8880022    1    1    2    0    0 -0.76335521209E+02 -0.58045913922E+03  0.11282289921E+04  0.12802547543E+04  0.15294330000E+03 0.  0.
    8880022    1    1    2    0    0  0.76335521209E+02  0.58045913922E+03  0.86125358970E+02  0.61120303875E+03  0.15294330000E+03 0.  0.
<mgrwt>
<rscale>  0 0.60510460E+03</rscale>
<asrwt>0</asrwt>
<pdfrwt beam="1">  1        2 0.52084880E-01 0.60510460E+03</pdfrwt>
<pdfrwt beam="2">  1       -2 0.23890863E+00 0.60510460E+03</pdfrwt>
<totfact> 0.75347696E+00</totfact>
</mgrwt>
</event>
<event>
 4    1  0.5387657E-008  0.5850107E+03  0.7818608E-02  0.9937002E-01
          2   -1    0    0  501    0  0.00000000000E+00  0.00000000000E+00  0.22455567499E+04  0.22455567499E+04  0.25500000000E-02 0. -1.
         -2   -1    0    0    0  501 -0.00000000000E+00 -0.00000000000E+00 -0.18248704386E+03  0.18248704388E+03  0.25500000000E-02 0.  1.
    8880022    1    1    2    0    0 -0.34608928329E+03 -0.44617042820E+03  0.53864125256E+03  0.79521814301E+03  0.15294330000E+03 0.  0.
    8880022    1    1    2    0    0  0.34608928329E+03  0.44617042820E+03  0.15244284535E+04  0.16328256508E+04  0.15294330000E+03 0.  0.
<mgrwt>
<rscale>  0 0.58501068E+03</rscale>
<asrwt>0</asrwt>
<pdfrwt beam="1">  1        2 0.34547025E+00 0.58501068E+03</pdfrwt>
<pdfrwt beam="2">  1       -2 0.28074932E-01 0.58501068E+03</pdfrwt>
<totfact> 0.59707914E+01</totfact>
</mgrwt>
</event>
<event>
 4    1  0.5387657E-008  0.3737229E+03  0.7818608E-02  0.1053278E+00
         -2   -1    0    0    0  501 -0.00000000000E+00  0.00000000000E+00  0.20084557601E+03  0.20084557602E+03  0.25500000000E-02 0.  1.
          2   -1    0    0  501    0  0.00000000000E+00 -0.00000000000E+00 -0.18330744333E+04  0.18330744333E+04  0.25500000000E-02 0. -1.
    8880022    1    1    2    0    0 -0.33955027896E+03 -0.31349265311E+02 -0.16172795879E+04  0.16598982158E+04  0.15294330000E+03 0.  0.
    8880022    1    1    2    0    0  0.33955027896E+03  0.31349265311E+02 -0.14949269428E+02  0.37402179355E+03  0.15294330000E+03 0.  0.
<mgrwt>
<rscale>  0 0.37372292E+03</rscale>
<asrwt>0</asrwt>
<pdfrwt beam="1">  1        2 0.28201144E+00 0.37372292E+03</pdfrwt>
<pdfrwt beam="2">  1       -2 0.30899321E-01 0.37372292E+03</pdfrwt>
<totfact> 0.86812996E+01</totfact>
</mgrwt>
</event>
<event>
 4    1  0.7211258E-008  0.6510194E+03  0.7818608E-02  0.9804868E-01
         -2   -1    0    0    0  501 -0.00000000000E+00  0.00000000000E+00  0.11635391299E+04  0.11635391299E+04  0.25500000000E-02 0.  1.
          2   -1    0    0  501    0  0.00000000000E+00 -0.00000000000E+00 -0.14322321252E+04  0.14322321252E+04  0.25500000000E-02 0. -1.
    8880022    1    1    2    0    0 -0.17057123782E+03 -0.60937682200E+03  0.98640790740E+03  0.11818743043E+04  0.15294330000E+03 0.  0.
    8880022    1    1    2    0    0  0.17057123782E+03  0.60937682200E+03 -0.12551009027E+04  0.14138969507E+04  0.15294330000E+03 0.  0.
<mgrwt>
<rscale>  0 0.65101944E+03</rscale>
<asrwt>0</asrwt>
<pdfrwt beam="1">  1        2 0.22034340E+00 0.65101944E+03</pdfrwt>
<pdfrwt beam="2">  1       -2 0.17900602E+00 0.65101944E+03</pdfrwt>
<totfact> 0.26737202E+00</totfact>
</mgrwt>
</event>
<event>
 4    1  0.5387657E-008  0.6343651E+03  0.7818608E-02  0.9836567E-01
         -2   -1    0    0    0  501 -0.00000000000E+00  0.00000000000E+00  0.31866573612E+03  0.31866573613E+03  0.25500000000E-02 0.  1.
          2   -1    0    0  501    0  0.00000000000E+00 -0.00000000000E+00 -0.16072450808E+04  0.16072450808E+04  0.25500000000E-02 0. -1.
    8880022    1    1    2    0    0  0.44094604166E+03  0.42964402652E+03 -0.10900581603E+04  0.12612080903E+04  0.15294330000E+03 0.  0.
    8880022    1    1    2    0    0 -0.44094604166E+03 -0.42964402652E+03 -0.19852118441E+03  0.66470272667E+03  0.15294330000E+03 0.  0.
<mgrwt>
<rscale>  0 0.63436508E+03</rscale>
<asrwt>0</asrwt>
<pdfrwt beam="1">  1        2 0.24726847E+00 0.63436508E+03</pdfrwt>
<pdfrwt beam="2">  1       -2 0.49025499E-01 0.63436508E+03</pdfrwt>
<totfact> 0.45180293E+01</totfact>
</mgrwt>
</event>
<event>
 4    1  0.5387657E-008  0.5201394E+03  0.7818608E-02  0.1008652E+00
         -2   -1    0    0    0  501 -0.00000000000E+00  0.00000000000E+00  0.49107749660E+03  0.49107749660E+03  0.25500000000E-02 0.  1.
          2   -1    0    0  501    0  0.00000000000E+00 -0.00000000000E+00 -0.21023873073E+04  0.21023873073E+04  0.25500000000E-02 0. -1.
    8880022    1    1    2    0    0  0.32744942754E+03  0.37407249918E+03  0.30829367131E+03  0.60464039149E+03  0.15294330000E+03 0.  0.
    8880022    1    1    2    0    0 -0.32744942754E+03 -0.37407249918E+03 -0.19196034820E+04  0.19888244124E+04  0.15294330000E+03 0. -1.
<mgrwt>
<rscale>  0 0.52013942E+03</rscale>
<asrwt>0</asrwt>
<pdfrwt beam="1">  1        2 0.32344420E+00 0.52013942E+03</pdfrwt>
<pdfrwt beam="2">  1       -2 0.75550386E-01 0.52013942E+03</pdfrwt>
<totfact> 0.99737227E+00</totfact>
</mgrwt>
</event>
<event>
 4    1  0.5387657E-008  0.6582431E+03  0.7818608E-02  0.9791433E-01
         -2   -1    0    0    0  501 -0.00000000000E+00  0.00000000000E+00  0.88212811693E+03  0.88212811693E+03  0.25500000000E-02 0.  1.
          2   -1    0    0  501    0  0.00000000000E+00 -0.00000000000E+00 -0.90608676013E+03  0.90608676014E+03  0.25500000000E-02 0. -1.
    8880022    1    1    2    0    0  0.23603248930E+03 -0.59513109094E+03 -0.61701346534E+03  0.90221373346E+03  0.15294330000E+03 0.  0.
    8880022    1    1    2    0    0 -0.23603248930E+03  0.59513109094E+03  0.59305482213E+03  0.88600114361E+03  0.15294330000E+03 0.  0.
<mgrwt>
<rscale>  0 0.65824312E+03</rscale>
<asrwt>0</asrwt>
<pdfrwt beam="1">  1        2 0.13939796E+00 0.65824312E+03</pdfrwt>
<pdfrwt beam="2">  1       -2 0.13571202E+00 0.65824312E+03</pdfrwt>
<totfact> 0.11619412E+01</totfact>
</mgrwt>
</event>
<event>
 4    1  0.5387657E-008  0.5217271E+03  0.7818608E-02  0.1008258E+00
          2   -1    0    0  501    0  0.00000000000E+00  0.00000000000E+00  0.10868849548E+04  0.10868849548E+04  0.25500000000E-02 0. -1.
         -2   -1    0    0    0  501 -0.00000000000E+00 -0.00000000000E+00 -0.53075858417E+03  0.53075858418E+03  0.25500000000E-02 0.  1.
    8880022    1    1    2    0    0  0.70912598744E+02 -0.49373970592E+03  0.86586441834E+03  0.10109007557E+04  0.15294330000E+03 0.  0.
    8880022    1    1    2    0    0 -0.70912598744E+02  0.49373970592E+03 -0.30973804772E+03  0.60674278330E+03  0.15294330000E+03 0.  0.
<mgrwt>
<rscale>  0 0.52172708E+03</rscale>
<asrwt>0</asrwt>
<pdfrwt beam="1">  1        2 0.16721307E+00 0.52172708E+03</pdfrwt>
<pdfrwt beam="2">  1       -2 0.81655168E-01 0.52172708E+03</pdfrwt>
<totfact> 0.30626051E+01</totfact>
</mgrwt>
</event>
<event>
 4    1  0.5387657E-008  0.3507647E+03  0.7818608E-02  0.1062302E+00
          2   -1    0    0  501    0  0.00000000000E+00  0.00000000000E+00  0.22695641996E+03  0.22695641997E+03  0.25500000000E-02 0. -1.
         -2   -1    0    0    0  501 -0.00000000000E+00 -0.00000000000E+00 -0.61698178531E+03  0.61698178531E+03  0.25500000000E-02 0.  1.
    8880022    1    1    2    0    0 -0.30234636042E+03  0.90724493057E+02 -0.48019777120E+02  0.35403644912E+03  0.15294330000E+03 0.  0.
    8880022    1    1    2    0    0  0.30234636042E+03 -0.90724493057E+02 -0.34200558823E+03  0.48990175616E+03  0.15294330000E+03 0.  0.
<mgrwt>
<rscale>  0 0.35076475E+03</rscale>
<asrwt>0</asrwt>
<pdfrwt beam="1">  1        2 0.34916373E-01 0.35076475E+03</pdfrwt>
<pdfrwt beam="2">  1       -2 0.94920274E-01 0.35076475E+03</pdfrwt>
<totfact> 0.14379711E+02</totfact>
</mgrwt>
</event>
<event>
 4    1  0.5387657E-008  0.5079821E+03  0.7818608E-02  0.1011716E+00
         -2   -1    0    0    0  501 -0.00000000000E+00  0.00000000000E+00  0.84023732027E+03  0.84023732027E+03  0.25500000000E-02 0.  1.
          2   -1    0    0  501    0  0.00000000000E+00 -0.00000000000E+00 -0.60750125977E+03  0.60750125977E+03  0.25500000000E-02 0. -1.
    8880022    1    1    2    0    0  0.47906992250E+03  0.71736871812E+02  0.62538204869E+03  0.80569754205E+03  0.15294330000E+03 0.  0.
    8880022    1    1    2    0    0 -0.47906992250E+03 -0.71736871812E+02 -0.39264598819E+03  0.64204103800E+03  0.15294330000E+03 0.  0.
<mgrwt>
<rscale>  0 0.50798211E+03</rscale>
<asrwt>0</asrwt>
<pdfrwt beam="1">  1        2 0.93461733E-01 0.50798211E+03</pdfrwt>
<pdfrwt beam="2">  1       -2 0.12926728E+00 0.50798211E+03</pdfrwt>
<totfact> 0.22380669E+01</totfact>
</mgrwt>
</event>
<event>
 4    1  0.5387657E-008  0.6228184E+03  0.7818608E-02  0.9859164E-01
          2   -1    0    0  501    0  0.00000000000E+00  0.00000000000E+00  0.21104075062E+04  0.21104075062E+04  0.25500000000E-02 0. -1.
         -2   -1    0    0    0  501 -0.00000000000E+00 -0.00000000000E+00 -0.33310193303E+03  0.33310193304E+03  0.25500000000E-02 0.  1.
    8880022    1    1    2    0    0  0.58554852225E+03 -0.14711913902E+03  0.17065926310E+04  0.18166896197E+04  0.15294330000E+03 0.  0.
    8880022    1    1    2    0    0 -0.58554852225E+03  0.14711913902E+03  0.70712942123E+02  0.62681981955E+03  0.15294330000E+03 0.  0.
<mgrwt>
<rscale>  0 0.62281841E+03</rscale>
<asrwt>0</asrwt>
<pdfrwt beam="1">  1        2 0.32467809E+00 0.62281841E+03</pdfrwt>
<pdfrwt beam="2">  1       -2 0.51246449E-01 0.62281841E+03</pdfrwt>
<totfact> 0.22043933E+01</totfact>
</mgrwt>
</event>
<event>
 4    1  0.5387657E-008  0.1136505E+04  0.7818608E-02  0.9170325E-01
         -2   -1    0    0    0  501 -0.00000000000E+00  0.00000000000E+00  0.75945457893E+03  0.75945457893E+03  0.25500000000E-02 0.  1.
          2   -1    0    0  501    0  0.00000000000E+00 -0.00000000000E+00 -0.19624752610E+04  0.19624752610E+04  0.25500000000E-02 0. -1.
    8880022    1    1    2    0    0 -0.34846934791E+03  0.10708968771E+04 -0.10449780345E+03  0.11412985813E+04  0.15294330000E+03 0.  0.
    8880022    1    1    2    0    0  0.34846934791E+03 -0.10708968771E+04 -0.10985228786E+04  0.15806312586E+04  0.15294330000E+03 0.  0.
<mgrwt>
<rscale>  0 0.11365046E+04</rscale>
<asrwt>0</asrwt>
<pdfrwt beam="1">  1        2 0.30191927E+00 0.11365046E+04</pdfrwt>
<pdfrwt beam="2">  1       -2 0.11683917E+00 0.11365046E+04</pdfrwt>
<totfact> 0.39087763E+00</totfact>
</mgrwt>
</event>
<event>
 4    1  0.5387657E-008  0.1034245E+04  0.7818608E-02  0.9271763E-01
          2   -1    0    0  501    0  0.00000000000E+00  0.00000000000E+00  0.18909468105E+04  0.18909468105E+04  0.25500000000E-02 0. -1.
         -2   -1    0    0    0  501 -0.00000000000E+00 -0.00000000000E+00 -0.61734358867E+03  0.61734358867E+03  0.25500000000E-02 0.  1.
    8880022    1    1    2    0    0 -0.10225878705E+04  0.24190305485E+02  0.99962430899E+03  0.14383711398E+04  0.15294330000E+03 0.  0.
    8880022    1    1    2    0    0  0.10225878705E+04 -0.24190305485E+02  0.27397891282E+03  0.10699192593E+04  0.15294330000E+03 0.  0.
<mgrwt>
<rscale>  0 0.10342450E+04</rscale>
<asrwt>0</asrwt>
<pdfrwt beam="1">  1        2 0.29091489E+00 0.10342450E+04</pdfrwt>
<pdfrwt beam="2">  1       -2 0.94975937E-01 0.10342450E+04</pdfrwt>
<totfact> 0.71328836E+00</totfact>
</mgrwt>
</event>
<event>
 4    1  0.5387657E-008  0.3509792E+03  0.7818608E-02  0.1062214E+00
         -2   -1    0    0    0  501 -0.00000000000E+00  0.00000000000E+00  0.19824422232E+03  0.19824422234E+03  0.25500000000E-02 0.  1.
          2   -1    0    0  501    0  0.00000000000E+00 -0.00000000000E+00 -0.15284505626E+04  0.15284505626E+04  0.25500000000E-02 0. -1.
    8880022    1    1    2    0    0 -0.22928079366E+03  0.21731329410E+03 -0.13301905689E+04  0.13757155784E+04  0.15294330000E+03 0.  0.
    8880022    1    1    2    0    0  0.22928079366E+03 -0.21731329410E+03 -0.15771370689E-01  0.35097920650E+03  0.15294330000E+03 0.  0.
<mgrwt>
<rscale>  0 0.35097921E+03</rscale>
<asrwt>0</asrwt>
<pdfrwt beam="1">  1        2 0.23514623E+00 0.35097921E+03</pdfrwt>
<pdfrwt beam="2">  1       -2 0.30499112E-01 0.35097921E+03</pdfrwt>
<totfact> 0.12995692E+02</totfact>
</mgrwt>
</event>
<event>
 4    1  0.5387657E-008  0.5437962E+03  0.7818608E-02  0.1002940E+00
         -2   -1    0    0    0  501 -0.00000000000E+00  0.00000000000E+00  0.17605286486E+04  0.17605286486E+04  0.25500000000E-02 0.  1.
          2   -1    0    0  501    0  0.00000000000E+00 -0.00000000000E+00 -0.11991003612E+04  0.11991003612E+04  0.25500000000E-02 0. -1.
    8880022    1    1    2    0    0 -0.50382626279E+03 -0.13594767452E+03 -0.10915461593E+04  0.12195029087E+04  0.15294330000E+03 0.  0.
    8880022    1    1    2    0    0  0.50382626279E+03  0.13594767452E+03  0.16529744468E+04  0.17401261012E+04  0.15294330000E+03 0.  0.
<mgrwt>
<rscale>  0 0.54379622E+03</rscale>
<asrwt>0</asrwt>
<pdfrwt beam="1">  1        2 0.18447698E+00 0.54379622E+03</pdfrwt>
<pdfrwt beam="2">  1       -2 0.27085056E+00 0.54379622E+03</pdfrwt>
<totfact> 0.99194514E-01</totfact>
</mgrwt>
</event>
<event>
 4    1  0.5387657E-008  0.3784657E+03  0.7818608E-02  0.1051502E+00
          2   -1    0    0  501    0  0.00000000000E+00  0.00000000000E+00  0.50811034779E+03  0.50811034780E+03  0.25500000000E-02 0. -1.
         -2   -1    0    0    0  501 -0.00000000000E+00 -0.00000000000E+00 -0.94656093532E+03  0.94656093532E+03  0.25500000000E-02 0.  1.
    8880022    1    1    2    0    0  0.23795437414E+03 -0.25144048533E+03 -0.82870702426E+03  0.91103874062E+03  0.15294330000E+03 0.  0.
    8880022    1    1    2    0    0 -0.23795437414E+03  0.25144048533E+03  0.39025643673E+03  0.54363254250E+03  0.15294330000E+03 0.  0.
<mgrwt>
<rscale>  0 0.37846566E+03</rscale>
<asrwt>0</asrwt>
<pdfrwt beam="1">  1        2 0.78170823E-01 0.37846566E+03</pdfrwt>
<pdfrwt beam="2">  1       -2 0.14562476E+00 0.37846566E+03</pdfrwt>
<totfact> 0.20747421E+01</totfact>
</mgrwt>
</event>
<event>
 4    1  0.5387657E-008  0.8456590E+03  0.7818608E-02  0.9496182E-01
          2   -1    0    0  501    0  0.00000000000E+00  0.00000000000E+00  0.11086431188E+04  0.11086431188E+04  0.25500000000E-02 0. -1.
         -2   -1    0    0    0  501 -0.00000000000E+00 -0.00000000000E+00 -0.88124599490E+03  0.88124599490E+03  0.25500000000E-02 0.  1.
    8880022    1    1    2    0    0 -0.68477937508E+03  0.47204315005E+03 -0.40138673772E+03  0.93608252535E+03  0.15294330000E+03 0.  0.
    8880022    1    1    2    0    0  0.68477937508E+03 -0.47204315005E+03  0.62878386166E+03  0.10538065884E+04  0.15294330000E+03 0.  0.
<mgrwt>
<rscale>  0 0.84565902E+03</rscale>
<asrwt>0</asrwt>
<pdfrwt beam="1">  1        2 0.17056048E+00 0.84565902E+03</pdfrwt>
<pdfrwt beam="2">  1       -2 0.13557631E+00 0.84565902E+03</pdfrwt>
<totfact> 0.84610895E+00</totfact>
</mgrwt>
</event>
<event>
 4    1  0.5798715E-008  0.4527855E+03  0.7818608E-02  0.1026895E+00
          2   -1    0    0  501    0  0.00000000000E+00  0.00000000000E+00  0.19506204375E+04  0.19506204375E+04  0.25500000000E-02 0. -1.
         -2   -1    0    0    0  501 -0.00000000000E+00 -0.00000000000E+00 -0.78390189710E+03  0.78390189711E+03  0.25500000000E-02 0.  1.
    8880022    1    1    2    0    0  0.94857916501E+02 -0.41548164108E+03  0.18556647955E+04  0.19101064118E+04  0.15294330000E+03 0.  0.
    8880022    1    1    2    0    0 -0.94857916501E+02  0.41548164108E+03 -0.68894625505E+03  0.82441592279E+03  0.15294330000E+03 0.  1.
<mgrwt>
<rscale>  0 0.45278546E+03</rscale>
<asrwt>0</asrwt>
<pdfrwt beam="1">  1        2 0.30009545E+00 0.45278546E+03</pdfrwt>
<pdfrwt beam="2">  1       -2 0.12060029E+00 0.45278546E+03</pdfrwt>
<totfact> 0.41233074E+00</totfact>
</mgrwt>
</event>
<event>
 4    1  0.5387657E-008  0.8688746E+03  0.7818608E-02  0.9465348E-01
          2   -1    0    0  501    0  0.00000000000E+00  0.00000000000E+00  0.13010334973E+04  0.13010334973E+04  0.25500000000E-02 0. -1.
         -2   -1    0    0    0  501 -0.00000000000E+00 -0.00000000000E+00 -0.68357360959E+03  0.68357360959E+03  0.25500000000E-02 0.  1.
    8880022    1    1    2    0    0  0.16557810241E+03  0.83912770893E+03  0.69449420083E+03  0.11123242638E+04  0.15294330000E+03 0.  0.
    8880022    1    1    2    0    0 -0.16557810241E+03 -0.83912770893E+03 -0.77034313126E+02  0.87228284306E+03  0.15294330000E+03 0.  0.
<mgrwt>
<rscale>  0 0.86887460E+03</rscale>
<asrwt>0</asrwt>
<pdfrwt beam="1">  1        2 0.20015899E+00 0.86887460E+03</pdfrwt>
<pdfrwt beam="2">  1       -2 0.10516517E+00 0.86887460E+03</pdfrwt>
<totfact> 0.12175366E+01</totfact>
</mgrwt>
</event>
<event>
 4    1  0.5387657E-008  0.9511723E+03  0.7818608E-02  0.9363781E-01
         -2   -1    0    0    0  501 -0.00000000000E+00  0.00000000000E+00  0.30965022913E+03  0.30965022914E+03  0.25500000000E-02 0.  1.
          2   -1    0    0  501    0  0.00000000000E+00 -0.00000000000E+00 -0.35434029718E+04  0.35434029718E+04  0.25500000000E-02 0. -1.
    8880022    1    1    2    0    0  0.88278663521E+03  0.31941322114E+03 -0.24237946546E+04  0.26037490720E+04  0.15294330000E+03 0.  0.
    8880022    1    1    2    0    0 -0.88278663521E+03 -0.31941322114E+03 -0.80995808804E+03  0.12493041289E+04  0.15294330000E+03 0.  0.
<mgrwt>
<rscale>  0 0.95117228E+03</rscale>
<asrwt>0</asrwt>
<pdfrwt beam="1">  1        2 0.54513889E+00 0.95117228E+03</pdfrwt>
<pdfrwt beam="2">  1       -2 0.47638499E-01 0.95117228E+03</pdfrwt>
<totfact> 0.33120986E+00</totfact>
</mgrwt>
</event>
<event>
 4    1  0.5387657E-008  0.4854277E+03  0.7818608E-02  0.1017654E+00
         -2   -1    0    0    0  501 -0.00000000000E+00  0.00000000000E+00  0.61455614974E+03  0.61455614975E+03  0.25500000000E-02 0.  1.
          2   -1    0    0  501    0  0.00000000000E+00 -0.00000000000E+00 -0.64894947443E+03  0.64894947443E+03  0.25500000000E-02 0. -1.
    8880022    1    1    2    0    0  0.45912706522E+03 -0.38087911880E+02 -0.42129675213E+03  0.64275264092E+03  0.15294330000E+03 0.  0.
    8880022    1    1    2    0    0 -0.45912706522E+03  0.38087911880E+02  0.38690342744E+03  0.62075298326E+03  0.15294330000E+03 0.  0.
<mgrwt>
<rscale>  0 0.48542765E+03</rscale>
<asrwt>0</asrwt>
<pdfrwt beam="1">  1        2 0.99838380E-01 0.48542765E+03</pdfrwt>
<pdfrwt beam="2">  1       -2 0.94547100E-01 0.48542765E+03</pdfrwt>
<totfact> 0.44075097E+01</totfact>
</mgrwt>
</event>
<event>
 4    1  0.5387657E-008  0.1881441E+04  0.7818608E-02  0.8664150E-01
         -2   -1    0    0    0  501 -0.00000000000E+00  0.00000000000E+00  0.49038672827E+04  0.49038672827E+04  0.25500000000E-02 0.  1.
          2   -1    0    0  501    0  0.00000000000E+00 -0.00000000000E+00 -0.91853407724E+03  0.91853407724E+03  0.25500000000E-02 0. -1.
    8880022    1    1    2    0    0 -0.17805339644E+04 -0.58832546980E+03  0.33398211255E+04  0.38333046918E+04  0.15294330000E+03 0.  0.
    8880022    1    1    2    0    0  0.17805339644E+04  0.58832546980E+03  0.64551207996E+03  0.19890966681E+04  0.15294330000E+03 0.  0.
<mgrwt>
<rscale>  0 0.18814409E+04</rscale>
<asrwt>0</asrwt>
<pdfrwt beam="1">  1        2 0.14131293E+00 0.18814409E+04</pdfrwt>
<pdfrwt beam="2">  1       -2 0.75444112E+00 0.18814409E+04</pdfrwt>
<totfact> 0.35545731E-03</totfact>
</mgrwt>
</event>
<event>
 4    1  0.5387657E-008  0.5983135E+03  0.7818608E-02  0.9908911E-01
         -2   -1    0    0    0  501 -0.00000000000E+00  0.00000000000E+00  0.12256793001E+04  0.12256793001E+04  0.25500000000E-02 0.  1.
          2   -1    0    0  501    0  0.00000000000E+00 -0.00000000000E+00 -0.62674220962E+03  0.62674220962E+03  0.25500000000E-02 0. -1.
    8880022    1    1    2    0    0 -0.44656424410E+03 -0.36765176004E+03  0.97629581939E+03  0.11450469950E+04  0.15294330000E+03 0.  0.
    8880022    1    1    2    0    0  0.44656424410E+03  0.36765176004E+03 -0.37735872892E+03  0.70737451472E+03  0.15294330000E+03 0.  0.
<mgrwt>
<rscale>  0 0.59831354E+03</rscale>
<asrwt>0</asrwt>
<pdfrwt beam="1">  1        2 0.96421880E-01 0.59831354E+03</pdfrwt>
<pdfrwt beam="2">  1       -2 0.18856604E+00 0.59831354E+03</pdfrwt>
<totfact> 0.77434171E+00</totfact>
</mgrwt>
</event>
<event>
 4    1  0.5387657E-008  0.4339071E+03  0.7818608E-02  0.1032633E+00
         -2   -1    0    0    0  501 -0.00000000000E+00  0.00000000000E+00  0.10580006947E+04  0.10580006947E+04  0.25500000000E-02 0.  1.
          2   -1    0    0  501    0  0.00000000000E+00 -0.00000000000E+00 -0.41748688238E+03  0.41748688238E+03  0.25500000000E-02 0. -1.
    8880022    1    1    2    0    0  0.41747962140E+02  0.40390694509E+03  0.87907028062E+03  0.98032643743E+03  0.15294330000E+03 0.  0.
    8880022    1    1    2    0    0 -0.41747962140E+02 -0.40390694509E+03 -0.23855646830E+03  0.49516113965E+03  0.15294330000E+03 0.  0.
<mgrwt>
<rscale>  0 0.43390709E+03</rscale>
<asrwt>0</asrwt>
<pdfrwt beam="1">  1        2 0.64228752E-01 0.43390709E+03</pdfrwt>
<pdfrwt beam="2">  1       -2 0.16276934E+00 0.43390709E+03</pdfrwt>
<totfact> 0.19127752E+01</totfact>
</mgrwt>
</event>
<event>
 4    1  0.5387657E-008  0.9425335E+03  0.7818608E-02  0.9373921E-01
         -2   -1    0    0    0  501 -0.00000000000E+00  0.00000000000E+00  0.94387271171E+03  0.94387271171E+03  0.25500000000E-02 0.  1.
          2   -1    0    0  501    0  0.00000000000E+00 -0.00000000000E+00 -0.13640018036E+04  0.13640018036E+04  0.25500000000E-02 0. -1.
    8880022    1    1    2    0    0 -0.92225196773E+03  0.12012104662E+03  0.43239396990E+03  0.10369831031E+04  0.15294330000E+03 0.  0.
    8880022    1    1    2    0    0  0.92225196773E+03 -0.12012104662E+03 -0.85252306180E+03  0.12708914122E+04  0.15294330000E+03 0.  0.
<mgrwt>
<rscale>  0 0.94253351E+03</rscale>
<asrwt>0</asrwt>
<pdfrwt beam="1">  1        2 0.20984643E+00 0.94253351E+03</pdfrwt>
<pdfrwt beam="2">  1       -2 0.14521119E+00 0.94253351E+03</pdfrwt>
<totfact> 0.49465530E+00</totfact>
</mgrwt>
</event>
<event>
 4    1  0.5387657E-008  0.4287065E+03  0.7818608E-02  0.1034269E+00
          2   -1    0    0  501    0  0.00000000000E+00  0.00000000000E+00  0.17409701892E+04  0.17409701892E+04  0.25500000000E-02 0. -1.
         -2   -1    0    0    0  501 -0.00000000000E+00 -0.00000000000E+00 -0.11327887341E+03  0.11327887344E+03  0.25500000000E-02 0.  1.
    8880022    1    1    2    0    0  0.39991584077E+03 -0.21561850786E+02  0.10557477236E+04  0.11394702725E+04  0.15294330000E+03 0.  0.
    8880022    1    1    2    0    0 -0.39991584077E+03  0.21561850786E+02  0.57194359220E+03  0.71477879010E+03  0.15294330000E+03 0.  0.
<mgrwt>
<rscale>  0 0.42870648E+03</rscale>
<asrwt>0</asrwt>
<pdfrwt beam="1">  1        2 0.26784157E+00 0.42870648E+03</pdfrwt>
<pdfrwt beam="2">  1       -2 0.17427519E-01 0.42870648E+03</pdfrwt>
<totfact> 0.26514503E+02</totfact>
</mgrwt>
</event>
<event>
 4    1  0.5387657E-008  0.2660744E+03  0.7818608E-02  0.1103548E+00
          2   -1    0    0  501    0  0.00000000000E+00  0.00000000000E+00  0.62214896475E+03  0.62214896476E+03  0.25500000000E-02 0. -1.
         -2   -1    0    0    0  501 -0.00000000000E+00 -0.00000000000E+00 -0.11868272157E+03  0.11868272160E+03  0.25500000000E-02 0.  1.
    8880022    1    1    2    0    0 -0.95778849103E+01  0.21751364784E+03  0.17653929058E+03  0.31931441717E+03  0.15294330000E+03 0.  1.
    8880022    1    1    2    0    0  0.95778849103E+01 -0.21751364784E+03  0.32692695260E+03  0.42151726919E+03  0.15294330000E+03 0. -1.
<mgrwt>
<rscale>  0 0.26607438E+03</rscale>
<asrwt>0</asrwt>
<pdfrwt beam="1">  1        2 0.95715226E-01 0.26607438E+03</pdfrwt>
<pdfrwt beam="2">  1       -2 0.18258880E-01 0.26607438E+03</pdfrwt>
<totfact> 0.11892295E+03</totfact>
</mgrwt>
</event>
<event>
 4    1  0.5387657E-008  0.8677505E+03  0.7818608E-02  0.9466818E-01
         -2   -1    0    0    0  501 -0.00000000000E+00  0.00000000000E+00  0.31218395166E+03  0.31218395167E+03  0.25500000000E-02 0.  1.
          2   -1    0    0  501    0  0.00000000000E+00 -0.00000000000E+00 -0.36004760677E+04  0.36004760677E+04  0.25500000000E-02 0. -1.
    8880022    1    1    2    0    0  0.84068831524E+03 -0.15113733523E+03 -0.27681179283E+04  0.29009425805E+04  0.15294330000E+03 0.  0.
    8880022    1    1    2    0    0 -0.84068831524E+03  0.15113733523E+03 -0.52017418776E+03  0.10117174389E+04  0.15294330000E+03 0.  0.
<mgrwt>
<rscale>  0 0.86775053E+03</rscale>
<asrwt>0</asrwt>
<pdfrwt beam="1">  1        2 0.55391937E+00 0.86775053E+03</pdfrwt>
<pdfrwt beam="2">  1       -2 0.48028303E-01 0.86775053E+03</pdfrwt>
<totfact> 0.30158413E+00</totfact>
</mgrwt>
</event>
<event>
 4    1  0.5387657E-008  0.5903125E+03  0.7818608E-02  0.9925711E-01
          2   -1    0    0  501    0  0.00000000000E+00  0.00000000000E+00  0.17649332177E+04  0.17649332177E+04  0.25500000000E-02 0. -1.
         -2   -1    0    0    0  501 -0.00000000000E+00 -0.00000000000E+00 -0.64928546473E+03  0.64928546473E+03  0.25500000000E-02 0.  1.
    8880022    1    1    2    0    0 -0.32961964148E+02  0.56920178542E+03  0.15648103217E+04  0.16724533356E+04  0.15294330000E+03 0.  0.
    8880022    1    1    2    0    0  0.32961964148E+02 -0.56920178542E+03 -0.44916256877E+03  0.74176534686E+03  0.15294330000E+03 0.  0.
<mgrwt>
<rscale>  0 0.59031247E+03</rscale>
<asrwt>0</asrwt>
<pdfrwt beam="1">  1        2 0.27152818E+00 0.59031247E+03</pdfrwt>
<pdfrwt beam="2">  1       -2 0.99890073E-01 0.59031247E+03</pdfrwt>
<totfact> 0.79102770E+00</totfact>
</mgrwt>
</event>
<event>
 4    1  0.5387657E-008  0.8303377E+03  0.7818608E-02  0.9517114E-01
          2   -1    0    0  501    0  0.00000000000E+00  0.00000000000E+00  0.26577752829E+04  0.26577752829E+04  0.25500000000E-02 0. -1.
         -2   -1    0    0    0  501 -0.00000000000E+00 -0.00000000000E+00 -0.39711940805E+03  0.39711940805E+03  0.25500000000E-02 0.  1.
    8880022    1    1    2    0    0  0.40399068579E+03  0.70912666979E+03  0.23086518948E+03  0.86183495911E+03  0.15294330000E+03 0.  0.
    8880022    1    1    2    0    0 -0.40399068579E+03 -0.70912666979E+03  0.20297906854E+04  0.21930597318E+04  0.15294330000E+03 0.  0.
<mgrwt>
<rscale>  0 0.83033774E+03</rscale>
<asrwt>0</asrwt>
<pdfrwt beam="1">  1        2 0.40888851E+00 0.83033774E+03</pdfrwt>
<pdfrwt beam="2">  1       -2 0.61095293E-01 0.83033774E+03</pdfrwt>
<totfact> 0.72921269E+00</totfact>
</mgrwt>
</event>
<event>
 4    1  0.7983149E-008  0.1184089E+04  0.7818608E-02  0.9126898E-01
         -2   -1    0    0    0  501 -0.00000000000E+00  0.00000000000E+00  0.24839466740E+04  0.24839466740E+04  0.25500000000E-02 0.  1.
          2   -1    0    0  501    0  0.00000000000E+00 -0.00000000000E+00 -0.27293680912E+04  0.27293680912E+04  0.25500000000E-02 0. -1.
    8880022    1    1    2    0    0  0.48054915066E+03  0.10713300814E+04 -0.24442363601E+04  0.27159452620E+04  0.15294330000E+03 0.  0.
    8880022    1    1    2    0    0 -0.48054915066E+03 -0.10713300814E+04  0.21988149429E+04  0.24973695032E+04  0.15294330000E+03 0.  0.
<mgrwt>
<rscale>  0 0.11840892E+04</rscale>
<asrwt>0</asrwt>
<pdfrwt beam="1">  1        2 0.41990278E+00 0.11840892E+04</pdfrwt>
<pdfrwt beam="2">  1       -2 0.38214564E+00 0.11840892E+04</pdfrwt>
<totfact> 0.24595284E-02</totfact>
</mgrwt>
</event>
<event>
 4    1  0.5387657E-008  0.4884168E+03  0.7818608E-02  0.1016847E+00
          2   -1    0    0  501    0  0.00000000000E+00  0.00000000000E+00  0.22463129547E+04  0.22463129547E+04  0.25500000000E-02 0. -1.
         -2   -1    0    0    0  501 -0.00000000000E+00 -0.00000000000E+00 -0.55653556726E+03  0.55653556726E+03  0.25500000000E-02 0.  1.
    8880022    1    1    2    0    0 -0.41662539187E+03  0.20391810644E+03  0.21055339602E+04  0.21614403119E+04  0.15294330000E+03 0.  0.
    8880022    1    1    2    0    0  0.41662539187E+03 -0.20391810644E+03 -0.41575657269E+03  0.64140821014E+03  0.15294330000E+03 0.  0.
<mgrwt>
<rscale>  0 0.48841679E+03</rscale>
<asrwt>0</asrwt>
<pdfrwt beam="1">  1        2 0.34558660E+00 0.48841679E+03</pdfrwt>
<pdfrwt beam="2">  1       -2 0.85620858E-01 0.48841679E+03</pdfrwt>
<totfact> 0.63452316E+00</totfact>
</mgrwt>
</event>
<event>
 4    1  0.5387657E-008  0.3879014E+03  0.7818608E-02  0.1048051E+00
          2   -1    0    0  501    0  0.00000000000E+00  0.00000000000E+00  0.23130982475E+04  0.23130982475E+04  0.25500000000E-02 0. -1.
         -2   -1    0    0    0  501 -0.00000000000E+00 -0.00000000000E+00 -0.21107217456E+03  0.21107217458E+03  0.25500000000E-02 0.  1.
    8880022    1    1    2    0    0 -0.49838019426E+02  0.35297593570E+03  0.21007543780E+04  0.21362669424E+04  0.15294330000E+03 0.  0.
    8880022    1    1    2    0    0  0.49838019426E+02 -0.35297593570E+03  0.12716949585E+01  0.38790347973E+03  0.15294330000E+03 0.  0.
<mgrwt>
<rscale>  0 0.38790140E+03</rscale>
<asrwt>0</asrwt>
<pdfrwt beam="1">  1        2 0.35586128E+00 0.38790140E+03</pdfrwt>
<pdfrwt beam="2">  1       -2 0.32472641E-01 0.38790140E+03</pdfrwt>
<totfact> 0.43648421E+01</totfact>
</mgrwt>
</event>
<event>
 4    1  0.5387657E-008  0.1233657E+04  0.7818608E-02  0.9083897E-01
         -2   -1    0    0    0  501 -0.00000000000E+00  0.00000000000E+00  0.18217895729E+04  0.18217895729E+04  0.25500000000E-02 0.  1.
          2   -1    0    0  501    0  0.00000000000E+00 -0.00000000000E+00 -0.13201861064E+04  0.13201861064E+04  0.25500000000E-02 0. -1.
    8880022    1    1    2    0    0 -0.52552098318E+03 -0.11055970257E+04 -0.70119144227E+03  0.14190060531E+04  0.15294330000E+03 0.  0.
    8880022    1    1    2    0    0  0.52552098318E+03  0.11055970257E+04  0.12027949088E+04  0.17229696262E+04  0.15294330000E+03 0.  0.
<mgrwt>
<rscale>  0 0.12336567E+04</rscale>
<asrwt>0</asrwt>
<pdfrwt beam="1">  1        2 0.20310556E+00 0.12336567E+04</pdfrwt>
<pdfrwt beam="2">  1       -2 0.28027532E+00 0.12336567E+04</pdfrwt>
<totfact> 0.65489394E-01</totfact>
</mgrwt>
</event>
<event>
 4    1  0.5387657E-008  0.2764209E+03  0.7818608E-02  0.1097660E+00
          2   -1    0    0  501    0  0.00000000000E+00  0.00000000000E+00  0.11922420246E+04  0.11922420246E+04  0.25500000000E-02 0. -1.
         -2   -1    0    0    0  501 -0.00000000000E+00 -0.00000000000E+00 -0.28525122718E+03  0.28525122719E+03  0.25500000000E-02 0.  1.
    8880022    1    1    2    0    0  0.21366722777E+03  0.85808940635E+02  0.11039816513E+04  0.11380615089E+04  0.15294330000E+03 0.  0.
    8880022    1    1    2    0    0 -0.21366722777E+03 -0.85808940635E+02 -0.19699085395E+03  0.33943174288E+03  0.15294330000E+03 0.  1.
<mgrwt>
<rscale>  0 0.27642090E+03</rscale>
<asrwt>0</asrwt>
<pdfrwt beam="1">  1        2 0.18342185E+00 0.27642090E+03</pdfrwt>
<pdfrwt beam="2">  1       -2 0.43884804E-01 0.27642090E+03</pdfrwt>
<totfact> 0.10164219E+02</totfact>
</mgrwt>
</event>
<event>
 4    1  0.5387657E-008  0.3511381E+03  0.7818608E-02  0.1062149E+00
         -2   -1    0    0    0  501 -0.00000000000E+00  0.00000000000E+00  0.10466169977E+04  0.10466169977E+04  0.25500000000E-02 0.  1.
          2   -1    0    0  501    0  0.00000000000E+00 -0.00000000000E+00 -0.34086414864E+03  0.34086414865E+03  0.25500000000E-02 0. -1.
    8880022    1    1    2    0    0 -0.31508920989E+03 -0.25002000644E+02 -0.20832051190E+03  0.40828347863E+03  0.15294330000E+03 0. -1.
    8880022    1    1    2    0    0  0.31508920989E+03  0.25002000644E+02  0.91407336092E+03  0.97919766768E+03  0.15294330000E+03 0.  0.
<mgrwt>
<rscale>  0 0.35113810E+03</rscale>
<asrwt>0</asrwt>
<pdfrwt beam="1">  1        2 0.52440639E-01 0.35113810E+03</pdfrwt>
<pdfrwt beam="2">  1       -2 0.16101800E+00 0.35113810E+03</pdfrwt>
<totfact> 0.24940871E+01</totfact>
</mgrwt>
</event>
<event>
 4    1  0.5387657E-008  0.3324998E+03  0.7818608E-02  0.1070036E+00
          2   -1    0    0  501    0  0.00000000000E+00  0.00000000000E+00  0.19768158908E+04  0.19768158908E+04  0.25500000000E-02 0. -1.
         -2   -1    0    0    0  501 -0.00000000000E+00 -0.00000000000E+00 -0.38518661428E+03  0.38518661428E+03  0.25500000000E-02 0.  1.
    8880022    1    1    2    0    0  0.24963416568E+03  0.15763008344E+03 -0.29608927146E+03  0.44522462821E+03  0.15294330000E+03 0.  0.
    8880022    1    1    2    0    0 -0.24963416568E+03 -0.15763008344E+03  0.18877185480E+04  0.19167778769E+04  0.15294330000E+03 0.  0.
<mgrwt>
<rscale>  0 0.33249979E+03</rscale>
<asrwt>0</asrwt>
<pdfrwt beam="1">  1        2 0.30412552E+00 0.33249979E+03</pdfrwt>
<pdfrwt beam="2">  1       -2 0.59259479E-01 0.33249979E+03</pdfrwt>
<totfact> 0.20615638E+01</totfact>
</mgrwt>
</event>
<event>
 4    1  0.5387657E-008  0.3937194E+03  0.7818608E-02  0.1045976E+00
         -2   -1    0    0    0  501 -0.00000000000E+00  0.00000000000E+00  0.19454373190E+03  0.19454373191E+03  0.25500000000E-02 0.  1.
          2   -1    0    0  501    0  0.00000000000E+00 -0.00000000000E+00 -0.12180998923E+04  0.12180998923E+04  0.25500000000E-02 0. -1.
    8880022    1    1    2    0    0 -0.27939300321E+03 -0.23143649412E+03 -0.92716249102E+03  0.10072960036E+04  0.15294330000E+03 0.  0.
    8880022    1    1    2    0    0  0.27939300321E+03  0.23143649412E+03 -0.96393669397E+02  0.40534762065E+03  0.15294330000E+03 0.  0.
<mgrwt>
<rscale>  0 0.39371938E+03</rscale>
<asrwt>0</asrwt>
<pdfrwt beam="1">  1        2 0.18739998E+00 0.39371938E+03</pdfrwt>
<pdfrwt beam="2">  1       -2 0.29929806E-01 0.39371938E+03</pdfrwt>
<totfact> 0.19873205E+02</totfact>
</mgrwt>
</event>
<event>
 4    1  0.5387657E-008  0.4139992E+03  0.7818608E-02  0.1039037E+00
         -2   -1    0    0    0  501 -0.00000000000E+00  0.00000000000E+00  0.66861429962E+03  0.66861429963E+03  0.25500000000E-02 0.  1.
          2   -1    0    0  501    0  0.00000000000E+00 -0.00000000000E+00 -0.11362783407E+04  0.11362783407E+04  0.25500000000E-02 0. -1.
    8880022    1    1    2    0    0  0.27509925953E+03  0.26893139700E+03  0.56032085954E+03  0.69667411143E+03  0.15294330000E+03 0.  0.
    8880022    1    1    2    0    0 -0.27509925953E+03 -0.26893139700E+03 -0.10279849006E+04  0.11082185289E+04  0.15294330000E+03 0.  0.
<mgrwt>
<rscale>  0 0.41399922E+03</rscale>
<asrwt>0</asrwt>
<pdfrwt beam="1">  1        2 0.17481205E+00 0.41399922E+03</pdfrwt>
<pdfrwt beam="2">  1       -2 0.10286374E+00 0.41399922E+03</pdfrwt>
<totfact> 0.17128354E+01</totfact>
</mgrwt>
</event>
<event>
 4    1  0.5387657E-008  0.4901572E+03  0.7818608E-02  0.1016380E+00
         -2   -1    0    0    0  501 -0.00000000000E+00  0.00000000000E+00  0.43955513836E+03  0.43955513836E+03  0.25500000000E-02 0.  1.
          2   -1    0    0  501    0  0.00000000000E+00 -0.00000000000E+00 -0.99997376932E+03  0.99997376933E+03  0.25500000000E-02 0. -1.
    8880022    1    1    2    0    0  0.41126250684E+03  0.21846179568E+03  0.20444454146E+03  0.53108533142E+03  0.15294330000E+03 0.  0.
    8880022    1    1    2    0    0 -0.41126250684E+03 -0.21846179568E+03 -0.76486317243E+03  0.90844357627E+03  0.15294330000E+03 0.  0.
<mgrwt>
<rscale>  0 0.49015718E+03</rscale>
<asrwt>0</asrwt>
<pdfrwt beam="1">  1        2 0.15384212E+00 0.49015718E+03</pdfrwt>
<pdfrwt beam="2">  1       -2 0.67623868E-01 0.49015718E+03</pdfrwt>
<totfact> 0.52693814E+01</totfact>
</mgrwt>
</event>
<event>
 4    1  0.5387657E-008  0.9258602E+03  0.7818608E-02  0.9393820E-01
         -2   -1    0    0    0  501 -0.00000000000E+00  0.00000000000E+00  0.80867706524E+03  0.80867706525E+03  0.25500000000E-02 0.  1.
          2   -1    0    0  501    0  0.00000000000E+00 -0.00000000000E+00 -0.15284522330E+04  0.15284522330E+04  0.25500000000E-02 0. -1.
    8880022    1    1    2    0    0  0.47952667643E+03  0.77709693489E+03  0.28702905277E+03  0.96933111462E+03  0.15294330000E+03 0.  0.
    8880022    1    1    2    0    0 -0.47952667643E+03 -0.77709693489E+03 -0.10068042205E+04  0.13677981836E+04  0.15294330000E+03 0.  0.
<mgrwt>
<rscale>  0 0.92586021E+03</rscale>
<asrwt>0</asrwt>
<pdfrwt beam="1">  1        2 0.23514650E+00 0.92586021E+03</pdfrwt>
<pdfrwt beam="2">  1       -2 0.12441186E+00 0.92586021E+03</pdfrwt>
<totfact> 0.59493497E+00</totfact>
</mgrwt>
</event>
<event>
 4    1  0.5387657E-008  0.9123414E+03  0.7818608E-02  0.9410284E-01
          2   -1    0    0  501    0  0.00000000000E+00  0.00000000000E+00  0.15628720190E+04  0.15628720190E+04  0.25500000000E-02 0. -1.
         -2   -1    0    0    0  501 -0.00000000000E+00 -0.00000000000E+00 -0.11081334423E+04  0.11081334423E+04  0.25500000000E-02 0.  1.
    8880022    1    1    2    0    0 -0.86123258641E+03 -0.25933307913E+03  0.11898423056E+04  0.14993637247E+04  0.15294330000E+03 0.  0.
    8880022    1    1    2    0    0  0.86123258641E+03  0.25933307913E+03 -0.73510372885E+03  0.11716417366E+04  0.15294330000E+03 0.  0.
<mgrwt>
<rscale>  0 0.91234142E+03</rscale>
<asrwt>0</asrwt>
<pdfrwt beam="1">  1        2 0.24044185E+00 0.91234142E+03</pdfrwt>
<pdfrwt beam="2">  1       -2 0.17048207E+00 0.91234142E+03</pdfrwt>
<totfact> 0.24851811E+00</totfact>
</mgrwt>
</event>
<event>
 4    1  0.5387657E-008  0.1054160E+04  0.7818608E-02  0.9251060E-01
         -2   -1    0    0    0  501 -0.00000000000E+00  0.00000000000E+00  0.17454995135E+04  0.17454995135E+04  0.25500000000E-02 0.  1.
          2   -1    0    0  501    0  0.00000000000E+00 -0.00000000000E+00 -0.11869787089E+04  0.11869787089E+04  0.25500000000E-02 0. -1.
    8880022    1    1    2    0    0  0.49620482565E+03 -0.91741038157E+03 -0.71912643109E+03  0.12760860136E+04  0.15294330000E+03 0.  0.
    8880022    1    1    2    0    0 -0.49620482565E+03  0.91741038157E+03  0.12776472357E+04  0.16563922087E+04  0.15294330000E+03 0.  0.
<mgrwt>
<rscale>  0 0.10541597E+04</rscale>
<asrwt>0</asrwt>
<pdfrwt beam="1">  1        2 0.18261211E+00 0.10541597E+04</pdfrwt>
<pdfrwt beam="2">  1       -2 0.26853839E+00 0.10541597E+04</pdfrwt>
<totfact> 0.94630624E-01</totfact>
</mgrwt>
</event>
<event>
 4    1  0.5387657E-008  0.1095683E+04  0.7818608E-02  0.9209409E-01
         -2   -1    0    0    0  501 -0.00000000000E+00  0.00000000000E+00  0.17985364131E+04  0.17985364131E+04  0.25500000000E-02 0.  1.
          2   -1    0    0  501    0  0.00000000000E+00 -0.00000000000E+00 -0.98439284460E+03  0.98439284461E+03  0.25500000000E-02 0. -1.
    8880022    1    1    2    0    0 -0.42799646941E+03  0.99697022906E+03 -0.38241427084E+03  0.11605011603E+04  0.15294330000E+03 0.  0.
    8880022    1    1    2    0    0  0.42799646941E+03 -0.99697022906E+03  0.11965578394E+04  0.16224280974E+04  0.15294330000E+03 0.  0.
<mgrwt>
<rscale>  0 0.10956835E+04</rscale>
<asrwt>0</asrwt>
<pdfrwt beam="1">  1        2 0.15144505E+00 0.10956835E+04</pdfrwt>
<pdfrwt beam="2">  1       -2 0.27669791E+00 0.10956835E+04</pdfrwt>
<totfact> 0.11238251E+00</totfact>
</mgrwt>
</event>
<event>
 4    1  0.5387657E-008  0.3927714E+03  0.7818608E-02  0.1046312E+00
          2   -1    0    0  501    0  0.00000000000E+00  0.00000000000E+00  0.12006673471E+04  0.12006673471E+04  0.25500000000E-02 0. -1.
         -2   -1    0    0    0  501 -0.00000000000E+00 -0.00000000000E+00 -0.57637772874E+03  0.57637772875E+03  0.25500000000E-02 0.  1.
    8880022    1    1    2    0    0 -0.60900704126E+02  0.35660736430E+03  0.10953962561E+04  0.11636848022E+04  0.15294330000E+03 0.  0.
    8880022    1    1    2    0    0  0.60900704126E+02 -0.35660736430E+03 -0.47110663779E+03  0.61336027359E+03  0.15294330000E+03 0.  0.
<mgrwt>
<rscale>  0 0.39277139E+03</rscale>
<asrwt>0</asrwt>
<pdfrwt beam="1">  1        2 0.18471805E+00 0.39277139E+03</pdfrwt>
<pdfrwt beam="2">  1       -2 0.88673497E-01 0.39277139E+03</pdfrwt>
<totfact> 0.22262800E+01</totfact>
</mgrwt>
</event>
<event>
 4    1  0.5387657E-008  0.2742141E+03  0.7818608E-02  0.1098892E+00
         -2   -1    0    0    0  501 -0.00000000000E+00  0.00000000000E+00  0.10609536560E+03  0.10609536563E+03  0.25500000000E-02 0.  1.
          2   -1    0    0  501    0  0.00000000000E+00 -0.00000000000E+00 -0.22352404855E+04  0.22352404855E+04  0.25500000000E-02 0. -1.
    8880022    1    1    2    0    0  0.20820677828E+03  0.91933003524E+02 -0.20320056084E+04  0.20504243915E+04  0.15294330000E+03 0.  0.
    8880022    1    1    2    0    0 -0.20820677828E+03 -0.91933003524E+02 -0.97139511540E+02  0.29091145968E+03  0.15294330000E+03 0.  0.
<mgrwt>
<rscale>  0 0.27421414E+03</rscale>
<asrwt>0</asrwt>
<pdfrwt beam="1">  1        2 0.34388312E+00 0.27421414E+03</pdfrwt>
<pdfrwt beam="2">  1       -2 0.16322366E-01 0.27421414E+03</pdfrwt>
<totfact> 0.16643087E+02</totfact>
</mgrwt>
</event>
<event>
 4    1  0.5387657E-008  0.4134881E+03  0.7818608E-02  0.1039207E+00
          2   -1    0    0  501    0  0.00000000000E+00  0.00000000000E+00  0.28323879109E+04  0.28323879109E+04  0.25500000000E-02 0. -1.
         -2   -1    0    0    0  501 -0.00000000000E+00 -0.00000000000E+00 -0.16755921697E+03  0.16755921699E+03  0.25500000000E-02 0.  1.
    8880022    1    1    2    0    0  0.98864657095E+01 -0.38403512167E+03  0.13267058014E+03  0.43425090988E+03  0.15294330000E+03 0.  0.
    8880022    1    1    2    0    0 -0.98864657095E+01  0.38403512167E+03  0.25321581138E+04  0.25656962180E+04  0.15294330000E+03 0.  0.
<mgrwt>
<rscale>  0 0.41348805E+03</rscale>
<asrwt>0</asrwt>
<pdfrwt beam="1">  1        2 0.43575201E+00 0.41348805E+03</pdfrwt>
<pdfrwt beam="2">  1       -2 0.25778339E-01 0.41348805E+03</pdfrwt>
<totfact> 0.33751232E+01</totfact>
</mgrwt>
</event>
<event>
 4    1  0.5387657E-008  0.4426705E+03  0.7818608E-02  0.1029931E+00
         -2   -1    0    0    0  501 -0.00000000000E+00  0.00000000000E+00  0.17232329916E+03  0.17232329918E+03  0.25500000000E-02 0.  1.
          2   -1    0    0  501    0  0.00000000000E+00 -0.00000000000E+00 -0.15053396041E+04  0.15053396041E+04  0.25500000000E-02 0. -1.
    8880022    1    1    2    0    0  0.24662029977E+03 -0.33428120742E+03 -0.25165517528E+03  0.50920278687E+03  0.15294330000E+03 0.  0.
    8880022    1    1    2    0    0 -0.24662029977E+03  0.33428120742E+03 -0.10813611297E+04  0.11684601164E+04  0.15294330000E+03 0.  0.
<mgrwt>
<rscale>  0 0.44267048E+03</rscale>
<asrwt>0</asrwt>
<pdfrwt beam="1">  1        2 0.23159070E+00 0.44267048E+03</pdfrwt>
<pdfrwt beam="2">  1       -2 0.26511278E-01 0.44267048E+03</pdfrwt>
<totfact> 0.17018264E+02</totfact>
</mgrwt>
</event>
<event>
 4    1  0.5387657E-008  0.1593738E+03  0.7818608E-02  0.1189406E+00
          2   -1    0    0  501    0  0.00000000000E+00  0.00000000000E+00  0.14915424902E+04  0.14915424902E+04  0.25500000000E-02 0. -1.
         -2   -1    0    0    0  501 -0.00000000000E+00 -0.00000000000E+00 -0.91826864621E+02  0.91826864656E+02  0.25500000000E-02 0.  1.
    8880022    1    1    2    0    0  0.41323773852E+02 -0.17340948650E+02  0.14143720927E+04  0.14233230246E+04  0.15294330000E+03 0.  0.
    8880022    1    1    2    0    0 -0.41323773852E+02  0.17340948650E+02 -0.14656467105E+02  0.16004633026E+03  0.15294330000E+03 0.  1.
<mgrwt>
<rscale>  0 0.15937382E+03</rscale>
<asrwt>0</asrwt>
<pdfrwt beam="1">  1        2 0.22946807E+00 0.15937382E+03</pdfrwt>
<pdfrwt beam="2">  1       -2 0.14127210E-01 0.15937382E+03</pdfrwt>
<totfact> 0.53300646E+02</totfact>
</mgrwt>
</event>
<event>
 4    1  0.5387657E-008  0.5305028E+03  0.7818608E-02  0.1006110E+00
         -2   -1    0    0    0  501 -0.00000000000E+00  0.00000000000E+00  0.21757192911E+03  0.21757192912E+03  0.25500000000E-02 0.  1.
          2   -1    0    0  501    0  0.00000000000E+00 -0.00000000000E+00 -0.14757441456E+04  0.14757441456E+04  0.25500000000E-02 0. -1.
    8880022    1    1    2    0    0  0.16664265225E+03  0.47986644008E+03 -0.33157188383E+03  0.62559822652E+03  0.15294330000E+03 0.  0.
    8880022    1    1    2    0    0 -0.16664265225E+03 -0.47986644008E+03 -0.92660033265E+03  0.10677178482E+04  0.15294330000E+03 0.  0.
<mgrwt>
<rscale>  0 0.53050281E+03</rscale>
<asrwt>0</asrwt>
<pdfrwt beam="1">  1        2 0.22703755E+00 0.53050281E+03</pdfrwt>
<pdfrwt beam="2">  1       -2 0.33472605E-01 0.53050281E+03</pdfrwt>
<totfact> 0.11372689E+02</totfact>
</mgrwt>
</event>
<event>
 4    1  0.5387657E-008  0.1052377E+04  0.7818608E-02  0.9252894E-01
          2   -1    0    0  501    0  0.00000000000E+00  0.00000000000E+00  0.14446946685E+04  0.14446946685E+04  0.25500000000E-02 0. -1.
         -2   -1    0    0    0  501 -0.00000000000E+00 -0.00000000000E+00 -0.16795155982E+04  0.16795155982E+04  0.25500000000E-02 0.  1.
    8880022    1    1    2    0    0  0.79223290832E+03 -0.67562694666E+03  0.10342769665E+04  0.14755423574E+04  0.15294330000E+03 0.  0.
    8880022    1    1    2    0    0 -0.79223290832E+03  0.67562694666E+03 -0.12690978961E+04  0.16486679093E+04  0.15294330000E+03 0.  0.
<mgrwt>
<rscale>  0 0.10523766E+04</rscale>
<asrwt>0</asrwt>
<pdfrwt beam="1">  1        2 0.22226072E+00 0.10523766E+04</pdfrwt>
<pdfrwt beam="2">  1       -2 0.25838702E+00 0.10523766E+04</pdfrwt>
<totfact> 0.77204128E-01</totfact>
</mgrwt>
</event>
<event>
 4    1  0.5387657E-008  0.3974608E+03  0.7818608E-02  0.1044662E+00
          2   -1    0    0  501    0  0.00000000000E+00  0.00000000000E+00  0.10247277057E+04  0.10247277057E+04  0.25500000000E-02 0. -1.
         -2   -1    0    0    0  501 -0.00000000000E+00 -0.00000000000E+00 -0.25531359863E+03  0.25531359864E+03  0.25500000000E-02 0.  1.
    8880022    1    1    2    0    0 -0.79226997117E+02  0.35819893651E+03 -0.18141070928E+02  0.39787453633E+03  0.15294330000E+03 0.  0.
    8880022    1    1    2    0    0  0.79226997117E+02 -0.35819893651E+03  0.78755517803E+03  0.88216676805E+03  0.15294330000E+03 0.  0.
<mgrwt>
<rscale>  0 0.39746075E+03</rscale>
<asrwt>0</asrwt>
<pdfrwt beam="1">  1        2 0.15765042E+00 0.39746075E+03</pdfrwt>
<pdfrwt beam="2">  1       -2 0.39279015E-01 0.39746075E+03</pdfrwt>
<totfact> 0.15532975E+02</totfact>
</mgrwt>
</event>
<event>
 4    1  0.5392483E-008  0.8176556E+03  0.7818608E-02  0.9534807E-01
          2   -1    0    0  501    0  0.00000000000E+00  0.00000000000E+00  0.13978375945E+04  0.13978375945E+04  0.25500000000E-02 0. -1.
         -2   -1    0    0    0  501 -0.00000000000E+00 -0.00000000000E+00 -0.11638120887E+04  0.11638120887E+04  0.25500000000E-02 0.  1.
    8880022    1    1    2    0    0 -0.60271074156E+03  0.53095080475E+03 -0.86600542960E+03  0.11910189134E+04  0.15294330000E+03 0.  0.
    8880022    1    1    2    0    0  0.60271074156E+03 -0.53095080475E+03  0.11000309355E+04  0.13706307698E+04  0.15294330000E+03 0.  0.
<mgrwt>
<rscale>  0 0.81765558E+03</rscale>
<asrwt>0</asrwt>
<pdfrwt beam="1">  1        2 0.21505194E+00 0.81765558E+03</pdfrwt>
<pdfrwt beam="2">  1       -2 0.17904801E+00 0.81765558E+03</pdfrwt>
<totfact> 0.27163096E+00</totfact>
</mgrwt>
</event>
<event>
 4    1  0.5387657E-008  0.4364796E+03  0.7818608E-02  0.1031832E+00
         -2   -1    0    0    0  501 -0.00000000000E+00  0.00000000000E+00  0.16746097698E+03  0.16746097700E+03  0.25500000000E-02 0.  1.
          2   -1    0    0  501    0  0.00000000000E+00 -0.00000000000E+00 -0.32406840227E+04  0.32406840227E+04  0.25500000000E-02 0. -1.
    8880022    1    1    2    0    0  0.23919013829E+03  0.33152806242E+03 -0.16386180842E+03  0.46622432766E+03  0.15294330000E+03 0.  0.
    8880022    1    1    2    0    0 -0.23919013829E+03 -0.33152806242E+03 -0.29093612373E+04  0.29419206720E+04  0.15294330000E+03 0.  0.
<mgrwt>
<rscale>  0 0.43647959E+03</rscale>
<asrwt>0</asrwt>
<pdfrwt beam="1">  1        2 0.49856673E+00 0.43647959E+03</pdfrwt>
<pdfrwt beam="2">  1       -2 0.25763230E-01 0.43647959E+03</pdfrwt>
<totfact> 0.18978723E+01</totfact>
</mgrwt>
</event>
<event>
 4    1  0.5387657E-008  0.9811857E+03  0.7818608E-02  0.9329424E-01
         -2   -1    0    0    0  501 -0.00000000000E+00  0.00000000000E+00  0.69028466381E+03  0.69028466381E+03  0.25500000000E-02 0.  1.
          2   -1    0    0  501    0  0.00000000000E+00 -0.00000000000E+00 -0.14118384100E+04  0.14118384100E+04  0.25500000000E-02 0. -1.
    8880022    1    1    2    0    0 -0.80392357255E+03  0.54133224253E+03 -0.24490184969E+03  0.10112874351E+04  0.15294330000E+03 0.  0.
    8880022    1    1    2    0    0  0.80392357255E+03 -0.54133224253E+03 -0.47665189646E+03  0.10908356387E+04  0.15294330000E+03 0.  0.
<mgrwt>
<rscale>  0 0.98118569E+03</rscale>
<asrwt>0</asrwt>
<pdfrwt beam="1">  1        2 0.21720591E+00 0.98118569E+03</pdfrwt>
<pdfrwt beam="2">  1       -2 0.10619764E+00 0.98118569E+03</pdfrwt>
<totfact> 0.10153258E+01</totfact>
</mgrwt>
</event>
<event>
 4    1  0.5387657E-008  0.3709748E+03  0.7818608E-02  0.1054321E+00
          2   -1    0    0  501    0  0.00000000000E+00  0.00000000000E+00  0.71055735838E+03  0.71055735838E+03  0.25500000000E-02 0. -1.
         -2   -1    0    0    0  501 -0.00000000000E+00 -0.00000000000E+00 -0.76859807640E+03  0.76859807640E+03  0.25500000000E-02 0.  1.
    8880022    1    1    2    0    0  0.68116090674E+02  0.33104509043E+03  0.61062068769E+03  0.71447878272E+03  0.15294330000E+03 0.  0.
    8880022    1    1    2    0    0 -0.68116090674E+02 -0.33104509043E+03 -0.66866140571E+03  0.76467665206E+03  0.15294330000E+03 0.  0.
<mgrwt>
<rscale>  0 0.37097481E+03</rscale>
<asrwt>0</asrwt>
<pdfrwt beam="1">  1        2 0.10931652E+00 0.37097481E+03</pdfrwt>
<pdfrwt beam="2">  1       -2 0.11824586E+00 0.37097481E+03</pdfrwt>
<totfact> 0.23556817E+01</totfact>
</mgrwt>
</event>
<event>
 4    1  0.5387657E-008  0.6281083E+03  0.7818608E-02  0.9848747E-01
         -2   -1    0    0    0  501 -0.00000000000E+00  0.00000000000E+00  0.47479110643E+03  0.47479110644E+03  0.25500000000E-02 0.  1.
          2   -1    0    0  501    0  0.00000000000E+00 -0.00000000000E+00 -0.11664521399E+04  0.11664521399E+04  0.25500000000E-02 0. -1.
    8880022    1    1    2    0    0  0.58636396068E+03 -0.16524449427E+03  0.94285804009E+02  0.63514557632E+03  0.15294330000E+03 0.  0.
    8880022    1    1    2    0    0 -0.58636396068E+03  0.16524449427E+03 -0.78594683750E+03  0.10060976700E+04  0.15294330000E+03 0.  0.
<mgrwt>
<rscale>  0 0.62810834E+03</rscale>
<asrwt>0</asrwt>
<pdfrwt beam="1">  1        2 0.17945417E+00 0.62810834E+03</pdfrwt>
<pdfrwt beam="2">  1       -2 0.73044786E-01 0.62810834E+03</pdfrwt>
<totfact> 0.34656636E+01</totfact>
</mgrwt>
</event>
<event>
 4    1  0.5387657E-008  0.2460778E+03  0.7818608E-02  0.1115809E+00
          2   -1    0    0  501    0  0.00000000000E+00  0.00000000000E+00  0.10396299997E+04  0.10396299997E+04  0.25500000000E-02 0. -1.
         -2   -1    0    0    0  501 -0.00000000000E+00 -0.00000000000E+00 -0.59413280466E+02  0.59413280521E+02  0.25500000000E-02 0.  1.
    8880022    1    1    2    0    0 -0.16178635054E+03  0.10482262668E+03  0.41308260605E+03  0.48082377096E+03  0.15294330000E+03 0. -1.
    8880022    1    1    2    0    0  0.16178635054E+03 -0.10482262668E+03  0.56713411321E+03  0.61821950929E+03  0.15294330000E+03 0.  0.
<mgrwt>
<rscale>  0 0.24607775E+03</rscale>
<asrwt>0</asrwt>
<pdfrwt beam="1">  1        2 0.15994306E+00 0.24607775E+03</pdfrwt>
<pdfrwt beam="2">  1       -2 0.91405054E-02 0.24607775E+03</pdfrwt>
<totfact> 0.19000682E+03</totfact>
</mgrwt>
</event>
<event>
 4    1  0.5387657E-008  0.6137327E+03  0.7818608E-02  0.9877318E-01
          2   -1    0    0  501    0  0.00000000000E+00  0.00000000000E+00  0.48552342602E+03  0.48552342603E+03  0.25500000000E-02 0. -1.
         -2   -1    0    0    0  501 -0.00000000000E+00 -0.00000000000E+00 -0.20361996228E+04  0.20361996228E+04  0.25500000000E-02 0.  1.
    8880022    1    1    2    0    0 -0.48309449413E+03 -0.34625990313E+03 -0.17673383393E+04  0.18708694955E+04  0.15294330000E+03 0.  0.
    8880022    1    1    2    0    0  0.48309449413E+03  0.34625990313E+03  0.21666214255E+03  0.65085355327E+03  0.15294330000E+03 0.  0.
<mgrwt>
<rscale>  0 0.61373273E+03</rscale>
<asrwt>0</asrwt>
<pdfrwt beam="1">  1        2 0.74695913E-01 0.61373273E+03</pdfrwt>
<pdfrwt beam="2">  1       -2 0.31326147E+00 0.61373273E+03</pdfrwt>
<totfact> 0.17974488E+00</totfact>
</mgrwt>
</event>
<event>
 4    1  0.5387657E-008  0.2108359E+03  0.7818608E-02  0.1140906E+00
          2   -1    0    0  501    0  0.00000000000E+00  0.00000000000E+00  0.20948120719E+03  0.20948120720E+03  0.25500000000E-02 0. -1.
         -2   -1    0    0    0  501 -0.00000000000E+00 -0.00000000000E+00 -0.95986615957E+03  0.95986615957E+03  0.25500000000E-02 0.  1.
    8880022    1    1    2    0    0 -0.67000447595E+02  0.12872857116E+03 -0.89120742339E+03  0.91580698268E+03  0.15294330000E+03 0.  0.
    8880022    1    1    2    0    0  0.67000447595E+02 -0.12872857116E+03  0.14082247101E+03  0.25354038410E+03  0.15294330000E+03 0.  0.
<mgrwt>
<rscale>  0 0.21083586E+03</rscale>
<asrwt>0</asrwt>
<pdfrwt beam="1">  1        2 0.32227879E-01 0.21083586E+03</pdfrwt>
<pdfrwt beam="2">  1       -2 0.14767171E+00 0.21083586E+03</pdfrwt>
<totfact> 0.54349094E+01</totfact>
</mgrwt>
</event>
<event>
 4    1  0.7185970E-008  0.7688411E+03  0.7818608E-02  0.9606247E-01
          2   -1    0    0  501    0  0.00000000000E+00  0.00000000000E+00  0.40859995871E+04  0.40859995871E+04  0.25500000000E-02 0. -1.
         -2   -1    0    0    0  501 -0.00000000000E+00 -0.00000000000E+00 -0.93269066796E+03  0.93269066797E+03  0.25500000000E-02 0.  1.
    8880022    1    1    2    0    0  0.39520333817E+03  0.64151325143E+03  0.38831930278E+04  0.39585735656E+04  0.15294330000E+03 0.  0.
    8880022    1    1    2    0    0 -0.39520333817E+03 -0.64151325143E+03 -0.72988410863E+03  0.10601166895E+04  0.15294330000E+03 0.  0.
<mgrwt>
<rscale>  0 0.76884107E+03</rscale>
<asrwt>0</asrwt>
<pdfrwt beam="1">  1        2 0.62861533E+00 0.76884107E+03</pdfrwt>
<pdfrwt beam="2">  1       -2 0.14349087E+00 0.76884107E+03</pdfrwt>
<totfact> 0.10915393E-01</totfact>
</mgrwt>
</event>
<event>
 4    1  0.5387657E-008  0.2694535E+03  0.7818608E-02  0.1101593E+00
          2   -1    0    0  501    0  0.00000000000E+00  0.00000000000E+00  0.10799173257E+04  0.10799173257E+04  0.25500000000E-02 0. -1.
         -2   -1    0    0    0  501 -0.00000000000E+00 -0.00000000000E+00 -0.18655426280E+03  0.18655426282E+03  0.25500000000E-02 0.  1.
    8880022    1    1    2    0    0 -0.21724896970E+03  0.44904745640E+02  0.95311601141E+03  0.99047227888E+03  0.15294330000E+03 0.  0.
    8880022    1    1    2    0    0  0.21724896970E+03 -0.44904745640E+02 -0.59752948560E+02  0.27599930959E+03  0.15294330000E+03 0.  0.
<mgrwt>
<rscale>  0 0.26945353E+03</rscale>
<asrwt>0</asrwt>
<pdfrwt beam="1">  1        2 0.16614112E+00 0.26945353E+03</pdfrwt>
<pdfrwt beam="2">  1       -2 0.28700657E-01 0.26945353E+03</pdfrwt>
<totfact> 0.26264287E+02</totfact>
</mgrwt>
</event>
<event>
 4    1  0.5387657E-008  0.1379976E+04  0.7818608E-02  0.8968442E-01
          2   -1    0    0  501    0  0.00000000000E+00  0.00000000000E+00  0.28999972461E+04  0.28999972461E+04  0.25500000000E-02 0. -1.
         -2   -1    0    0    0  501 -0.00000000000E+00 -0.00000000000E+00 -0.88416958692E+03  0.88416958692E+03  0.25500000000E-02 0.  1.
    8880022    1    1    2    0    0 -0.56919543976E+03  0.12477814022E+04  0.19676797422E+04  0.24033512222E+04  0.15294330000E+03 0.  0.
    8880022    1    1    2    0    0  0.56919543976E+03 -0.12477814022E+04  0.48147917039E+02  0.13808156109E+04  0.15294330000E+03 0.  0.
<mgrwt>
<rscale>  0 0.13799759E+04</rscale>
<asrwt>0</asrwt>
<pdfrwt beam="1">  1        2 0.44615343E+00 0.13799759E+04</pdfrwt>
<pdfrwt beam="2">  1       -2 0.13602609E+00 0.13799759E+04</pdfrwt>
<totfact> 0.74798258E-01</totfact>
</mgrwt>
</event>
<event>
 4    1  0.5387657E-008  0.5864075E+03  0.7818608E-02  0.9934014E-01
         -2   -1    0    0    0  501 -0.00000000000E+00  0.00000000000E+00  0.12977375669E+04  0.12977375669E+04  0.25500000000E-02 0.  1.
          2   -1    0    0  501    0  0.00000000000E+00 -0.00000000000E+00 -0.83960995775E+03  0.83960995775E+03  0.25500000000E-02 0. -1.
    8880022    1    1    2    0    0 -0.41546587887E+03  0.38453892795E+03  0.11131624208E+04  0.12581749925E+04  0.15294330000E+03 0.  0.
    8880022    1    1    2    0    0  0.41546587887E+03 -0.38453892795E+03 -0.65503481173E+03  0.87917253210E+03  0.15294330000E+03 0. -1.
<mgrwt>
<rscale>  0 0.58640748E+03</rscale>
<asrwt>0</asrwt>
<pdfrwt beam="1">  1        2 0.12917076E+00 0.58640748E+03</pdfrwt>
<pdfrwt beam="2">  1       -2 0.19965193E+00 0.58640748E+03</pdfrwt>
<totfact> 0.45246993E+00</totfact>
</mgrwt>
</event>
<event>
 4    1  0.5387657E-008  0.2622010E+03  0.7818608E-02  0.1105828E+00
         -2   -1    0    0    0  501 -0.00000000000E+00  0.00000000000E+00  0.53743391667E+03  0.53743391668E+03  0.25500000000E-02 0.  1.
          2   -1    0    0  501    0  0.00000000000E+00 -0.00000000000E+00 -0.38384733282E+03  0.38384733283E+03  0.25500000000E-02 0. -1.
    8880022    1    1    2    0    0  0.19765940069E+03  0.79299938739E+02 -0.29933846728E+03  0.39793578624E+03  0.15294330000E+03 0.  0.
    8880022    1    1    2    0    0 -0.19765940069E+03 -0.79299938739E+02  0.45292505113E+03  0.52334546327E+03  0.15294330000E+03 0.  1.
<mgrwt>
<rscale>  0 0.26220101E+03</rscale>
<asrwt>0</asrwt>
<pdfrwt beam="1">  1        2 0.59053436E-01 0.26220101E+03</pdfrwt>
<pdfrwt beam="2">  1       -2 0.82682141E-01 0.26220101E+03</pdfrwt>
<totfact> 0.11174629E+02</totfact>
</mgrwt>
</event>
<event>
 4    1  0.5387657E-008  0.6989206E+03  0.7818608E-02  0.9719080E-01
         -2   -1    0    0    0  501 -0.00000000000E+00  0.00000000000E+00  0.60299776772E+03  0.60299776773E+03  0.25500000000E-02 0.  1.
          2   -1    0    0  501    0  0.00000000000E+00 -0.00000000000E+00 -0.13683777801E+04  0.13683777801E+04  0.25500000000E-02 0. -1.
    8880022    1    1    2    0    0 -0.57196507306E+03 -0.37142199070E+03  0.24690397280E+03  0.74125000154E+03  0.15294330000E+03 0.  0.
    8880022    1    1    2    0    0  0.57196507306E+03  0.37142199070E+03 -0.10122839852E+04  0.12301255463E+04  0.15294330000E+03 0.  0.
<mgrwt>
<rscale>  0 0.69892059E+03</rscale>
<asrwt>0</asrwt>
<pdfrwt beam="1">  1        2 0.21051966E+00 0.69892059E+03</pdfrwt>
<pdfrwt beam="2">  1       -2 0.92768888E-01 0.69892059E+03</pdfrwt>
<totfact> 0.15290542E+01</totfact>
</mgrwt>
</event>
<event>
 4    1  0.5387657E-008  0.1375743E+04  0.7818608E-02  0.8971566E-01
         -2   -1    0    0    0  501 -0.00000000000E+00  0.00000000000E+00  0.19816976222E+04  0.19816976222E+04  0.25500000000E-02 0.  1.
          2   -1    0    0  501    0  0.00000000000E+00 -0.00000000000E+00 -0.11832632429E+04  0.11832632429E+04  0.25500000000E-02 0. -1.
    8880022    1    1    2    0    0  0.28096431618E+03  0.13380349187E+04  0.10941522199E+04  0.17577938229E+04  0.15294330000E+03 0.  0.
    8880022    1    1    2    0    0 -0.28096431618E+03 -0.13380349187E+04 -0.29571784063E+03  0.14071670423E+04  0.15294330000E+03 0.  0.
<mgrwt>
<rscale>  0 0.13757435E+04</rscale>
<asrwt>0</asrwt>
<pdfrwt beam="1">  1        2 0.18204050E+00 0.13757435E+04</pdfrwt>
<pdfrwt beam="2">  1       -2 0.30487655E+00 0.13757435E+04</pdfrwt>
<totfact> 0.55053856E-01</totfact>
</mgrwt>
</event>
<event>
 4    1  0.5387657E-008  0.8444231E+03  0.7818608E-02  0.9497853E-01
         -2   -1    0    0    0  501 -0.00000000000E+00  0.00000000000E+00  0.13301340689E+04  0.13301340689E+04  0.25500000000E-02 0.  1.
          2   -1    0    0  501    0  0.00000000000E+00 -0.00000000000E+00 -0.95011637759E+03  0.95011637759E+03  0.25500000000E-02 0. -1.
    8880022    1    1    2    0    0  0.26280122269E+03 -0.78777803272E+03  0.94264750041E+03  0.12655570610E+04  0.15294330000E+03 0.  0.
    8880022    1    1    2    0    0 -0.26280122269E+03  0.78777803272E+03 -0.56262980912E+03  0.10146933855E+04  0.15294330000E+03 0.  0.
<mgrwt>
<rscale>  0 0.84442310E+03</rscale>
<asrwt>0</asrwt>
<pdfrwt beam="1">  1        2 0.14617175E+00 0.84442310E+03</pdfrwt>
<pdfrwt beam="2">  1       -2 0.20463601E+00 0.84442310E+03</pdfrwt>
<totfact> 0.34041351E+00</totfact>
</mgrwt>
</event>
<event>
 4    1  0.5387657E-008  0.3780837E+03  0.7818608E-02  0.1051644E+00
         -2   -1    0    0    0  501 -0.00000000000E+00  0.00000000000E+00  0.28273353971E+03  0.28273353972E+03  0.25500000000E-02 0.  1.
          2   -1    0    0  501    0  0.00000000000E+00 -0.00000000000E+00 -0.26497720472E+04  0.26497720472E+04  0.25500000000E-02 0. -1.
    8880022    1    1    2    0    0  0.34490746359E+03  0.24382203802E+02  0.13545222370E+03  0.40161500000E+03  0.15294330000E+03 0.  1.
    8880022    1    1    2    0    0 -0.34490746359E+03 -0.24382203802E+02 -0.25024907312E+04  0.25308905869E+04  0.15294330000E+03 0.  0.
<mgrwt>
<rscale>  0 0.37808373E+03</rscale>
<asrwt>0</asrwt>
<pdfrwt beam="1">  1        2 0.40765722E+00 0.37808373E+03</pdfrwt>
<pdfrwt beam="2">  1       -2 0.43497470E-01 0.37808373E+03</pdfrwt>
<totfact> 0.16312251E+01</totfact>
</mgrwt>
</event>
<event>
 4    1  0.5387657E-008  0.6484207E+03  0.7818608E-02  0.9809747E-01
          2   -1    0    0  501    0  0.00000000000E+00  0.00000000000E+00  0.16182021049E+04  0.16182021049E+04  0.25500000000E-02 0. -1.
         -2   -1    0    0    0  501 -0.00000000000E+00 -0.00000000000E+00 -0.77899693029E+03  0.77899693029E+03  0.25500000000E-02 0.  1.
    8880022    1    1    2    0    0 -0.83868498121E+02 -0.62451891979E+03 -0.55889960303E+03  0.85604802753E+03  0.15294330000E+03 0.  0.
    8880022    1    1    2    0    0  0.83868498121E+02  0.62451891979E+03  0.13981047776E+04  0.15411510077E+04  0.15294330000E+03 0.  0.
<mgrwt>
<rscale>  0 0.64842074E+03</rscale>
<asrwt>0</asrwt>
<pdfrwt beam="1">  1        2 0.24895417E+00 0.64842074E+03</pdfrwt>
<pdfrwt beam="2">  1       -2 0.11984568E+00 0.64842074E+03</pdfrwt>
<totfact> 0.60614539E+00</totfact>
</mgrwt>
</event>
<event>
 4    1  0.5387657E-008  0.1217095E+04  0.7818608E-02  0.9098024E-01
         -2   -1    0    0    0  501 -0.00000000000E+00  0.00000000000E+00  0.52231671691E+03  0.52231671692E+03  0.25500000000E-02 0.  1.
          2   -1    0    0  501    0  0.00000000000E+00 -0.00000000000E+00 -0.38310976685E+04  0.38310976685E+04  0.25500000000E-02 0. -1.
    8880022    1    1    2    0    0 -0.93941072879E+03 -0.75857446958E+03 -0.27637161398E+04  0.30198420982E+04  0.15294330000E+03 0.  0.
    8880022    1    1    2    0    0  0.93941072879E+03  0.75857446958E+03 -0.54506481173E+03  0.13335722872E+04  0.15294330000E+03 0.  0.
<mgrwt>
<rscale>  0 0.12170947E+04</rscale>
<asrwt>0</asrwt>
<pdfrwt beam="1">  1        2 0.58939962E+00 0.12170947E+04</pdfrwt>
<pdfrwt beam="2">  1       -2 0.80356420E-01 0.12170947E+04</pdfrwt>
<totfact> 0.64208388E-01</totfact>
</mgrwt>
</event>
<event>
 4    1  0.5387657E-008  0.6074514E+03  0.7818608E-02  0.9890066E-01
          2   -1    0    0  501    0  0.00000000000E+00  0.00000000000E+00  0.15510162263E+04  0.15510162263E+04  0.25500000000E-02 0. -1.
         -2   -1    0    0    0  501 -0.00000000000E+00 -0.00000000000E+00 -0.39003892346E+03  0.39003892347E+03  0.25500000000E-02 0.  1.
    8880022    1    1    2    0    0  0.54736392560E+02 -0.58532856362E+03 -0.25639448176E+02  0.60799229796E+03  0.15294330000E+03 0.  0.
    8880022    1    1    2    0    0 -0.54736392560E+02  0.58532856362E+03  0.11866167511E+04  0.13330628519E+04  0.15294330000E+03 0.  0.
<mgrwt>
<rscale>  0 0.60745144E+03</rscale>
<asrwt>0</asrwt>
<pdfrwt beam="1">  1        2 0.23861788E+00 0.60745144E+03</pdfrwt>
<pdfrwt beam="2">  1       -2 0.60005988E-01 0.60745144E+03</pdfrwt>
<totfact> 0.32082502E+01</totfact>
</mgrwt>
</event>
<event>
 4    1  0.5387657E-008  0.1646362E+04  0.7818608E-02  0.8792561E-01
          2   -1    0    0  501    0  0.00000000000E+00  0.00000000000E+00  0.18165085238E+04  0.18165085238E+04  0.25500000000E-02 0. -1.
         -2   -1    0    0    0  501 -0.00000000000E+00 -0.00000000000E+00 -0.16663606996E+04  0.16663606996E+04  0.25500000000E-02 0.  1.
    8880022    1    1    2    0    0  0.16122589074E+04  0.29620600130E+03 -0.48798842984E+03  0.17171607788E+04  0.15294330000E+03 0.  0.
    8880022    1    1    2    0    0 -0.16122589074E+04 -0.29620600130E+03  0.63813625401E+03  0.17657084446E+04  0.15294330000E+03 0.  0.
<mgrwt>
<rscale>  0 0.16463622E+04</rscale>
<asrwt>0</asrwt>
<pdfrwt beam="1">  1        2 0.27946285E+00 0.16463622E+04</pdfrwt>
<pdfrwt beam="2">  1       -2 0.25636319E+00 0.16463622E+04</pdfrwt>
<totfact> 0.45868413E-01</totfact>
</mgrwt>
</event>
<event>
 4    1  0.5387657E-008  0.8158287E+03  0.7818608E-02  0.9537384E-01
         -2   -1    0    0    0  501 -0.00000000000E+00  0.00000000000E+00  0.10925514701E+04  0.10925514701E+04  0.25500000000E-02 0.  1.
          2   -1    0    0  501    0  0.00000000000E+00 -0.00000000000E+00 -0.18320629912E+04  0.18320629912E+04  0.25500000000E-02 0. -1.
    8880022    1    1    2    0    0  0.79098989740E+03 -0.12852919316E+03 -0.15644541863E+04  0.17643960228E+04  0.15294330000E+03 0.  0.
    8880022    1    1    2    0    0 -0.79098989740E+03  0.12852919316E+03  0.82494266515E+03  0.11602184385E+04  0.15294330000E+03 0.  0.
<mgrwt>
<rscale>  0 0.81582867E+03</rscale>
<asrwt>0</asrwt>
<pdfrwt beam="1">  1        2 0.28185585E+00 0.81582867E+03</pdfrwt>
<pdfrwt beam="2">  1       -2 0.16808484E+00 0.81582867E+03</pdfrwt>
<totfact> 0.18646396E+00</totfact>
</mgrwt>
</event>
<event>
 4    1  0.5387657E-008  0.1717452E+03  0.7818608E-02  0.1176040E+00
         -2   -1    0    0    0  501 -0.00000000000E+00  0.00000000000E+00  0.53539988855E+02  0.53539988915E+02  0.25500000000E-02 0.  1.
          2   -1    0    0  501    0  0.00000000000E+00 -0.00000000000E+00 -0.87429431961E+03  0.87429431961E+03  0.25500000000E-02 0. -1.
    8880022    1    1    2    0    0 -0.77689192790E+02 -0.83162722005E+01 -0.12823876965E+03  0.21433993122E+03  0.15294330000E+03 0.  0.
    8880022    1    1    2    0    0  0.77689192790E+02  0.83162722005E+01 -0.69251556111E+03  0.71349437731E+03  0.15294330000E+03 0. -1.
<mgrwt>
<rscale>  0 0.17174523E+03</rscale>
<asrwt>0</asrwt>
<pdfrwt beam="1">  1        2 0.13450681E+00 0.17174523E+03</pdfrwt>
<pdfrwt beam="2">  1       -2 0.82369220E-02 0.17174523E+03</pdfrwt>
<totfact> 0.28217993E+03</totfact>
</mgrwt>
</event>
<event>
 4    1  0.5387657E-008  0.2902669E+03  0.7818608E-02  0.1090210E+00
          2   -1    0    0  501    0  0.00000000000E+00  0.00000000000E+00  0.20813064660E+04  0.20813064660E+04  0.25500000000E-02 0. -1.
         -2   -1    0    0    0  501 -0.00000000000E+00 -0.00000000000E+00 -0.76005364031E+02  0.76005364074E+02  0.25500000000E-02 0.  1.
    8880022    1    1    2    0    0  0.23303757523E+03  0.80973654164E+02  0.26522281227E+03  0.39318956917E+03  0.15294330000E+03 0.  0.
    8880022    1    1    2    0    0 -0.23303757523E+03 -0.80973654164E+02  0.17400782897E+04  0.17641222609E+04  0.15294330000E+03 0.  0.
<mgrwt>
<rscale>  0 0.29026694E+03</rscale>
<asrwt>0</asrwt>
<pdfrwt beam="1">  1        2 0.32020094E+00 0.29026694E+03</pdfrwt>
<pdfrwt beam="2">  1       -2 0.11693135E-01 0.29026694E+03</pdfrwt>
<totfact> 0.34669114E+02</totfact>
</mgrwt>
</event>
<event>
 4    1  0.5387657E-008  0.6143246E+03  0.7818608E-02  0.9876125E-01
          2   -1    0    0  501    0  0.00000000000E+00  0.00000000000E+00  0.33733791726E+04  0.33733791726E+04  0.25500000000E-02 0. -1.
         -2   -1    0    0    0  501 -0.00000000000E+00 -0.00000000000E+00 -0.60036613151E+03  0.60036613151E+03  0.25500000000E-02 0.  1.
    8880022    1    1    2    0    0  0.59497394540E+03  0.30113816364E+01 -0.40571032655E+03  0.73620349510E+03  0.15294330000E+03 0.  0.
    8880022    1    1    2    0    0 -0.59497394540E+03 -0.30113816364E+01  0.31787233676E+04  0.32375418090E+04  0.15294330000E+03 0.  0.
<mgrwt>
<rscale>  0 0.61432460E+03</rscale>
<asrwt>0</asrwt>
<pdfrwt beam="1">  1        2 0.51898142E+00 0.61432460E+03</pdfrwt>
<pdfrwt beam="2">  1       -2 0.92364018E-01 0.61432460E+03</pdfrwt>
<totfact> 0.11095956E+00</totfact>
</mgrwt>
</event>
<event>
 4    1  0.5387657E-008  0.2670024E+03  0.7818608E-02  0.1103008E+00
         -2   -1    0    0    0  501 -0.00000000000E+00  0.00000000000E+00  0.79294359214E+02  0.79294359255E+02  0.25500000000E-02 0.  1.
          2   -1    0    0  501    0  0.00000000000E+00 -0.00000000000E+00 -0.36039463662E+04  0.36039463662E+04  0.25500000000E-02 0. -1.
    8880022    1    1    2    0    0 -0.28848003809E+02 -0.21694797462E+03 -0.33577846977E+04  0.33683836421E+04  0.15294330000E+03 0.  0.
    8880022    1    1    2    0    0  0.28848003809E+02  0.21694797462E+03 -0.16686730921E+03  0.31485708332E+03  0.15294330000E+03 0.  0.
<mgrwt>
<rscale>  0 0.26700240E+03</rscale>
<asrwt>0</asrwt>
<pdfrwt beam="1">  1        2 0.55445316E+00 0.26700240E+03</pdfrwt>
<pdfrwt beam="2">  1       -2 0.12199135E-01 0.26700240E+03</pdfrwt>
<totfact> 0.41804353E+01</totfact>
</mgrwt>
</event>
<event>
 4    1  0.5387657E-008  0.9225134E+03  0.7818608E-02  0.9397868E-01
          2   -1    0    0  501    0  0.00000000000E+00  0.00000000000E+00  0.11576099737E+04  0.11576099737E+04  0.25500000000E-02 0. -1.
         -2   -1    0    0    0  501 -0.00000000000E+00 -0.00000000000E+00 -0.10454113768E+04  0.10454113768E+04  0.25500000000E-02 0.  1.
    8880022    1    1    2    0    0  0.56561664900E+02  0.90798684973E+03 -0.54396871760E+03  0.10709495600E+04  0.15294330000E+03 0.  0.
    8880022    1    1    2    0    0 -0.56561664900E+02 -0.90798684973E+03  0.65616731454E+03  0.11320717905E+04  0.15294330000E+03 0.  0.
<mgrwt>
<rscale>  0 0.92251341E+03</rscale>
<asrwt>0</asrwt>
<pdfrwt beam="1">  1        2 0.17809384E+00 0.92251341E+03</pdfrwt>
<pdfrwt beam="2">  1       -2 0.16083252E+00 0.92251341E+03</pdfrwt>
<totfact> 0.49865716E+00</totfact>
</mgrwt>
</event>
<event>
 4    1  0.5387657E-008  0.4043510E+03  0.7818608E-02  0.1042283E+00
         -2   -1    0    0    0  501 -0.00000000000E+00  0.00000000000E+00  0.15409898266E+03  0.15409898268E+03  0.25500000000E-02 0.  1.
          2   -1    0    0  501    0  0.00000000000E+00 -0.00000000000E+00 -0.16040243990E+04  0.16040243990E+04  0.25500000000E-02 0. -1.
    8880022    1    1    2    0    0 -0.35732107091E+03 -0.11148881454E+03 -0.21349098196E+03  0.45725064885E+03  0.15294330000E+03 0.  0.
    8880022    1    1    2    0    0  0.35732107091E+03  0.11148881454E+03 -0.12364344344E+04  0.13008727328E+04  0.15294330000E+03 0.  0.
<mgrwt>
<rscale>  0 0.40435103E+03</rscale>
<asrwt>0</asrwt>
<pdfrwt beam="1">  1        2 0.24677297E+00 0.40435103E+03</pdfrwt>
<pdfrwt beam="2">  1       -2 0.23707537E-01 0.40435103E+03</pdfrwt>
<totfact> 0.18470533E+02</totfact>
</mgrwt>
</event>
<event>
 4    1  0.5387657E-008  0.4097421E+03  0.7818608E-02  0.1040458E+00
          2   -1    0    0  501    0  0.00000000000E+00  0.00000000000E+00  0.25586974924E+04  0.25586974924E+04  0.25500000000E-02 0. -1.
         -2   -1    0    0    0  501 -0.00000000000E+00 -0.00000000000E+00 -0.71046833075E+02  0.71046833121E+02  0.25500000000E-02 0.  1.
    8880022    1    1    2    0    0 -0.36649548091E+03  0.10088596058E+03  0.88025357771E+03  0.97094537883E+03  0.15294330000E+03 0.  0.
    8880022    1    1    2    0    0  0.36649548091E+03 -0.10088596058E+03  0.16073970816E+04  0.16587989467E+04  0.15294330000E+03 0.  0.
<mgrwt>
<rscale>  0 0.40974207E+03</rscale>
<asrwt>0</asrwt>
<pdfrwt beam="1">  1        2 0.39364571E+00 0.40974207E+03</pdfrwt>
<pdfrwt beam="2">  1       -2 0.10930284E-01 0.40974207E+03</pdfrwt>
<totfact> 0.20799835E+02</totfact>
</mgrwt>
</event>
<event>
 4    1  0.5387657E-008  0.3520199E+03  0.7818608E-02  0.1061789E+00
          2   -1    0    0  501    0  0.00000000000E+00  0.00000000000E+00  0.13811685339E+04  0.13811685339E+04  0.25500000000E-02 0. -1.
         -2   -1    0    0    0  501 -0.00000000000E+00 -0.00000000000E+00 -0.22984778419E+03  0.22984778421E+03  0.25500000000E-02 0.  1.
    8880022    1    1    2    0    0 -0.13507748392E+02  0.31677107640E+03 -0.53284198980E+02  0.35602982036E+03  0.15294330000E+03 0.  0.
    8880022    1    1    2    0    0  0.13507748392E+02 -0.31677107640E+03  0.12046049487E+04  0.12549864978E+04  0.15294330000E+03 0. -1.
<mgrwt>
<rscale>  0 0.35201992E+03</rscale>
<asrwt>0</asrwt>
<pdfrwt beam="1">  1        2 0.21248747E+00 0.35201992E+03</pdfrwt>
<pdfrwt beam="2">  1       -2 0.35361198E-01 0.35201992E+03</pdfrwt>
<totfact> 0.11872976E+02</totfact>
</mgrwt>
</event>
<event>
 4    1  0.5387657E-008  0.5876164E+03  0.7818608E-02  0.9931436E-01
          2   -1    0    0  501    0  0.00000000000E+00  0.00000000000E+00  0.31836435797E+04  0.31836435797E+04  0.25500000000E-02 0. -1.
         -2   -1    0    0    0  501 -0.00000000000E+00 -0.00000000000E+00 -0.24485840579E+03  0.24485840581E+03  0.25500000000E-02 0.  1.
    8880022    1    1    2    0    0 -0.56656673740E+03  0.30058339412E+02  0.27488446746E+04  0.28109500298E+04  0.15294330000E+03 0.  0.
    8880022    1    1    2    0    0  0.56656673740E+03 -0.30058339412E+02  0.18994049924E+03  0.61755195568E+03  0.15294330000E+03 0.  0.
<mgrwt>
<rscale>  0 0.58761639E+03</rscale>
<asrwt>0</asrwt>
<pdfrwt beam="1">  1        2 0.48979129E+00 0.58761639E+03</pdfrwt>
<pdfrwt beam="2">  1       -2 0.37670526E-01 0.58761639E+03</pdfrwt>
<totfact> 0.97757430E+00</totfact>
</mgrwt>
</event>
<event>
 4    1  0.5387657E-008  0.2868669E+03  0.7818608E-02  0.1091996E+00
          2   -1    0    0  501    0  0.00000000000E+00  0.00000000000E+00  0.99665891177E+03  0.99665891177E+03  0.25500000000E-02 0. -1.
         -2   -1    0    0    0  501 -0.00000000000E+00 -0.00000000000E+00 -0.28783747803E+03  0.28783747805E+03  0.25500000000E-02 0.  1.
    8880022    1    1    2    0    0 -0.13021038086E+03 -0.20480783690E+03  0.89677473060E+03  0.94153999585E+03  0.15294330000E+03 0.  0.
    8880022    1    1    2    0    0  0.13021038086E+03  0.20480783690E+03 -0.18795329687E+03  0.34295639396E+03  0.15294330000E+03 0.  0.
<mgrwt>
<rscale>  0 0.28686695E+03</rscale>
<asrwt>0</asrwt>
<pdfrwt beam="1">  1        2 0.15333214E+00 0.28686695E+03</pdfrwt>
<pdfrwt beam="2">  1       -2 0.44282688E-01 0.28686695E+03</pdfrwt>
<totfact> 0.13014387E+02</totfact>
</mgrwt>
</event>
<event>
 4    1  0.5387657E-008  0.5080314E+03  0.7818608E-02  0.1011704E+00
         -2   -1    0    0    0  501 -0.00000000000E+00  0.00000000000E+00  0.11450488090E+04  0.11450488090E+04  0.25500000000E-02 0.  1.
          2   -1    0    0  501    0  0.00000000000E+00 -0.00000000000E+00 -0.10852810058E+04  0.10852810058E+04  0.25500000000E-02 0. -1.
    8880022    1    1    2    0    0  0.46043342397E+03  0.15068293864E+03  0.10225124096E+04  0.11417651101E+04  0.15294330000E+03 0.  0.
    8880022    1    1    2    0    0 -0.46043342397E+03 -0.15068293864E+03 -0.96274460642E+03  0.10885647046E+04  0.15294330000E+03 0.  0.
<mgrwt>
<rscale>  0 0.50803143E+03</rscale>
<asrwt>0</asrwt>
<pdfrwt beam="1">  1        2 0.16696631E+00 0.50803143E+03</pdfrwt>
<pdfrwt beam="2">  1       -2 0.17616135E+00 0.50803143E+03</pdfrwt>
<totfact> 0.45729910E+00</totfact>
</mgrwt>
</event>
<event>
 4    1  0.5387657E-008  0.2519161E+03  0.7818608E-02  0.1112100E+00
          2   -1    0    0  501    0  0.00000000000E+00  0.00000000000E+00  0.11376386579E+04  0.11376386579E+04  0.25500000000E-02 0. -1.
         -2   -1    0    0    0  501 -0.00000000000E+00 -0.00000000000E+00 -0.90436479036E+02  0.90436479072E+02  0.25500000000E-02 0.  1.
    8880022    1    1    2    0    0  0.19430232071E+03  0.48131750501E+02  0.90369600780E+03  0.93815147219E+03  0.15294330000E+03 0. -1.
    8880022    1    1    2    0    0 -0.19430232071E+03 -0.48131750501E+02  0.14350617102E+03  0.28992366474E+03  0.15294330000E+03 0.  0.
<mgrwt>
<rscale>  0 0.25191608E+03</rscale>
<asrwt>0</asrwt>
<pdfrwt beam="1">  1        2 0.17502134E+00 0.25191608E+03</pdfrwt>
<pdfrwt beam="2">  1       -2 0.13913304E-01 0.25191608E+03</pdfrwt>
<totfact> 0.84521200E+02</totfact>
</mgrwt>
</event>
<event>
 4    1  0.5387657E-008  0.6606826E+03  0.7818608E-02  0.9786938E-01
         -2   -1    0    0    0  501 -0.00000000000E+00  0.00000000000E+00  0.32029251773E+03  0.32029251774E+03  0.25500000000E-02 0.  1.
          2   -1    0    0  501    0  0.00000000000E+00 -0.00000000000E+00 -0.33654078863E+04  0.33654078863E+04  0.25500000000E-02 0. -1.
    8880022    1    1    2    0    0  0.18557836551E+03  0.61536210242E+03 -0.10099236342E+03  0.66835690864E+03  0.15294330000E+03 0.  0.
    8880022    1    1    2    0    0 -0.18557836551E+03 -0.61536210242E+03 -0.29441230052E+04  0.30173434954E+04  0.15294330000E+03 0.  0.
<mgrwt>
<rscale>  0 0.66068260E+03</rscale>
<asrwt>0</asrwt>
<pdfrwt beam="1">  1        2 0.51775503E+00 0.66068260E+03</pdfrwt>
<pdfrwt beam="2">  1       -2 0.49275774E-01 0.66068260E+03</pdfrwt>
<totfact> 0.43209780E+00</totfact>
</mgrwt>
</event>
<event>
 4    1  0.5387657E-008  0.2244187E+03  0.7818608E-02  0.1130631E+00
          2   -1    0    0  501    0  0.00000000000E+00  0.00000000000E+00  0.70355046962E+03  0.70355046962E+03  0.25500000000E-02 0. -1.
         -2   -1    0    0    0  501 -0.00000000000E+00 -0.00000000000E+00 -0.13803961549E+04  0.13803961549E+04  0.25500000000E-02 0.  1.
    8880022    1    1    2    0    0  0.32377515287E+02 -0.16100862181E+03  0.67617328872E+03  0.71244231289E+03  0.15294330000E+03 0.  0.
    8880022    1    1    2    0    0 -0.32377515287E+02  0.16100862181E+03 -0.13530189740E+04  0.13715043116E+04  0.15294330000E+03 0.  1.
<mgrwt>
<rscale>  0 0.22441866E+03</rscale>
<asrwt>0</asrwt>
<pdfrwt beam="1">  1        2 0.10823853E+00 0.22441866E+03</pdfrwt>
<pdfrwt beam="2">  1       -2 0.21236864E+00 0.22441866E+03</pdfrwt>
<totfact> 0.52034965E+00</totfact>
</mgrwt>
</event>
<event>
 4    1  0.5387657E-008  0.2604086E+03  0.7818608E-02  0.1106898E+00
          2   -1    0    0  501    0  0.00000000000E+00  0.00000000000E+00  0.12231077558E+04  0.12231077558E+04  0.25500000000E-02 0. -1.
         -2   -1    0    0    0  501 -0.00000000000E+00 -0.00000000000E+00 -0.78848107131E+02  0.78848107172E+02  0.25500000000E-02 0.  1.
    8880022    1    1    2    0    0  0.17473137407E+03  0.11785563161E+03  0.92680170740E+03  0.96269105161E+03  0.15294330000E+03 0.  0.
    8880022    1    1    2    0    0 -0.17473137407E+03 -0.11785563161E+03  0.21745794122E+03  0.33926481132E+03  0.15294330000E+03 0.  0.
<mgrwt>
<rscale>  0 0.26040863E+03</rscale>
<asrwt>0</asrwt>
<pdfrwt beam="1">  1        2 0.18817040E+00 0.26040863E+03</pdfrwt>
<pdfrwt beam="2">  1       -2 0.12130479E-01 0.26040863E+03</pdfrwt>
<totfact> 0.94417586E+02</totfact>
</mgrwt>
</event>
<event>
 4    1  0.5387657E-008  0.3763164E+03  0.7818608E-02  0.1052304E+00
         -2   -1    0    0    0  501 -0.00000000000E+00  0.00000000000E+00  0.58647816135E+02  0.58647816191E+02  0.25500000000E-02 0.  1.
          2   -1    0    0  501    0  0.00000000000E+00 -0.00000000000E+00 -0.25346960471E+04  0.25346960471E+04  0.25500000000E-02 0. -1.
    8880022    1    1    2    0    0  0.31319952655E+03  0.14187464825E+03 -0.15202125151E+04  0.15660970925E+04  0.15294330000E+03 0.  1.
    8880022    1    1    2    0    0 -0.31319952655E+03 -0.14187464825E+03 -0.95583571594E+03  0.10272467708E+04  0.15294330000E+03 0.  0.
<mgrwt>
<rscale>  0 0.37631637E+03</rscale>
<asrwt>0</asrwt>
<pdfrwt beam="1">  1        2 0.38995315E+00 0.37631637E+03</pdfrwt>
<pdfrwt beam="2">  1       -2 0.90227429E-02 0.37631637E+03</pdfrwt>
<totfact> 0.29385417E+02</totfact>
</mgrwt>
</event>
<event>
 4    1  0.5387657E-008  0.1723041E+03  0.7818608E-02  0.1175466E+00
         -2   -1    0    0    0  501 -0.00000000000E+00  0.00000000000E+00  0.86568364146E+03  0.86568364147E+03  0.25500000000E-02 0.  1.
          2   -1    0    0  501    0  0.00000000000E+00 -0.00000000000E+00 -0.51670036337E+03  0.51670036337E+03  0.25500000000E-02 0. -1.
    8880022    1    1    2    0    0 -0.76885159928E+02  0.19640119036E+02  0.84235148896E+03  0.85979343221E+03  0.15294330000E+03 0.  1.
    8880022    1    1    2    0    0  0.76885159928E+02 -0.19640119036E+02 -0.49336821087E+03  0.52259057263E+03  0.15294330000E+03 0.  0.
<mgrwt>
<rscale>  0 0.17230414E+03</rscale>
<asrwt>0</asrwt>
<pdfrwt beam="1">  1        2 0.79492364E-01 0.17230414E+03</pdfrwt>
<pdfrwt beam="2">  1       -2 0.13318210E+00 0.17230414E+03</pdfrwt>
<totfact> 0.26796856E+01</totfact>
</mgrwt>
</event>
<event>
 4    1  0.5387657E-008  0.4866632E+03  0.7818608E-02  0.1017320E+00
         -2   -1    0    0    0  501 -0.00000000000E+00  0.00000000000E+00  0.11367234821E+03  0.11367234824E+03  0.25500000000E-02 0.  1.
          2   -1    0    0  501    0  0.00000000000E+00 -0.00000000000E+00 -0.24128903944E+04  0.24128903944E+04  0.25500000000E-02 0. -1.
    8880022    1    1    2    0    0  0.33799859116E+03 -0.31497036709E+03 -0.68288567409E+03  0.83855463546E+03  0.15294330000E+03 0.  0.
    8880022    1    1    2    0    0 -0.33799859116E+03  0.31497036709E+03 -0.16163323721E+04  0.16880081072E+04  0.15294330000E+03 0.  0.
<mgrwt>
<rscale>  0 0.48666316E+03</rscale>
<asrwt>0</asrwt>
<pdfrwt beam="1">  1        2 0.37121387E+00 0.48666316E+03</pdfrwt>
<pdfrwt beam="2">  1       -2 0.17488055E-01 0.48666316E+03</pdfrwt>
<totfact> 0.11320005E+02</totfact>
</mgrwt>
</event>
<event>
 4    1  0.5387657E-008  0.6460222E+03  0.7818608E-02  0.9814272E-01
          2   -1    0    0  501    0  0.00000000000E+00  0.00000000000E+00  0.25544555129E+04  0.25544555129E+04  0.25500000000E-02 0. -1.
         -2   -1    0    0    0  501 -0.00000000000E+00 -0.00000000000E+00 -0.52830733540E+03  0.52830733541E+03  0.25500000000E-02 0.  1.
    8880022    1    1    2    0    0 -0.20071530716E+03  0.59469856585E+03  0.22941372045E+04  0.23833611108E+04  0.15294330000E+03 0.  0.
    8880022    1    1    2    0    0  0.20071530716E+03 -0.59469856585E+03 -0.26798902698E+03  0.69940173745E+03  0.15294330000E+03 0.  0.
<mgrwt>
<rscale>  0 0.64602219E+03</rscale>
<asrwt>0</asrwt>
<pdfrwt beam="1">  1        2 0.39299315E+00 0.64602219E+03</pdfrwt>
<pdfrwt beam="2">  1       -2 0.81278053E-01 0.64602219E+03</pdfrwt>
<totfact> 0.46334960E+00</totfact>
</mgrwt>
</event>
<event>
 4    1  0.5387657E-008  0.5009170E+03  0.7818608E-02  0.1013540E+00
          2   -1    0    0  501    0  0.00000000000E+00  0.00000000000E+00  0.90738816715E+03  0.90738816715E+03  0.25500000000E-02 0. -1.
         -2   -1    0    0    0  501 -0.00000000000E+00 -0.00000000000E+00 -0.31707451030E+03  0.31707451031E+03  0.25500000000E-02 0.  1.
    8880022    1    1    2    0    0 -0.29678991245E+02 -0.47607282526E+03  0.76222420960E+02  0.50668302512E+03  0.15294330000E+03 0.  0.
    8880022    1    1    2    0    0  0.29678991245E+02  0.47607282526E+03  0.51409123589E+03  0.71777965234E+03  0.15294330000E+03 0.  0.
<mgrwt>
<rscale>  0 0.50091699E+03</rscale>
<asrwt>0</asrwt>
<pdfrwt beam="1">  1        2 0.13959818E+00 0.50091699E+03</pdfrwt>
<pdfrwt beam="2">  1       -2 0.48780694E-01 0.50091699E+03</pdfrwt>
<totfact> 0.11914486E+02</totfact>
</mgrwt>
</event>
<event>
 4    1  0.5387657E-008  0.2449833E+03  0.7818608E-02  0.1116517E+00
          2   -1    0    0  501    0  0.00000000000E+00  0.00000000000E+00  0.86560750030E+03  0.86560750030E+03  0.25500000000E-02 0. -1.
         -2   -1    0    0    0  501 -0.00000000000E+00 -0.00000000000E+00 -0.35070023738E+03  0.35070023739E+03  0.25500000000E-02 0.  1.
    8880022    1    1    2    0    0 -0.13661634587E+03  0.13401910581E+03 -0.28727568582E+03  0.37755015476E+03  0.15294330000E+03 0.  0.
    8880022    1    1    2    0    0  0.13661634587E+03 -0.13401910581E+03  0.80218294873E+03  0.83875758294E+03  0.15294330000E+03 0. -1.
<mgrwt>
<rscale>  0 0.24498326E+03</rscale>
<asrwt>0</asrwt>
<pdfrwt beam="1">  1        2 0.13317039E+00 0.24498326E+03</pdfrwt>
<pdfrwt beam="2">  1       -2 0.53953883E-01 0.24498326E+03</pdfrwt>
<totfact> 0.10722660E+02</totfact>
</mgrwt>
</event>
<event>
 4    1  0.5387657E-008  0.5268271E+03  0.7818608E-02  0.1007005E+00
          2   -1    0    0  501    0  0.00000000000E+00  0.00000000000E+00  0.59878730322E+03  0.59878730322E+03  0.25500000000E-02 0. -1.
         -2   -1    0    0    0  501 -0.00000000000E+00 -0.00000000000E+00 -0.10381173825E+04  0.10381173825E+04  0.25500000000E-02 0.  1.
    8880022    1    1    2    0    0  0.45251959305E+03 -0.22221860971E+03 -0.82857625228E+03  0.98187848100E+03  0.15294330000E+03 0.  0.
    8880022    1    1    2    0    0 -0.45251959305E+03  0.22221860971E+03  0.38924617304E+03  0.65502620469E+03  0.15294330000E+03 0.  0.
<mgrwt>
<rscale>  0 0.52682705E+03</rscale>
<asrwt>0</asrwt>
<pdfrwt beam="1">  1        2 0.92121124E-01 0.52682705E+03</pdfrwt>
<pdfrwt beam="2">  1       -2 0.15971037E+00 0.52682705E+03</pdfrwt>
<totfact> 0.13123889E+01</totfact>
</mgrwt>
</event>
<event>
 4    1  0.5387657E-008  0.2173562E+03  0.7818608E-02  0.1135870E+00
          2   -1    0    0  501    0  0.00000000000E+00  0.00000000000E+00  0.19870397329E+04  0.19870397329E+04  0.25500000000E-02 0. -1.
         -2   -1    0    0    0  501 -0.00000000000E+00 -0.00000000000E+00 -0.57531425368E+02  0.57531425425E+02  0.25500000000E-02 0.  1.
    8880022    1    1    2    0    0  0.13935946156E+03  0.66565798434E+02  0.17478085081E+04  0.17612717846E+04  0.15294330000E+03 0. -1.
    8880022    1    1    2    0    0 -0.13935946156E+03 -0.66565798434E+02  0.18169979940E+03  0.28329937375E+03  0.15294330000E+03 0.  0.
<mgrwt>
<rscale>  0 0.21735620E+03</rscale>
<asrwt>0</asrwt>
<pdfrwt beam="1">  1        2 0.30569841E+00 0.21735620E+03</pdfrwt>
<pdfrwt beam="2">  1       -2 0.88509888E-02 0.21735620E+03</pdfrwt>
<totfact> 0.61488719E+02</totfact>
</mgrwt>
</event>
<event>
 4    1  0.5387657E-008  0.2341726E+03  0.7818608E-02  0.1123737E+00
          2   -1    0    0  501    0  0.00000000000E+00  0.00000000000E+00  0.10825439595E+04  0.10825439595E+04  0.25500000000E-02 0. -1.
         -2   -1    0    0    0  501 -0.00000000000E+00 -0.00000000000E+00 -0.43151160649E+03  0.43151160650E+03  0.25500000000E-02 0.  1.
    8880022    1    1    2    0    0 -0.14437070860E+03  0.10296730690E+03  0.10367231909E+04  0.10628413782E+04  0.15294330000E+03 0.  0.
    8880022    1    1    2    0    0  0.14437070860E+03 -0.10296730690E+03 -0.38569083787E+03  0.45121418775E+03  0.15294330000E+03 0.  0.
<mgrwt>
<rscale>  0 0.23417263E+03</rscale>
<asrwt>0</asrwt>
<pdfrwt beam="1">  1        2 0.16654522E+00 0.23417263E+03</pdfrwt>
<pdfrwt beam="2">  1       -2 0.66386402E-01 0.23417263E+03</pdfrwt>
<totfact> 0.51267078E+01</totfact>
</mgrwt>
</event>
<event>
 4    1  0.5387657E-008  0.3409483E+03  0.7818608E-02  0.1066393E+00
         -2   -1    0    0    0  501 -0.00000000000E+00  0.00000000000E+00  0.18872396901E+03  0.18872396903E+03  0.25500000000E-02 0.  1.
          2   -1    0    0  501    0  0.00000000000E+00 -0.00000000000E+00 -0.67130638980E+03  0.67130638980E+03  0.25500000000E-02 0. -1.
    8880022    1    1    2    0    0  0.29081497488E+03  0.90998508652E+02 -0.36476713293E+03  0.49930030289E+03  0.15294330000E+03 0. -1.
    8880022    1    1    2    0    0 -0.29081497488E+03 -0.90998508652E+02 -0.11781528786E+03  0.36073005594E+03  0.15294330000E+03 0.  1.
<mgrwt>
<rscale>  0 0.34094828E+03</rscale>
<asrwt>0</asrwt>
<pdfrwt beam="1">  1        2 0.10327790E+00 0.34094828E+03</pdfrwt>
<pdfrwt beam="2">  1       -2 0.29034457E-01 0.34094828E+03</pdfrwt>
<totfact> 0.48018608E+02</totfact>
</mgrwt>
</event>
<event>
 4    1  0.5387657E-008  0.2520049E+03  0.7818608E-02  0.1112044E+00
         -2   -1    0    0    0  501 -0.00000000000E+00  0.00000000000E+00  0.88547447839E+02  0.88547447875E+02  0.25500000000E-02 0.  1.
          2   -1    0    0  501    0  0.00000000000E+00 -0.00000000000E+00 -0.18230769047E+04  0.18230769047E+04  0.25500000000E-02 0. -1.
    8880022    1    1    2    0    0 -0.19407219046E+03  0.49505490659E+02 -0.12283631064E+03  0.28034839208E+03  0.15294330000E+03 0.  0.
    8880022    1    1    2    0    0  0.19407219046E+03 -0.49505490659E+02 -0.16116931462E+04  0.16312759605E+04  0.15294330000E+03 0. -1.
<mgrwt>
<rscale>  0 0.25200488E+03</rscale>
<asrwt>0</asrwt>
<pdfrwt beam="1">  1        2 0.28047334E+00 0.25200488E+03</pdfrwt>
<pdfrwt beam="2">  1       -2 0.13622686E-01 0.25200488E+03</pdfrwt>
<totfact> 0.37239155E+02</totfact>
</mgrwt>
</event>
<event>
 4    1  0.5387657E-008  0.1318296E+04  0.7818608E-02  0.9015181E-01
         -2   -1    0    0    0  501 -0.00000000000E+00  0.00000000000E+00  0.27836606234E+04  0.27836606234E+04  0.25500000000E-02 0.  1.
          2   -1    0    0  501    0  0.00000000000E+00 -0.00000000000E+00 -0.11469752056E+04  0.11469752056E+04  0.25500000000E-02 0. -1.
    8880022    1    1    2    0    0  0.22393720967E+03 -0.12901021272E+04 -0.50832525005E+03  0.14129039547E+04  0.15294330000E+03 0.  0.
    8880022    1    1    2    0    0 -0.22393720967E+03  0.12901021272E+04  0.21450106678E+04  0.25177318742E+04  0.15294330000E+03 0.  0.
<mgrwt>
<rscale>  0 0.13182955E+04</rscale>
<asrwt>0</asrwt>
<pdfrwt beam="1">  1        2 0.17645773E+00 0.13182955E+04</pdfrwt>
<pdfrwt beam="2">  1       -2 0.42825548E+00 0.13182955E+04</pdfrwt>
<totfact> 0.95479779E-02</totfact>
</mgrwt>
</event>
<event>
 4    1  0.5387657E-008  0.3151888E+03  0.7818608E-02  0.1077885E+00
          2   -1    0    0  501    0  0.00000000000E+00  0.00000000000E+00  0.17748212965E+04  0.17748212965E+04  0.25500000000E-02 0. -1.
         -2   -1    0    0    0  501 -0.00000000000E+00 -0.00000000000E+00 -0.22139411847E+03  0.22139411849E+03  0.25500000000E-02 0.  1.
    8880022    1    1    2    0    0  0.20320335900E+03  0.18617390429E+03 -0.86043297770E+02  0.32672225185E+03  0.15294330000E+03 0.  0.
    8880022    1    1    2    0    0 -0.20320335900E+03 -0.18617390429E+03  0.16394704758E+04  0.16694931632E+04  0.15294330000E+03 0.  0.
<mgrwt>
<rscale>  0 0.31518880E+03</rscale>
<asrwt>0</asrwt>
<pdfrwt beam="1">  1        2 0.27304943E+00 0.31518880E+03</pdfrwt>
<pdfrwt beam="2">  1       -2 0.34060634E-01 0.31518880E+03</pdfrwt>
<totfact> 0.78861063E+01</totfact>
</mgrwt>
</event>
<event>
 4    1  0.1811844E-007  0.6557140E+03  0.7818608E-02  0.9796116E-01
          2   -1    0    0  501    0  0.00000000000E+00  0.00000000000E+00  0.25012460237E+04  0.25012460237E+04  0.25500000000E-02 0. -1.
         -2   -1    0    0    0  501 -0.00000000000E+00 -0.00000000000E+00 -0.16181964283E+04  0.16181964283E+04  0.25500000000E-02 0.  1.
    8880022    1    1    2    0    0 -0.13311923234E+03 -0.62357718810E+03 -0.15057250578E+04  0.16423059527E+04  0.15294330000E+03 0.  0.
    8880022    1    1    2    0    0  0.13311923234E+03  0.62357718810E+03  0.23887746532E+04  0.24771364993E+04  0.15294330000E+03 0.  0.
<mgrwt>
<rscale>  0 0.65571403E+03</rscale>
<asrwt>0</asrwt>
<pdfrwt beam="1">  1        2 0.38480708E+00 0.65571403E+03</pdfrwt>
<pdfrwt beam="2">  1       -2 0.24895330E+00 0.65571403E+03</pdfrwt>
<totfact> 0.24853685E-01</totfact>
</mgrwt>
</event>
<event>
 4    1  0.5387657E-008  0.3879251E+03  0.7818608E-02  0.1048043E+00
         -2   -1    0    0    0  501 -0.00000000000E+00  0.00000000000E+00  0.24551503940E+03  0.24551503941E+03  0.25500000000E-02 0.  1.
          2   -1    0    0  501    0  0.00000000000E+00 -0.00000000000E+00 -0.65957950173E+03  0.65957950174E+03  0.25500000000E-02 0. -1.
    8880022    1    1    2    0    0 -0.18177372719E+03  0.30667981548E+03 -0.32737221397E+03  0.50760064678E+03  0.15294330000E+03 0.  0.
    8880022    1    1    2    0    0  0.18177372719E+03 -0.30667981548E+03 -0.86692248370E+02  0.39749389437E+03  0.15294330000E+03 0.  0.
<mgrwt>
<rscale>  0 0.38792506E+03</rscale>
<asrwt>0</asrwt>
<pdfrwt beam="1">  1        2 0.10147377E+00 0.38792506E+03</pdfrwt>
<pdfrwt beam="2">  1       -2 0.37771545E-01 0.38792506E+03</pdfrwt>
<totfact> 0.29957423E+02</totfact>
</mgrwt>
</event>
<event>
 4    1  0.5387657E-008  0.3691799E+03  0.7818608E-02  0.1055007E+00
          2   -1    0    0  501    0  0.00000000000E+00  0.00000000000E+00  0.25778825167E+04  0.25778825167E+04  0.25500000000E-02 0. -1.
         -2   -1    0    0    0  501 -0.00000000000E+00 -0.00000000000E+00 -0.12005660934E+03  0.12005660937E+03  0.25500000000E-02 0.  1.
    8880022    1    1    2    0    0  0.19576464607E+03 -0.27309039065E+03  0.22380473715E+04  0.22682922758E+04  0.15294330000E+03 0.  0.
    8880022    1    1    2    0    0 -0.19576464607E+03  0.27309039065E+03  0.21977853578E+03  0.42964685024E+03  0.15294330000E+03 0.  0.
<mgrwt>
<rscale>  0 0.36917992E+03</rscale>
<asrwt>0</asrwt>
<pdfrwt beam="1">  1        2 0.39659727E+00 0.36917992E+03</pdfrwt>
<pdfrwt beam="2">  1       -2 0.18470249E-01 0.36917992E+03</pdfrwt>
<totfact> 0.85570154E+01</totfact>
</mgrwt>
</event>
<event>
 4    1  0.5387657E-008  0.1589572E+03  0.7818608E-02  0.1189879E+00
         -2   -1    0    0    0  501 -0.00000000000E+00  0.00000000000E+00  0.96828121521E+03  0.96828121521E+03  0.25500000000E-02 0.  1.
          2   -1    0    0  501    0  0.00000000000E+00 -0.00000000000E+00 -0.11040021137E+03  0.11040021139E+03  0.25500000000E-02 0. -1.
    8880022    1    1    2    0    0 -0.40526389934E+02 -0.15276019256E+02  0.90024892153E+03  0.91417477474E+03  0.15294330000E+03 0.  0.
    8880022    1    1    2    0    0  0.40526389934E+02  0.15276019256E+02 -0.42367917682E+02  0.16450665187E+03  0.15294330000E+03 0. -1.
<mgrwt>
<rscale>  0 0.15895722E+03</rscale>
<asrwt>0</asrwt>
<pdfrwt beam="1">  1        2 0.16984647E-01 0.15895722E+03</pdfrwt>
<pdfrwt beam="2">  1       -2 0.14896635E+00 0.15895722E+03</pdfrwt>
<totfact> 0.10972932E+02</totfact>
</mgrwt>
</event>
<event>
 4    1  0.5387657E-008  0.5209791E+03  0.7818608E-02  0.1008444E+00
          2   -1    0    0  501    0  0.00000000000E+00  0.00000000000E+00  0.93782935494E+03  0.93782935494E+03  0.25500000000E-02 0. -1.
         -2   -1    0    0    0  501 -0.00000000000E+00 -0.00000000000E+00 -0.64894437972E+03  0.64894437972E+03  0.25500000000E-02 0.  1.
    8880022    1    1    2    0    0  0.18151805280E+03  0.46376581159E+03  0.73498368481E+03  0.90089966225E+03  0.15294330000E+03 0.  0.
    8880022    1    1    2    0    0 -0.18151805280E+03 -0.46376581159E+03 -0.44609870959E+03  0.68587407241E+03  0.15294330000E+03 0.  0.
<mgrwt>
<rscale>  0 0.52097906E+03</rscale>
<asrwt>0</asrwt>
<pdfrwt beam="1">  1        2 0.14428144E+00 0.52097906E+03</pdfrwt>
<pdfrwt beam="2">  1       -2 0.99837597E-01 0.52097906E+03</pdfrwt>
<totfact> 0.23935987E+01</totfact>
</mgrwt>
</event>
<event>
 4    1  0.5387657E-008  0.2208966E+03  0.7818608E-02  0.1133216E+00
          2   -1    0    0  501    0  0.00000000000E+00  0.00000000000E+00  0.47560112186E+04  0.47560112186E+04  0.25500000000E-02 0. -1.
         -2   -1    0    0    0  501 -0.00000000000E+00 -0.00000000000E+00 -0.10414220808E+02  0.10414221120E+02  0.25500000000E-02 0.  1.
    8880022    1    1    2    0    0 -0.10359830205E+03 -0.12112404493E+03  0.26630865658E+04  0.26722322789E+04  0.15294330000E+03 0. -1.
    8880022    1    1    2    0    0  0.10359830205E+03  0.12112404493E+03  0.20825104320E+04  0.20941931608E+04  0.15294330000E+03 0.  1.
<mgrwt>
<rscale>  0 0.22089657E+03</rscale>
<asrwt>0</asrwt>
<pdfrwt beam="1">  1        2 0.73169545E+00 0.22089657E+03</pdfrwt>
<pdfrwt beam="2">  1       -2 0.16021847E-02 0.22089657E+03</pdfrwt>
<totfact> 0.10451099E+02</totfact>
</mgrwt>
</event>
<event>
 4    1  0.5387657E-008  0.3862924E+03  0.7818608E-02  0.1048632E+00
          2   -1    0    0  501    0  0.00000000000E+00  0.00000000000E+00  0.25417142171E+04  0.25417142171E+04  0.25500000000E-02 0. -1.
         -2   -1    0    0    0  501 -0.00000000000E+00 -0.00000000000E+00 -0.99734395389E+02  0.99734395421E+02  0.25500000000E-02 0.  1.
    8880022    1    1    2    0    0  0.15022540076E+03  0.32134487573E+03  0.37392763048E+03  0.53762786948E+03  0.15294330000E+03 0.  1.
    8880022    1    1    2    0    0 -0.15022540076E+03 -0.32134487573E+03  0.20680521913E+04  0.21038207431E+04  0.15294330000E+03 0.  0.
<mgrwt>
<rscale>  0 0.38629245E+03</rscale>
<asrwt>0</asrwt>
<pdfrwt beam="1">  1        2 0.39103298E+00 0.38629245E+03</pdfrwt>
<pdfrwt beam="2">  1       -2 0.15343752E-01 0.38629245E+03</pdfrwt>
<totfact> 0.12218433E+02</totfact>
</mgrwt>
</event>
<event>
 4    1  0.5387657E-008  0.4979702E+03  0.7818608E-02  0.1014310E+00
         -2   -1    0    0    0  501 -0.00000000000E+00  0.00000000000E+00  0.32988650484E+03  0.32988650485E+03  0.25500000000E-02 0.  1.
          2   -1    0    0  501    0  0.00000000000E+00 -0.00000000000E+00 -0.13020026222E+04  0.13020026222E+04  0.25500000000E-02 0. -1.
    8880022    1    1    2    0    0  0.23531487209E+03 -0.41135096866E+03  0.44407386307E+02  0.49994637454E+03  0.15294330000E+03 0.  0.
    8880022    1    1    2    0    0 -0.23531487209E+03  0.41135096866E+03 -0.10165235037E+04  0.11319427525E+04  0.15294330000E+03 0.  0.
<mgrwt>
<rscale>  0 0.49797024E+03</rscale>
<asrwt>0</asrwt>
<pdfrwt beam="1">  1        2 0.20030809E+00 0.49797024E+03</pdfrwt>
<pdfrwt beam="2">  1       -2 0.50751771E-01 0.49797024E+03</pdfrwt>
<totfact> 0.63421917E+01</totfact>
</mgrwt>
</event>
<event>
 4    1  0.5387657E-008  0.5985373E+03  0.7818608E-02  0.9908445E-01
          2   -1    0    0  501    0  0.00000000000E+00  0.00000000000E+00  0.21182361763E+04  0.21182361763E+04  0.25500000000E-02 0. -1.
         -2   -1    0    0    0  501 -0.00000000000E+00 -0.00000000000E+00 -0.67118393278E+03  0.67118393279E+03  0.25500000000E-02 0.  1.
    8880022    1    1    2    0    0  0.56590630380E+03 -0.12085249107E+03  0.19297848214E+04  0.20204742956E+04  0.15294330000E+03 0.  0.
    8880022    1    1    2    0    0 -0.56590630380E+03  0.12085249107E+03 -0.48273257790E+03  0.76894581347E+03  0.15294330000E+03 0.  0.
<mgrwt>
<rscale>  0 0.59853732E+03</rscale>
<asrwt>0</asrwt>
<pdfrwt beam="1">  1        2 0.32588248E+00 0.59853732E+03</pdfrwt>
<pdfrwt beam="2">  1       -2 0.10325907E+00 0.59853732E+03</pdfrwt>
<totfact> 0.46978425E+00</totfact>
</mgrwt>
</event>
<event>
 4    1  0.5387657E-008  0.4381017E+03  0.7818608E-02  0.1031331E+00
         -2   -1    0    0    0  501 -0.00000000000E+00  0.00000000000E+00  0.27930986893E+03  0.27930986894E+03  0.25500000000E-02 0.  1.
          2   -1    0    0  501    0  0.00000000000E+00 -0.00000000000E+00 -0.17458163268E+04  0.17458163268E+04  0.25500000000E-02 0. -1.
    8880022    1    1    2    0    0  0.31848853112E+03 -0.25904930049E+03 -0.15217473021E+04  0.15835554897E+04  0.15294330000E+03 0.  0.
    8880022    1    1    2    0    0 -0.31848853112E+03  0.25904930049E+03  0.55240844222E+02  0.44157070603E+03  0.15294330000E+03 0.  0.
<mgrwt>
<rscale>  0 0.43810174E+03</rscale>
<asrwt>0</asrwt>
<pdfrwt beam="1">  1        2 0.26858712E+00 0.43810174E+03</pdfrwt>
<pdfrwt beam="2">  1       -2 0.42970750E-01 0.43810174E+03</pdfrwt>
<totfact> 0.50984558E+01</totfact>
</mgrwt>
</event>
<event>
 4    1  0.5387657E-008  0.9935856E+03  0.7818608E-02  0.9315608E-01
         -2   -1    0    0    0  501 -0.00000000000E+00  0.00000000000E+00  0.17417181062E+04  0.17417181062E+04  0.25500000000E-02 0.  1.
          2   -1    0    0  501    0  0.00000000000E+00 -0.00000000000E+00 -0.73019160773E+03  0.73019160773E+03  0.25500000000E-02 0. -1.
    8880022    1    1    2    0    0  0.82676558703E+03 -0.52941414286E+03  0.10904107566E+04  0.14751975941E+04  0.15294330000E+03 0.  0.
    8880022    1    1    2    0    0 -0.82676558703E+03  0.52941414286E+03 -0.78884258157E+02  0.99671211980E+03  0.15294330000E+03 0.  0.
<mgrwt>
<rscale>  0 0.99358559E+03</rscale>
<asrwt>0</asrwt>
<pdfrwt beam="1">  1        2 0.11233717E+00 0.99358559E+03</pdfrwt>
<pdfrwt beam="2">  1       -2 0.26795663E+00 0.99358559E+03</pdfrwt>
<totfact> 0.19384496E+00</totfact>
</mgrwt>
</event>
<event>
 4    1  0.5387657E-008  0.4329817E+03  0.7818608E-02  0.1032922E+00
         -2   -1    0    0    0  501 -0.00000000000E+00  0.00000000000E+00  0.19434233431E+04  0.19434233431E+04  0.25500000000E-02 0.  1.
          2   -1    0    0  501    0  0.00000000000E+00 -0.00000000000E+00 -0.34926448915E+03  0.34926448916E+03  0.25500000000E-02 0. -1.
    8880022    1    1    2    0    0  0.18382011971E+03 -0.36095940536E+03  0.17723507073E+04  0.18244725844E+04  0.15294330000E+03 0.  1.
    8880022    1    1    2    0    0 -0.18382011971E+03  0.36095940536E+03 -0.17819185330E+03  0.46821524786E+03  0.15294330000E+03 0.  0.
<mgrwt>
<rscale>  0 0.43298173E+03</rscale>
<asrwt>0</asrwt>
<pdfrwt beam="1">  1        2 0.53732999E-01 0.43298173E+03</pdfrwt>
<pdfrwt beam="2">  1       -2 0.29898820E+00 0.43298173E+03</pdfrwt>
<totfact> 0.32942550E+00</totfact>
</mgrwt>
</event>
<event>
 4    1  0.5387657E-008  0.8517099E+03  0.7818608E-02  0.9488045E-01
         -2   -1    0    0    0  501 -0.00000000000E+00  0.00000000000E+00  0.81643134440E+03  0.81643134440E+03  0.25500000000E-02 0.  1.
          2   -1    0    0  501    0  0.00000000000E+00 -0.00000000000E+00 -0.16485422488E+04  0.16485422488E+04  0.25500000000E-02 0. -1.
    8880022    1    1    2    0    0  0.83217611661E+03 -0.97472979581E+02  0.42079419291E+03  0.94998814551E+03  0.15294330000E+03 0.  1.
    8880022    1    1    2    0    0 -0.83217611661E+03  0.97472979581E+02 -0.12529050973E+04  0.15149854476E+04  0.15294330000E+03 0.  0.
<mgrwt>
<rscale>  0 0.85170988E+03</rscale>
<asrwt>0</asrwt>
<pdfrwt beam="1">  1        2 0.25362188E+00 0.85170988E+03</pdfrwt>
<pdfrwt beam="2">  1       -2 0.12560482E+00 0.85170988E+03</pdfrwt>
<totfact> 0.50287861E+00</totfact>
</mgrwt>
</event>
<event>
 4    1  0.5387657E-008  0.8580353E+03  0.7818608E-02  0.9479615E-01
         -2   -1    0    0    0  501 -0.00000000000E+00  0.00000000000E+00  0.93345760666E+03  0.93345760666E+03  0.25500000000E-02 0.  1.
          2   -1    0    0  501    0  0.00000000000E+00 -0.00000000000E+00 -0.11253976522E+04  0.11253976522E+04  0.25500000000E-02 0. -1.
    8880022    1    1    2    0    0  0.48212234532E+03  0.69310244721E+03 -0.65903472665E+03  0.10819202291E+04  0.15294330000E+03 0.  0.
    8880022    1    1    2    0    0 -0.48212234532E+03 -0.69310244721E+03  0.46709468114E+03  0.97693502974E+03  0.15294330000E+03 0.  0.
<mgrwt>
<rscale>  0 0.85803532E+03</rscale>
<asrwt>0</asrwt>
<pdfrwt beam="1">  1        2 0.17313810E+00 0.85803532E+03</pdfrwt>
<pdfrwt beam="2">  1       -2 0.14360886E+00 0.85803532E+03</pdfrwt>
<totfact> 0.71078502E+00</totfact>
</mgrwt>
</event>
<event>
 4    1  0.5387657E-008  0.2525370E+03  0.7818608E-02  0.1111712E+00
          2   -1    0    0  501    0  0.00000000000E+00  0.00000000000E+00  0.44330353338E+03  0.44330353338E+03  0.25500000000E-02 0. -1.
         -2   -1    0    0    0  501 -0.00000000000E+00 -0.00000000000E+00 -0.26019474872E+03  0.26019474873E+03  0.25500000000E-02 0.  1.
    8880022    1    1    2    0    0  0.19482103586E+03 -0.49275303047E+02 -0.14364329319E+03  0.29053113464E+03  0.15294330000E+03 0.  1.
    8880022    1    1    2    0    0 -0.19482103586E+03  0.49275303047E+02  0.32675207785E+03  0.41296714748E+03  0.15294330000E+03 0.  0.
<mgrwt>
<rscale>  0 0.25253702E+03</rscale>
<asrwt>0</asrwt>
<pdfrwt beam="1">  1        2 0.68200543E-01 0.25253702E+03</pdfrwt>
<pdfrwt beam="2">  1       -2 0.40029962E-01 0.25253702E+03</pdfrwt>
<totfact> 0.42665571E+02</totfact>
</mgrwt>
</event>
<event>
 4    1  0.5387657E-008  0.1082516E+04  0.7818608E-02  0.9222403E-01
         -2   -1    0    0    0  501 -0.00000000000E+00  0.00000000000E+00  0.66606086876E+03  0.66606086877E+03  0.25500000000E-02 0.  1.
          2   -1    0    0  501    0  0.00000000000E+00 -0.00000000000E+00 -0.21333197489E+04  0.21333197489E+04  0.25500000000E-02 0. -1.
    8880022    1    1    2    0    0  0.97779208706E+03 -0.43860125230E+03 -0.14760317317E+03  0.10925322759E+04  0.15294330000E+03 0.  0.
    8880022    1    1    2    0    0 -0.97779208706E+03  0.43860125230E+03 -0.13196557070E+04  0.17068483418E+04  0.15294330000E+03 0.  0.
<mgrwt>
<rscale>  0 0.10825156E+04</rscale>
<asrwt>0</asrwt>
<pdfrwt beam="1">  1        2 0.32820303E+00 0.10825156E+04</pdfrwt>
<pdfrwt beam="2">  1       -2 0.10247090E+00 0.10825156E+04</pdfrwt>
<totfact> 0.43524855E+00</totfact>
</mgrwt>
</event>
<event>
 4    1  0.5387657E-008  0.6430687E+03  0.7818608E-02  0.9819873E-01
         -2   -1    0    0    0  501 -0.00000000000E+00  0.00000000000E+00  0.85567917089E+03  0.85567917089E+03  0.25500000000E-02 0.  1.
          2   -1    0    0  501    0  0.00000000000E+00 -0.00000000000E+00 -0.87383583764E+03  0.87383583765E+03  0.25500000000E-02 0. -1.
    8880022    1    1    2    0    0  0.57517810269E+03  0.24354853508E+03 -0.58719818961E+03  0.87082667946E+03  0.15294330000E+03 0.  0.
    8880022    1    1    2    0    0 -0.57517810269E+03 -0.24354853508E+03  0.56904152286E+03  0.85868832909E+03  0.15294330000E+03 0.  1.
<mgrwt>
<rscale>  0 0.64306873E+03</rscale>
<asrwt>0</asrwt>
<pdfrwt beam="1">  1        2 0.13443628E+00 0.64306873E+03</pdfrwt>
<pdfrwt beam="2">  1       -2 0.13164295E+00 0.64306873E+03</pdfrwt>
<totfact> 0.13223150E+01</totfact>
</mgrwt>
</event>
<event>
 4    1  0.5387657E-008  0.5700432E+03  0.7818608E-02  0.9969583E-01
         -2   -1    0    0    0  501 -0.00000000000E+00  0.00000000000E+00  0.11973925254E+04  0.11973925254E+04  0.25500000000E-02 0.  1.
          2   -1    0    0  501    0  0.00000000000E+00 -0.00000000000E+00 -0.35346602202E+03  0.35346602203E+03  0.25500000000E-02 0. -1.
    8880022    1    1    2    0    0  0.42339837409E+03  0.34970195378E+03  0.48282306693E+02  0.57208432404E+03  0.15294330000E+03 0.  0.
    8880022    1    1    2    0    0 -0.42339837409E+03 -0.34970195378E+03  0.79564419671E+03  0.97877422342E+03  0.15294330000E+03 0.  0.
<mgrwt>
<rscale>  0 0.57004324E+03</rscale>
<asrwt>0</asrwt>
<pdfrwt beam="1">  1        2 0.54379387E-01 0.57004324E+03</pdfrwt>
<pdfrwt beam="2">  1       -2 0.18421424E+00 0.57004324E+03</pdfrwt>
<totfact> 0.16040833E+01</totfact>
</mgrwt>
</event>
<event>
 4    1  0.5387657E-008  0.1441100E+04  0.7818608E-02  0.8924594E-01
         -2   -1    0    0    0  501 -0.00000000000E+00  0.00000000000E+00  0.93164784444E+03  0.93164784444E+03  0.25500000000E-02 0.  1.
          2   -1    0    0  501    0  0.00000000000E+00 -0.00000000000E+00 -0.48080566665E+04  0.48080566665E+04  0.25500000000E-02 0. -1.
    8880022    1    1    2    0    0  0.10836952427E+04  0.93754086264E+03  0.16360691458E+03  0.14503575847E+04  0.15294330000E+03 0.  0.
    8880022    1    1    2    0    0 -0.10836952427E+04 -0.93754086264E+03 -0.40400157367E+04  0.42893469263E+04  0.15294330000E+03 0.  0.
<mgrwt>
<rscale>  0 0.14411002E+04</rscale>
<asrwt>0</asrwt>
<pdfrwt beam="1">  1        2 0.73970101E+00 0.14411002E+04</pdfrwt>
<pdfrwt beam="2">  1       -2 0.14333044E+00 0.14411002E+04</pdfrwt>
<totfact> 0.19503850E-02</totfact>
</mgrwt>
</event>
<event>
 4    1  0.5387657E-008  0.4221715E+03  0.7818608E-02  0.1036362E+00
          2   -1    0    0  501    0  0.00000000000E+00  0.00000000000E+00  0.18443340552E+04  0.18443340552E+04  0.25500000000E-02 0. -1.
         -2   -1    0    0    0  501 -0.00000000000E+00 -0.00000000000E+00 -0.34659950924E+03  0.34659950925E+03  0.25500000000E-02 0.  1.
    8880022    1    1    2    0    0 -0.34070222442E+03  0.19687329208E+03 -0.18143417235E+03  0.45950746542E+03  0.15294330000E+03 0.  0.
    8880022    1    1    2    0    0  0.34070222442E+03 -0.19687329208E+03  0.16791687183E+04  0.17314260991E+04  0.15294330000E+03 0. -1.
<mgrwt>
<rscale>  0 0.42217147E+03</rscale>
<asrwt>0</asrwt>
<pdfrwt beam="1">  1        2 0.28374371E+00 0.42217147E+03</pdfrwt>
<pdfrwt beam="2">  1       -2 0.53323001E-01 0.42217147E+03</pdfrwt>
<totfact> 0.29418101E+01</totfact>
</mgrwt>
</event>
<event>
 4    1  0.5387657E-008  0.3525599E+03  0.7818608E-02  0.1061569E+00
          2   -1    0    0  501    0  0.00000000000E+00  0.00000000000E+00  0.12891681220E+04  0.12891681220E+04  0.25500000000E-02 0. -1.
         -2   -1    0    0    0  501 -0.00000000000E+00 -0.00000000000E+00 -0.49593030096E+03  0.49593030097E+03  0.25500000000E-02 0.  1.
    8880022    1    1    2    0    0  0.22408535679E+03 -0.22515014403E+03  0.11977196776E+04  0.12485315028E+04  0.15294330000E+03 0.  0.
    8880022    1    1    2    0    0 -0.22408535679E+03  0.22515014403E+03 -0.40448185655E+03  0.53656692013E+03  0.15294330000E+03 0.  1.
<mgrwt>
<rscale>  0 0.35255991E+03</rscale>
<asrwt>0</asrwt>
<pdfrwt beam="1">  1        2 0.19833356E+00 0.35255991E+03</pdfrwt>
<pdfrwt beam="2">  1       -2 0.76296969E-01 0.35255991E+03</pdfrwt>
<totfact> 0.28001412E+01</totfact>
</mgrwt>
</event>
<event>
 4    1  0.5387657E-008  0.1079215E+04  0.7818608E-02  0.9225691E-01
         -2   -1    0    0    0  501 -0.00000000000E+00  0.00000000000E+00  0.77847913679E+03  0.77847913679E+03  0.25500000000E-02 0.  1.
          2   -1    0    0  501    0  0.00000000000E+00 -0.00000000000E+00 -0.18715694912E+04  0.18715694912E+04  0.25500000000E-02 0. -1.
    8880022    1    1    2    0    0 -0.76659868675E+03 -0.74406939125E+03  0.46915549279E+02  0.10802340151E+04  0.15294330000E+03 0.  0.
    8880022    1    1    2    0    0  0.76659868675E+03  0.74406939125E+03 -0.11400059037E+04  0.15698146130E+04  0.15294330000E+03 0.  0.
<mgrwt>
<rscale>  0 0.10792147E+04</rscale>
<asrwt>0</asrwt>
<pdfrwt beam="1">  1        2 0.28793377E+00 0.10792147E+04</pdfrwt>
<pdfrwt beam="2">  1       -2 0.11976602E+00 0.10792147E+04</pdfrwt>
<totfact> 0.41523729E+00</totfact>
</mgrwt>
</event>
<event>
 4    1  0.5387657E-008  0.6079448E+03  0.7818608E-02  0.9889059E-01
          2   -1    0    0  501    0  0.00000000000E+00  0.00000000000E+00  0.24454420337E+04  0.24454420337E+04  0.25500000000E-02 0. -1.
         -2   -1    0    0    0  501 -0.00000000000E+00 -0.00000000000E+00 -0.32100783712E+03  0.32100783713E+03  0.25500000000E-02 0.  1.
    8880022    1    1    2    0    0 -0.12151382099E+03  0.57570793273E+03  0.55993852602E+02  0.61051797438E+03  0.15294330000E+03 0.  0.
    8880022    1    1    2    0    0  0.12151382099E+03 -0.57570793273E+03  0.20684403440E+04  0.21559318964E+04  0.15294330000E+03 0.  0.
<mgrwt>
<rscale>  0 0.60794480E+03</rscale>
<asrwt>0</asrwt>
<pdfrwt beam="1">  1        2 0.37622186E+00 0.60794480E+03</pdfrwt>
<pdfrwt beam="2">  1       -2 0.49385820E-01 0.60794480E+03</pdfrwt>
<totfact> 0.15571959E+01</totfact>
</mgrwt>
</event>
<event>
 4    1  0.5387657E-008  0.9326456E+03  0.7818608E-02  0.9385668E-01
          2   -1    0    0  501    0  0.00000000000E+00  0.00000000000E+00  0.25735250570E+04  0.25735250570E+04  0.25500000000E-02 0. -1.
         -2   -1    0    0    0  501 -0.00000000000E+00 -0.00000000000E+00 -0.35199216548E+03  0.35199216549E+03  0.25500000000E-02 0.  1.
    8880022    1    1    2    0    0  0.53499837667E+03  0.74847376214E+03  0.81902993558E+03  0.12412243649E+04  0.15294330000E+03 0.  0.
    8880022    1    1    2    0    0 -0.53499837667E+03 -0.74847376214E+03  0.14025029560E+04  0.16842928576E+04  0.15294330000E+03 0.  0.
<mgrwt>
<rscale>  0 0.93264564E+03</rscale>
<asrwt>0</asrwt>
<pdfrwt beam="1">  1        2 0.39592693E+00 0.93264564E+03</pdfrwt>
<pdfrwt beam="2">  1       -2 0.54152641E-01 0.93264564E+03</pdfrwt>
<totfact> 0.10353039E+01</totfact>
</mgrwt>
</event>
<event>
 4    1  0.5387657E-008  0.5839704E+03  0.7818608E-02  0.9939232E-01
         -2   -1    0    0    0  501 -0.00000000000E+00  0.00000000000E+00  0.10691152515E+04  0.10691152515E+04  0.25500000000E-02 0.  1.
          2   -1    0    0  501    0  0.00000000000E+00 -0.00000000000E+00 -0.50167598144E+03  0.50167598145E+03  0.25500000000E-02 0. -1.
    8880022    1    1    2    0    0  0.35306328663E+03  0.43929038670E+03 -0.19024602423E+03  0.61417825666E+03  0.15294330000E+03 0.  0.
    8880022    1    1    2    0    0 -0.35306328663E+03 -0.43929038670E+03  0.75768529428E+03  0.95661297628E+03  0.15294330000E+03 0.  0.
<mgrwt>
<rscale>  0 0.58397036E+03</rscale>
<asrwt>0</asrwt>
<pdfrwt beam="1">  1        2 0.77180921E-01 0.58397036E+03</pdfrwt>
<pdfrwt beam="2">  1       -2 0.16447927E+00 0.58397036E+03</pdfrwt>
<totfact> 0.14800235E+01</totfact>
</mgrwt>
</event>
<event>
 4    1  0.5387657E-008  0.2108337E+03  0.7818608E-02  0.1140907E+00
          2   -1    0    0  501    0  0.00000000000E+00  0.00000000000E+00  0.10630216511E+03  0.10630216514E+03  0.25500000000E-02 0. -1.
         -2   -1    0    0    0  501 -0.00000000000E+00 -0.00000000000E+00 -0.11424423736E+04  0.11424423736E+04  0.25500000000E-02 0.  1.
    8880022    1    1    2    0    0 -0.10220585091E+03  0.10302025944E+03 -0.10152135105E+04  0.10368747922E+04  0.15294330000E+03 0.  0.
    8880022    1    1    2    0    0  0.10220585091E+03 -0.10302025944E+03 -0.20926698063E+02  0.21186974659E+03  0.15294330000E+03 0.  0.
<mgrwt>
<rscale>  0 0.21083373E+03</rscale>
<asrwt>0</asrwt>
<pdfrwt beam="1">  1        2 0.16354180E-01 0.21083373E+03</pdfrwt>
<pdfrwt beam="2">  1       -2 0.17576036E+00 0.21083373E+03</pdfrwt>
<totfact> 0.73731137E+01</totfact>
</mgrwt>
</event>
<event>
 4    1  0.5387657E-008  0.2845271E+03  0.7818608E-02  0.1093242E+00
         -2   -1    0    0    0  501 -0.00000000000E+00  0.00000000000E+00  0.34869430693E+03  0.34869430694E+03  0.25500000000E-02 0.  1.
          2   -1    0    0  501    0  0.00000000000E+00 -0.00000000000E+00 -0.16833476165E+04  0.16833476165E+04  0.25500000000E-02 0. -1.
    8880022    1    1    2    0    0  0.22738467315E+03 -0.76552300677E+02 -0.16106842112E+04  0.16356219996E+04  0.15294330000E+03 0. -1.
    8880022    1    1    2    0    0 -0.22738467315E+03  0.76552300677E+02  0.27603090165E+03  0.39641992383E+03  0.15294330000E+03 0.  0.
<mgrwt>
<rscale>  0 0.28452715E+03</rscale>
<asrwt>0</asrwt>
<pdfrwt beam="1">  1        2 0.25897655E+00 0.28452715E+03</pdfrwt>
<pdfrwt beam="2">  1       -2 0.53645279E-01 0.28452715E+03</pdfrwt>
<totfact> 0.36722392E+01</totfact>
</mgrwt>
</event>
<event>
 4    1  0.5387657E-008  0.3432967E+03  0.7818608E-02  0.1065400E+00
         -2   -1    0    0    0  501 -0.00000000000E+00  0.00000000000E+00  0.62874464353E+03  0.62874464353E+03  0.25500000000E-02 0.  1.
          2   -1    0    0  501    0  0.00000000000E+00 -0.00000000000E+00 -0.41759254290E+03  0.41759254291E+03  0.25500000000E-02 0. -1.
    8880022    1    1    2    0    0 -0.32622219789E+02  0.30560887546E+03 -0.28281754448E+03  0.44479029942E+03  0.15294330000E+03 0.  0.
    8880022    1    1    2    0    0  0.32622219789E+02 -0.30560887546E+03  0.49396964510E+03  0.60154688702E+03  0.15294330000E+03 0.  0.
<mgrwt>
<rscale>  0 0.34329673E+03</rscale>
<asrwt>0</asrwt>
<pdfrwt beam="1">  1        2 0.64245007E-01 0.34329673E+03</pdfrwt>
<pdfrwt beam="2">  1       -2 0.96729945E-01 0.34329673E+03</pdfrwt>
<totfact> 0.70657324E+01</totfact>
</mgrwt>
</event>
<event>
 4    1  0.5387657E-008  0.5672551E+03  0.7818608E-02  0.9975771E-01
         -2   -1    0    0    0  501 -0.00000000000E+00  0.00000000000E+00  0.22698703601E+03  0.22698703603E+03  0.25500000000E-02 0.  1.
          2   -1    0    0  501    0  0.00000000000E+00 -0.00000000000E+00 -0.19930515616E+04  0.19930515616E+04  0.25500000000E-02 0. -1.
    8880022    1    1    2    0    0  0.49407134844E+03 -0.23298104563E+03 -0.28658347228E+03  0.63553788602E+03  0.15294330000E+03 0.  0.
    8880022    1    1    2    0    0 -0.49407134844E+03  0.23298104563E+03 -0.14794810533E+04  0.15845007116E+04  0.15294330000E+03 0.  0.
<mgrwt>
<rscale>  0 0.56725507E+03</rscale>
<asrwt>0</asrwt>
<pdfrwt beam="1">  1        2 0.30662331E+00 0.56725507E+03</pdfrwt>
<pdfrwt beam="2">  1       -2 0.34921084E-01 0.56725507E+03</pdfrwt>
<totfact> 0.54731380E+01</totfact>
</mgrwt>
</event>
<event>
 4    1  0.5387657E-008  0.6739735E+03  0.7818608E-02  0.9762806E-01
         -2   -1    0    0    0  501 -0.00000000000E+00  0.00000000000E+00  0.75664864812E+03  0.75664864813E+03  0.25500000000E-02 0.  1.
          2   -1    0    0  501    0  0.00000000000E+00 -0.00000000000E+00 -0.66091020887E+03  0.66091020888E+03  0.25500000000E-02 0. -1.
    8880022    1    1    2    0    0  0.21210739270E+02  0.65604783442E+03 -0.16671535467E+03  0.69428691404E+03  0.15294330000E+03 0.  0.
    8880022    1    1    2    0    0 -0.21210739270E+02 -0.65604783442E+03  0.26245379392E+03  0.72327194296E+03  0.15294330000E+03 0.  0.
<mgrwt>
<rscale>  0 0.67397352E+03</rscale>
<asrwt>0</asrwt>
<pdfrwt beam="1">  1        2 0.10167849E+00 0.67397352E+03</pdfrwt>
<pdfrwt beam="2">  1       -2 0.11640748E+00 0.67397352E+03</pdfrwt>
<totfact> 0.25722277E+01</totfact>
</mgrwt>
</event>
<event>
 4    1  0.5387657E-008  0.9189011E+03  0.7818608E-02  0.9402258E-01
         -2   -1    0    0    0  501 -0.00000000000E+00  0.00000000000E+00  0.65180258126E+03  0.65180258127E+03  0.25500000000E-02 0.  1.
          2   -1    0    0  501    0  0.00000000000E+00 -0.00000000000E+00 -0.21311318423E+04  0.21311318423E+04  0.25500000000E-02 0. -1.
    8880022    1    1    2    0    0 -0.83705287780E+03  0.34688613271E+03  0.13167546655E+03  0.92828745053E+03  0.15294330000E+03 0.  0.
    8880022    1    1    2    0    0  0.83705287780E+03 -0.34688613271E+03 -0.16110047276E+04  0.18546469731E+04  0.15294330000E+03 0.  0.
<mgrwt>
<rscale>  0 0.91890106E+03</rscale>
<asrwt>0</asrwt>
<pdfrwt beam="1">  1        2 0.32786643E+00 0.91890106E+03</pdfrwt>
<pdfrwt beam="2">  1       -2 0.10027732E+00 0.91890106E+03</pdfrwt>
<totfact> 0.46924829E+00</totfact>
</mgrwt>
</event>
<event>
 4    1  0.5387657E-008  0.8942827E+03  0.7818608E-02  0.9432757E-01
          2   -1    0    0  501    0  0.00000000000E+00  0.00000000000E+00  0.15506134668E+04  0.15506134668E+04  0.25500000000E-02 0. -1.
         -2   -1    0    0    0  501 -0.00000000000E+00 -0.00000000000E+00 -0.67387121339E+03  0.67387121340E+03  0.25500000000E-02 0.  1.
    8880022    1    1    2    0    0  0.54871699484E+03 -0.68939072294E+03 -0.10038822525E+03  0.89989963778E+03  0.15294330000E+03 0.  0.
    8880022    1    1    2    0    0 -0.54871699484E+03  0.68939072294E+03  0.97713047868E+03  0.13245850425E+04  0.15294330000E+03 0.  0.
<mgrwt>
<rscale>  0 0.89428271E+03</rscale>
<asrwt>0</asrwt>
<pdfrwt beam="1">  1        2 0.23855591E+00 0.89428271E+03</pdfrwt>
<pdfrwt beam="2">  1       -2 0.10367250E+00 0.89428271E+03</pdfrwt>
<totfact> 0.90726030E+00</totfact>
</mgrwt>
</event>
<event>
 4    1  0.5387657E-008  0.7350044E+03  0.7818608E-02  0.9659174E-01
          2   -1    0    0  501    0  0.00000000000E+00  0.00000000000E+00  0.15012489514E+04  0.15012489514E+04  0.25500000000E-02 0. -1.
         -2   -1    0    0    0  501 -0.00000000000E+00 -0.00000000000E+00 -0.50943014697E+03  0.50943014697E+03  0.25500000000E-02 0.  1.
    8880022    1    1    2    0    0  0.71181163459E+03 -0.10081649632E+03 -0.48844899003E+02  0.73662558077E+03  0.15294330000E+03 0.  0.
    8880022    1    1    2    0    0 -0.71181163459E+03  0.10081649632E+03  0.10406637034E+04  0.12740535176E+04  0.15294330000E+03 0.  0.
<mgrwt>
<rscale>  0 0.73500437E+03</rscale>
<asrwt>0</asrwt>
<pdfrwt beam="1">  1        2 0.23096138E+00 0.73500437E+03</pdfrwt>
<pdfrwt beam="2">  1       -2 0.78373869E-01 0.73500437E+03</pdfrwt>
<totfact> 0.18821627E+01</totfact>
</mgrwt>
</event>
<event>
 4    1  0.5553406E-008  0.6287239E+03  0.7818608E-02  0.9847542E-01
          2   -1    0    0  501    0  0.00000000000E+00  0.00000000000E+00  0.18734738082E+04  0.18734738082E+04  0.25500000000E-02 0. -1.
         -2   -1    0    0    0  501 -0.00000000000E+00 -0.00000000000E+00 -0.10122353355E+04  0.10122353355E+04  0.25500000000E-02 0.  1.
    8880022    1    1    2    0    0 -0.48981514084E+03 -0.36329488697E+03  0.17143182322E+04  0.18259739049E+04  0.15294330000E+03 0.  0.
    8880022    1    1    2    0    0  0.48981514084E+03  0.36329488697E+03 -0.85307975960E+03  0.10597352388E+04  0.15294330000E+03 0.  0.
<mgrwt>
<rscale>  0 0.62872387E+03</rscale>
<asrwt>0</asrwt>
<pdfrwt beam="1">  1        2 0.28822674E+00 0.62872387E+03</pdfrwt>
<pdfrwt beam="2">  1       -2 0.15572851E+00 0.62872387E+03</pdfrwt>
<totfact> 0.22579750E+00</totfact>
</mgrwt>
</event>
<event>
 4    1  0.5387657E-008  0.9256229E+03  0.7818608E-02  0.9394106E-01
          2   -1    0    0  501    0  0.00000000000E+00  0.00000000000E+00  0.68965585635E+03  0.68965585635E+03  0.25500000000E-02 0. -1.
         -2   -1    0    0    0  501 -0.00000000000E+00 -0.00000000000E+00 -0.23548539521E+04  0.23548539522E+04  0.25500000000E-02 0.  1.
    8880022    1    1    2    0    0  0.11335346473E+03 -0.90583502061E+03 -0.18789099765E+04  0.20945358544E+04  0.15294330000E+03 0.  0.
    8880022    1    1    2    0    0 -0.11335346473E+03  0.90583502061E+03  0.21371188070E+03  0.94997395411E+03  0.15294330000E+03 0.  0.
<mgrwt>
<rscale>  0 0.92562290E+03</rscale>
<asrwt>0</asrwt>
<pdfrwt beam="1">  1        2 0.10610090E+00 0.92562290E+03</pdfrwt>
<pdfrwt beam="2">  1       -2 0.36228522E+00 0.92562290E+03</pdfrwt>
<totfact> 0.55710419E-01</totfact>
</mgrwt>
</event>
<event>
 4    1  0.5387657E-008  0.3993763E+03  0.7818608E-02  0.1043996E+00
          2   -1    0    0  501    0  0.00000000000E+00  0.00000000000E+00  0.12309911149E+04  0.12309911149E+04  0.25500000000E-02 0. -1.
         -2   -1    0    0    0  501 -0.00000000000E+00 -0.00000000000E+00 -0.17752395717E+03  0.17752395719E+03  0.25500000000E-02 0.  1.
    8880022    1    1    2    0    0  0.36172269105E+03 -0.72570589372E+02  0.89275638316E+03  0.97801605731E+03  0.15294330000E+03 0. -1.
    8880022    1    1    2    0    0 -0.36172269105E+03  0.72570589372E+02  0.16071077459E+03  0.43049901480E+03  0.15294330000E+03 0.  0.
<mgrwt>
<rscale>  0 0.39937632E+03</rscale>
<asrwt>0</asrwt>
<pdfrwt beam="1">  1        2 0.18938326E+00 0.39937632E+03</pdfrwt>
<pdfrwt beam="2">  1       -2 0.27311377E-01 0.39937632E+03</pdfrwt>
<totfact> 0.23068400E+02</totfact>
</mgrwt>
</event>
<event>
 4    1  0.5387657E-008  0.7331300E+03  0.7818608E-02  0.9662195E-01
         -2   -1    0    0    0  501 -0.00000000000E+00  0.00000000000E+00  0.28708236019E+03  0.28708236020E+03  0.25500000000E-02 0.  1.
          2   -1    0    0  501    0  0.00000000000E+00 -0.00000000000E+00 -0.27698554097E+04  0.27698554097E+04  0.25500000000E-02 0. -1.
    8880022    1    1    2    0    0 -0.33061682818E+03  0.63622361381E+03 -0.37126586312E+03  0.82177732262E+03  0.15294330000E+03 0.  0.
    8880022    1    1    2    0    0  0.33061682818E+03 -0.63622361381E+03 -0.21115071864E+04  0.22351604472E+04  0.15294330000E+03 0. -1.
<mgrwt>
<rscale>  0 0.73313002E+03</rscale>
<asrwt>0</asrwt>
<pdfrwt beam="1">  1        2 0.42613158E+00 0.73313002E+03</pdfrwt>
<pdfrwt beam="2">  1       -2 0.44166519E-01 0.73313002E+03</pdfrwt>
<totfact> 0.12407701E+01</totfact>
</mgrwt>
</event>
<event>
 4    1  0.5387657E-008  0.5277487E+03  0.7818608E-02  0.1006780E+00
          2   -1    0    0  501    0  0.00000000000E+00  0.00000000000E+00  0.46622479811E+03  0.46622479812E+03  0.25500000000E-02 0. -1.
         -2   -1    0    0    0  501 -0.00000000000E+00 -0.00000000000E+00 -0.93418440784E+03  0.93418440785E+03  0.25500000000E-02 0.  1.
    8880022    1    1    2    0    0  0.48968568918E+03 -0.12383453002E+03  0.18644675252E+03  0.55971520397E+03  0.15294330000E+03 0.  0.
    8880022    1    1    2    0    0 -0.48968568918E+03  0.12383453002E+03 -0.65440636226E+03  0.84069400199E+03  0.15294330000E+03 0.  0.
<mgrwt>
<rscale>  0 0.52774873E+03</rscale>
<asrwt>0</asrwt>
<pdfrwt beam="1">  1        2 0.71726892E-01 0.52774873E+03</pdfrwt>
<pdfrwt beam="2">  1       -2 0.14372068E+00 0.52774873E+03</pdfrwt>
<totfact> 0.23184932E+01</totfact>
</mgrwt>
</event>
<event>
 4    1  0.5387657E-008  0.5579751E+03  0.7818608E-02  0.9996647E-01
          2   -1    0    0  501    0  0.00000000000E+00  0.00000000000E+00  0.66128339256E+03  0.66128339257E+03  0.25500000000E-02 0. -1.
         -2   -1    0    0    0  501 -0.00000000000E+00 -0.00000000000E+00 -0.60464618428E+03  0.60464618428E+03  0.25500000000E-02 0.  1.
    8880022    1    1    2    0    0 -0.37364305655E+03 -0.38514331932E+03  0.32611690743E+03  0.64628817137E+03  0.15294330000E+03 0.  0.
    8880022    1    1    2    0    0  0.37364305655E+03  0.38514331932E+03 -0.26947969915E+03  0.61964140548E+03  0.15294330000E+03 0.  0.
<mgrwt>
<rscale>  0 0.55797506E+03</rscale>
<asrwt>0</asrwt>
<pdfrwt beam="1">  1        2 0.10173591E+00 0.55797506E+03</pdfrwt>
<pdfrwt beam="2">  1       -2 0.93022489E-01 0.55797506E+03</pdfrwt>
<totfact> 0.44374582E+01</totfact>
</mgrwt>
</event>
<event>
 4    1  0.5387657E-008  0.9387976E+03  0.7818608E-02  0.9378341E-01
         -2   -1    0    0    0  501 -0.00000000000E+00  0.00000000000E+00  0.15385621746E+04  0.15385621746E+04  0.25500000000E-02 0.  1.
          2   -1    0    0  501    0  0.00000000000E+00 -0.00000000000E+00 -0.12513898780E+04  0.12513898780E+04  0.25500000000E-02 0. -1.
    8880022    1    1    2    0    0 -0.91141289010E+03  0.16515395581E+03 -0.88363319557E+03  0.12892434071E+04  0.15294330000E+03 0.  0.
    8880022    1    1    2    0    0  0.91141289010E+03 -0.16515395581E+03  0.11708054922E+04  0.15007086456E+04  0.15294330000E+03 0.  0.
<mgrwt>
<rscale>  0 0.93879760E+03</rscale>
<asrwt>0</asrwt>
<pdfrwt beam="1">  1        2 0.19252152E+00 0.93879760E+03</pdfrwt>
<pdfrwt beam="2">  1       -2 0.23670187E+00 0.93879760E+03</pdfrwt>
<totfact> 0.13763062E+00</totfact>
</mgrwt>
</event>
<event>
 4    1  0.5387657E-008  0.8953203E+03  0.7818608E-02  0.9431450E-01
          2   -1    0    0  501    0  0.00000000000E+00  0.00000000000E+00  0.29986649494E+04  0.29986649494E+04  0.25500000000E-02 0. -1.
         -2   -1    0    0    0  501 -0.00000000000E+00 -0.00000000000E+00 -0.55266821984E+03  0.55266821985E+03  0.25500000000E-02 0.  1.
    8880022    1    1    2    0    0 -0.57329212211E+03  0.67047968622E+03 -0.52905419978E+02  0.89688210117E+03  0.15294330000E+03 0.  0.
    8880022    1    1    2    0    0  0.57329212211E+03 -0.67047968622E+03  0.24989021496E+04  0.26544510681E+04  0.15294330000E+03 0.  0.
<mgrwt>
<rscale>  0 0.89532034E+03</rscale>
<asrwt>0</asrwt>
<pdfrwt beam="1">  1        2 0.46133307E+00 0.89532034E+03</pdfrwt>
<pdfrwt beam="2">  1       -2 0.85025880E-01 0.89532034E+03</pdfrwt>
<totfact> 0.21809983E+00</totfact>
</mgrwt>
</event>
<event>
 4    1  0.5387657E-008  0.3211944E+03  0.7818608E-02  0.1075101E+00
         -2   -1    0    0    0  501 -0.00000000000E+00  0.00000000000E+00  0.20520910671E+03  0.20520910673E+03  0.25500000000E-02 0.  1.
          2   -1    0    0  501    0  0.00000000000E+00 -0.00000000000E+00 -0.74581691985E+03  0.74581691985E+03  0.25500000000E-02 0. -1.
    8880022    1    1    2    0    0 -0.21374310065E+03 -0.18462957668E+03  0.11664527128E+01  0.32119652440E+03  0.15294330000E+03 0.  0.
    8880022    1    1    2    0    0  0.21374310065E+03  0.18462957668E+03 -0.54177426585E+03  0.62982950218E+03  0.15294330000E+03 0.  0.
<mgrwt>
<rscale>  0 0.32119441E+03</rscale>
<asrwt>0</asrwt>
<pdfrwt beam="1">  1        2 0.11474106E+00 0.32119441E+03</pdfrwt>
<pdfrwt beam="2">  1       -2 0.31570632E-01 0.32119441E+03</pdfrwt>
<totfact> 0.36215030E+02</totfact>
</mgrwt>
</event>
<event>
 4    1  0.5387657E-008  0.6118068E+03  0.7818608E-02  0.9881209E-01
          2   -1    0    0  501    0  0.00000000000E+00  0.00000000000E+00  0.23291446316E+04  0.23291446316E+04  0.25500000000E-02 0. -1.
         -2   -1    0    0    0  501 -0.00000000000E+00 -0.00000000000E+00 -0.77027880987E+03  0.77027880987E+03  0.25500000000E-02 0.  1.
    8880022    1    1    2    0    0  0.47728739159E+03 -0.35087407346E+03 -0.59917172630E+03  0.85633771388E+03  0.15294330000E+03 0.  0.
    8880022    1    1    2    0    0 -0.47728739159E+03  0.35087407346E+03  0.21580375481E+04  0.22430857276E+04  0.15294330000E+03 0. -1.
<mgrwt>
<rscale>  0 0.61180677E+03</rscale>
<asrwt>0</asrwt>
<pdfrwt beam="1">  1        2 0.35832994E+00 0.61180677E+03</pdfrwt>
<pdfrwt beam="2">  1       -2 0.11850443E+00 0.61180677E+03</pdfrwt>
<totfact> 0.25729229E+00</totfact>
</mgrwt>
</event>
<event>
 4    1  0.5387657E-008  0.2907632E+03  0.7818608E-02  0.1089951E+00
         -2   -1    0    0    0  501 -0.00000000000E+00  0.00000000000E+00  0.10055034539E+03  0.10055034542E+03  0.25500000000E-02 0.  1.
          2   -1    0    0  501    0  0.00000000000E+00 -0.00000000000E+00 -0.31541251765E+04  0.31541251765E+04  0.25500000000E-02 0. -1.
    8880022    1    1    2    0    0  0.24577585234E+03 -0.27310120682E+02 -0.13312983197E+03  0.31979183457E+03  0.15294330000E+03 0.  1.
    8880022    1    1    2    0    0 -0.24577585234E+03  0.27310120682E+02 -0.29204449991E+04  0.29348836874E+04  0.15294330000E+03 0.  0.
<mgrwt>
<rscale>  0 0.29076325E+03</rscale>
<asrwt>0</asrwt>
<pdfrwt beam="1">  1        2 0.48524995E+00 0.29076325E+03</pdfrwt>
<pdfrwt beam="2">  1       -2 0.15469286E-01 0.29076325E+03</pdfrwt>
<totfact> 0.54562982E+01</totfact>
</mgrwt>
</event>
<event>
 4    1  0.5387657E-008  0.6102838E+03  0.7818608E-02  0.9884297E-01
          2   -1    0    0  501    0  0.00000000000E+00  0.00000000000E+00  0.17913829527E+04  0.17913829527E+04  0.25500000000E-02 0. -1.
         -2   -1    0    0    0  501 -0.00000000000E+00 -0.00000000000E+00 -0.38167372735E+03  0.38167372736E+03  0.25500000000E-02 0.  1.
    8880022    1    1    2    0    0  0.56056222468E+03 -0.18661368357E+03 -0.28264528291E+02  0.61093797657E+03  0.15294330000E+03 0.  0.
    8880022    1    1    2    0    0 -0.56056222468E+03  0.18661368357E+03  0.14379737536E+04  0.15621187035E+04  0.15294330000E+03 0.  0.
<mgrwt>
<rscale>  0 0.61028381E+03</rscale>
<asrwt>0</asrwt>
<pdfrwt beam="1">  1        2 0.27559738E+00 0.61028381E+03</pdfrwt>
<pdfrwt beam="2">  1       -2 0.58719035E-01 0.61028381E+03</pdfrwt>
<totfact> 0.24826275E+01</totfact>
</mgrwt>
</event>
<event>
 4    1  0.5387657E-008  0.4325297E+03  0.7818608E-02  0.1033064E+00
          2   -1    0    0  501    0  0.00000000000E+00  0.00000000000E+00  0.63637991101E+03  0.63637991102E+03  0.25500000000E-02 0. -1.
         -2   -1    0    0    0  501 -0.00000000000E+00 -0.00000000000E+00 -0.56591194690E+03  0.56591194691E+03  0.25500000000E-02 0.  1.
    8880022    1    1    2    0    0 -0.40427956900E+03 -0.15759331800E+02  0.45194677504E+03  0.62557003360E+03  0.15294330000E+03 0.  0.
    8880022    1    1    2    0    0  0.40427956900E+03  0.15759331800E+02 -0.38147881093E+03  0.57672182433E+03  0.15294330000E+03 0.  1.
<mgrwt>
<rscale>  0 0.43252974E+03</rscale>
<asrwt>0</asrwt>
<pdfrwt beam="1">  1        2 0.97904601E-01 0.43252974E+03</pdfrwt>
<pdfrwt beam="2">  1       -2 0.87063377E-01 0.43252974E+03</pdfrwt>
<totfact> 0.54876419E+01</totfact>
</mgrwt>
</event>
<event>
 4    1  0.5387657E-008  0.1484236E+04  0.7818608E-02  0.8895004E-01
          2   -1    0    0  501    0  0.00000000000E+00  0.00000000000E+00  0.15205314392E+04  0.15205314392E+04  0.25500000000E-02 0. -1.
         -2   -1    0    0    0  501 -0.00000000000E+00 -0.00000000000E+00 -0.16828183377E+04  0.16828183377E+04  0.25500000000E-02 0.  1.
    8880022    1    1    2    0    0 -0.13620012863E+04 -0.56966437938E+03 -0.67841820046E+03  0.16319337967E+04  0.15294330000E+03 0.  0.
    8880022    1    1    2    0    0  0.13620012863E+04  0.56966437938E+03  0.51613130194E+03  0.15714159802E+04  0.15294330000E+03 0.  0.
<mgrwt>
<rscale>  0 0.14842361E+04</rscale>
<asrwt>0</asrwt>
<pdfrwt beam="1">  1        2 0.23392791E+00 0.14842361E+04</pdfrwt>
<pdfrwt beam="2">  1       -2 0.25889513E+00 0.14842361E+04</pdfrwt>
<totfact> 0.65957333E-01</totfact>
</mgrwt>
</event>
<event>
 4    1  0.5387657E-008  0.1106094E+04  0.7818608E-02  0.9199272E-01
         -2   -1    0    0    0  501 -0.00000000000E+00  0.00000000000E+00  0.51289216224E+03  0.51289216225E+03  0.25500000000E-02 0.  1.
          2   -1    0    0  501    0  0.00000000000E+00 -0.00000000000E+00 -0.27838243179E+04  0.27838243179E+04  0.25500000000E-02 0. -1.
    8880022    1    1    2    0    0 -0.34619158855E+02  0.10949223015E+04 -0.51185748886E+03  0.12187875428E+04  0.15294330000E+03 0.  0.
    8880022    1    1    2    0    0  0.34619158855E+02 -0.10949223015E+04 -0.17590746668E+04  0.20779289374E+04  0.15294330000E+03 0.  0.
<mgrwt>
<rscale>  0 0.11060945E+04</rscale>
<asrwt>0</asrwt>
<pdfrwt beam="1">  1        2 0.42828065E+00 0.11060945E+04</pdfrwt>
<pdfrwt beam="2">  1       -2 0.78906488E-01 0.11060945E+04</pdfrwt>
<totfact> 0.33778514E+00</totfact>
</mgrwt>
</event>
<event>
 4    1  0.5387657E-008  0.4314685E+03  0.7818608E-02  0.1033397E+00
         -2   -1    0    0    0  501 -0.00000000000E+00  0.00000000000E+00  0.33608559338E+03  0.33608559339E+03  0.25500000000E-02 0.  1.
          2   -1    0    0  501    0  0.00000000000E+00 -0.00000000000E+00 -0.18979346847E+04  0.18979346847E+04  0.25500000000E-02 0. -1.
    8880022    1    1    2    0    0  0.40743714329E+02 -0.40138929857E+03 -0.17209037185E+04  0.17741687295E+04  0.15294330000E+03 0. -1.
    8880022    1    1    2    0    0 -0.40743714329E+02  0.40138929857E+03  0.15905462724E+03  0.45985154857E+03  0.15294330000E+03 0.  0.
<mgrwt>
<rscale>  0 0.43146851E+03</rscale>
<asrwt>0</asrwt>
<pdfrwt beam="1">  1        2 0.29198995E+00 0.43146851E+03</pdfrwt>
<pdfrwt beam="2">  1       -2 0.51705477E-01 0.43146851E+03</pdfrwt>
<totfact> 0.29262728E+01</totfact>
</mgrwt>
</event>
<event>
 4    1  0.5387657E-008  0.7762582E+03  0.7818608E-02  0.9595033E-01
          2   -1    0    0  501    0  0.00000000000E+00  0.00000000000E+00  0.24114514801E+04  0.24114514801E+04  0.25500000000E-02 0. -1.
         -2   -1    0    0    0  501 -0.00000000000E+00 -0.00000000000E+00 -0.76276086980E+03  0.76276086980E+03  0.25500000000E-02 0.  1.
    8880022    1    1    2    0    0  0.73767704225E+03  0.18713014255E+03  0.21257712350E+04  0.22630687364E+04  0.15294330000E+03 0.  0.
    8880022    1    1    2    0    0 -0.73767704225E+03 -0.18713014255E+03 -0.47708062474E+03  0.91114361351E+03  0.15294330000E+03 0.  0.
<mgrwt>
<rscale>  0 0.77625818E+03</rscale>
<asrwt>0</asrwt>
<pdfrwt beam="1">  1        2 0.37099253E+00 0.77625818E+03</pdfrwt>
<pdfrwt beam="2">  1       -2 0.11734783E+00 0.77625818E+03</pdfrwt>
<totfact> 0.22915436E+00</totfact>
</mgrwt>
</event>
<event>
 4    1  0.5387657E-008  0.9613908E+03  0.7818608E-02  0.9351935E-01
         -2   -1    0    0    0  501 -0.00000000000E+00  0.00000000000E+00  0.65009957874E+03  0.65009957875E+03  0.25500000000E-02 0.  1.
          2   -1    0    0  501    0  0.00000000000E+00 -0.00000000000E+00 -0.22300589526E+04  0.22300589526E+04  0.25500000000E-02 0. -1.
    8880022    1    1    2    0    0 -0.64619177925E+03 -0.69520987851E+03  0.77021602282E+02  0.96447113538E+03  0.15294330000E+03 0.  0.
    8880022    1    1    2    0    0  0.64619177925E+03  0.69520987851E+03 -0.16569809761E+04  0.19156873959E+04  0.15294330000E+03 0.  0.
<mgrwt>
<rscale>  0 0.96139079E+03</rscale>
<asrwt>0</asrwt>
<pdfrwt beam="1">  1        2 0.34308599E+00 0.96139079E+03</pdfrwt>
<pdfrwt beam="2">  1       -2 0.10001532E+00 0.96139079E+03</pdfrwt>
<totfact> 0.41376639E+00</totfact>
</mgrwt>
</event>
<event>
 4    1  0.5387657E-008  0.7028910E+03  0.7818608E-02  0.9712301E-01
         -2   -1    0    0    0  501 -0.00000000000E+00  0.00000000000E+00  0.49007002081E+03  0.49007002082E+03  0.25500000000E-02 0.  1.
          2   -1    0    0  501    0  0.00000000000E+00 -0.00000000000E+00 -0.20402223685E+04  0.20402223685E+04  0.25500000000E-02 0. -1.
    8880022    1    1    2    0    0  0.68234001317E+03 -0.71247520589E+02 -0.16749064785E+04  0.18164161053E+04  0.15294330000E+03 0.  0.
    8880022    1    1    2    0    0 -0.68234001317E+03  0.71247520589E+02  0.12475413081E+03  0.71387628405E+03  0.15294330000E+03 0.  0.
<mgrwt>
<rscale>  0 0.70289100E+03</rscale>
<asrwt>0</asrwt>
<pdfrwt beam="1">  1        2 0.31388036E+00 0.70289100E+03</pdfrwt>
<pdfrwt beam="2">  1       -2 0.75395389E-01 0.70289100E+03</pdfrwt>
<totfact> 0.10455454E+01</totfact>
</mgrwt>
</event>
<event>
 4    1  0.5387657E-008  0.7667621E+03  0.7818608E-02  0.9609414E-01
          2   -1    0    0  501    0  0.00000000000E+00  0.00000000000E+00  0.88151395712E+03  0.88151395712E+03  0.25500000000E-02 0. -1.
         -2   -1    0    0    0  501 -0.00000000000E+00 -0.00000000000E+00 -0.88753054236E+03  0.88753054236E+03  0.25500000000E-02 0.  1.
    8880022    1    1    2    0    0 -0.75046136476E+03 -0.36609178733E+02  0.43795504451E+03  0.88302251726E+03  0.15294330000E+03 0.  0.
    8880022    1    1    2    0    0  0.75046136476E+03  0.36609178733E+02 -0.44397162975E+03  0.88602198223E+03  0.15294330000E+03 0.  1.
<mgrwt>
<rscale>  0 0.76676212E+03</rscale>
<asrwt>0</asrwt>
<pdfrwt beam="1">  1        2 0.13561753E+00 0.76676212E+03</pdfrwt>
<pdfrwt beam="2">  1       -2 0.13654316E+00 0.76676212E+03</pdfrwt>
<totfact> 0.11732036E+01</totfact>
</mgrwt>
</event>
<event>
 4    1  0.5387657E-008  0.4943627E+03  0.7818608E-02  0.1015261E+00
          2   -1    0    0  501    0  0.00000000000E+00  0.00000000000E+00  0.17174518248E+04  0.17174518248E+04  0.25500000000E-02 0. -1.
         -2   -1    0    0    0  501 -0.00000000000E+00 -0.00000000000E+00 -0.34493050989E+03  0.34493050990E+03  0.25500000000E-02 0.  1.
    8880022    1    1    2    0    0 -0.16333040999E+03  0.44082422984E+03 -0.10409965132E+03  0.50520413188E+03  0.15294330000E+03 0.  0.
    8880022    1    1    2    0    0  0.16333040999E+03 -0.44082422984E+03  0.14766209663E+04  0.15571782029E+04  0.15294330000E+03 0.  0.
<mgrwt>
<rscale>  0 0.49436270E+03</rscale>
<asrwt>0</asrwt>
<pdfrwt beam="1">  1        2 0.26422335E+00 0.49436270E+03</pdfrwt>
<pdfrwt beam="2">  1       -2 0.53066234E-01 0.49436270E+03</pdfrwt>
<totfact> 0.34238033E+01</totfact>
</mgrwt>
</event>
<event>
 4    1  0.5387657E-008  0.5720794E+03  0.7818608E-02  0.9965088E-01
          2   -1    0    0  501    0  0.00000000000E+00  0.00000000000E+00  0.67488473318E+03  0.67488473318E+03  0.25500000000E-02 0. -1.
         -2   -1    0    0    0  501 -0.00000000000E+00 -0.00000000000E+00 -0.66319057602E+03  0.66319057602E+03  0.25500000000E-02 0.  1.
    8880022    1    1    2    0    0  0.21654693210E+03 -0.50694239272E+03 -0.34101250098E+03  0.66600626287E+03  0.15294330000E+03 0.  0.
    8880022    1    1    2    0    0 -0.21654693210E+03  0.50694239272E+03  0.35270665814E+03  0.67206904634E+03  0.15294330000E+03 0.  0.
<mgrwt>
<rscale>  0 0.57207938E+03</rscale>
<asrwt>0</asrwt>
<pdfrwt beam="1">  1        2 0.10382842E+00 0.57207938E+03</pdfrwt>
<pdfrwt beam="2">  1       -2 0.10202932E+00 0.57207938E+03</pdfrwt>
<totfact> 0.34797166E+01</totfact>
</mgrwt>
</event>
<event>
 4    1  0.5387657E-008  0.4486753E+03  0.7818608E-02  0.1028118E+00
          2   -1    0    0  501    0  0.00000000000E+00  0.00000000000E+00  0.18642579917E+04  0.18642579917E+04  0.25500000000E-02 0. -1.
         -2   -1    0    0    0  501 -0.00000000000E+00 -0.00000000000E+00 -0.41268312648E+03  0.41268312649E+03  0.25500000000E-02 0.  1.
    8880022    1    1    2    0    0  0.40927950435E+03  0.10202043725E+03  0.17040360522E+04  0.17621147530E+04  0.15294330000E+03 0.  0.
    8880022    1    1    2    0    0 -0.40927950435E+03 -0.10202043725E+03 -0.25246118706E+03  0.51482636518E+03  0.15294330000E+03 0.  0.
<mgrwt>
<rscale>  0 0.44867531E+03</rscale>
<asrwt>0</asrwt>
<pdfrwt beam="1">  1        2 0.28680892E+00 0.44867531E+03</pdfrwt>
<pdfrwt beam="2">  1       -2 0.63489712E-01 0.44867531E+03</pdfrwt>
<totfact> 0.19839712E+01</totfact>
</mgrwt>
</event>
<event>
 4    1  0.5387657E-008  0.5818380E+03  0.7818608E-02  0.9943820E-01
         -2   -1    0    0    0  501 -0.00000000000E+00  0.00000000000E+00  0.30282854196E+03  0.30282854197E+03  0.25500000000E-02 0.  1.
          2   -1    0    0  501    0  0.00000000000E+00 -0.00000000000E+00 -0.20900782530E+04  0.20900782530E+04  0.25500000000E-02 0. -1.
    8880022    1    1    2    0    0  0.39539329736E+03 -0.39850708747E+03 -0.17096151041E+04  0.18059122945E+04  0.15294330000E+03 0.  0.
    8880022    1    1    2    0    0 -0.39539329736E+03  0.39850708747E+03 -0.77634606966E+02  0.58699450047E+03  0.15294330000E+03 0.  0.
<mgrwt>
<rscale>  0 0.58183796E+03</rscale>
<asrwt>0</asrwt>
<pdfrwt beam="1">  1        2 0.32155049E+00 0.58183796E+03</pdfrwt>
<pdfrwt beam="2">  1       -2 0.46589008E-01 0.58183796E+03</pdfrwt>
<totfact> 0.27605219E+01</totfact>
</mgrwt>
</event>
<event>
 4    1  0.5387657E-008  0.1719359E+03  0.7818608E-02  0.1175844E+00
          2   -1    0    0  501    0  0.00000000000E+00  0.00000000000E+00  0.94321228357E+03  0.94321228357E+03  0.25500000000E-02 0. -1.
         -2   -1    0    0    0  501 -0.00000000000E+00 -0.00000000000E+00 -0.89209317196E+02  0.89209317233E+02  0.25500000000E-02 0.  1.
    8880022    1    1    2    0    0 -0.59403264723E+02 -0.51396197097E+02  0.84275832713E+03  0.86011834529E+03  0.15294330000E+03 0.  0.
    8880022    1    1    2    0    0  0.59403264723E+02  0.51396197097E+02  0.11244639242E+02  0.17230325552E+03  0.15294330000E+03 0.  1.
<mgrwt>
<rscale>  0 0.17193595E+03</rscale>
<asrwt>0</asrwt>
<pdfrwt beam="1">  1        2 0.14510958E+00 0.17193595E+03</pdfrwt>
<pdfrwt beam="2">  1       -2 0.13724510E-01 0.17193595E+03</pdfrwt>
<totfact> 0.11334870E+03</totfact>
</mgrwt>
</event>
<event>
 4    1  0.5387657E-008  0.6449883E+03  0.7818608E-02  0.9816229E-01
          2   -1    0    0  501    0  0.00000000000E+00  0.00000000000E+00  0.50315792272E+03  0.50315792272E+03  0.25500000000E-02 0. -1.
         -2   -1    0    0    0  501 -0.00000000000E+00 -0.00000000000E+00 -0.93664021969E+03  0.93664021969E+03  0.25500000000E-02 0.  1.
    8880022    1    1    2    0    0  0.56265320978E+03 -0.27575285015E+03  0.29788995041E+02  0.64567585217E+03  0.15294330000E+03 0. -1.
    8880022    1    1    2    0    0 -0.56265320978E+03  0.27575285015E+03 -0.46327129201E+03  0.79412229024E+03  0.15294330000E+03 0.  0.
<mgrwt>
<rscale>  0 0.64498831E+03</rscale>
<asrwt>0</asrwt>
<pdfrwt beam="1">  1        2 0.77408911E-01 0.64498831E+03</pdfrwt>
<pdfrwt beam="2">  1       -2 0.14409849E+00 0.64498831E+03</pdfrwt>
<totfact> 0.20834124E+01</totfact>
</mgrwt>
</event>
<event>
 4    1  0.5387657E-008  0.9576322E+03  0.7818608E-02  0.9356274E-01
         -2   -1    0    0    0  501 -0.00000000000E+00  0.00000000000E+00  0.51570652658E+03  0.51570652658E+03  0.25500000000E-02 0.  1.
          2   -1    0    0  501    0  0.00000000000E+00 -0.00000000000E+00 -0.22357326983E+04  0.22357326983E+04  0.25500000000E-02 0. -1.
    8880022    1    1    2    0    0  0.15405889924E+03  0.93270231697E+03 -0.23770794557E+03  0.98669370978E+03  0.15294330000E+03 0.  0.
    8880022    1    1    2    0    0 -0.15405889924E+03 -0.93270231697E+03 -0.14823182262E+04  0.17647455151E+04  0.15294330000E+03 0.  0.
<mgrwt>
<rscale>  0 0.95763219E+03</rscale>
<asrwt>0</asrwt>
<pdfrwt beam="1">  1        2 0.34395887E+00 0.95763219E+03</pdfrwt>
<pdfrwt beam="2">  1       -2 0.79339467E-01 0.95763219E+03</pdfrwt>
<totfact> 0.70191143E+00</totfact>
</mgrwt>
</event>
<event>
 4    1  0.5387657E-008  0.6895212E+03  0.7818608E-02  0.9735322E-01
         -2   -1    0    0    0  501 -0.00000000000E+00  0.00000000000E+00  0.96228534839E+03  0.96228534840E+03  0.25500000000E-02 0.  1.
          2   -1    0    0  501    0  0.00000000000E+00 -0.00000000000E+00 -0.63214267444E+03  0.63214267444E+03  0.25500000000E-02 0. -1.
    8880022    1    1    2    0    0 -0.61239925610E+03  0.27751561957E+03  0.53764844909E+03  0.87435992349E+03  0.15294330000E+03 0.  0.
    8880022    1    1    2    0    0  0.61239925610E+03 -0.27751561957E+03 -0.20750577513E+03  0.72006809935E+03  0.15294330000E+03 0.  0.
<mgrwt>
<rscale>  0 0.68952115E+03</rscale>
<asrwt>0</asrwt>
<pdfrwt beam="1">  1        2 0.97252720E-01 0.68952115E+03</pdfrwt>
<pdfrwt beam="2">  1       -2 0.14804390E+00 0.68952115E+03</pdfrwt>
<totfact> 0.14737632E+01</totfact>
</mgrwt>
</event>
<event>
 4    1  0.5387657E-008  0.5777366E+03  0.7818608E-02  0.9952703E-01
         -2   -1    0    0    0  501 -0.00000000000E+00  0.00000000000E+00  0.50039502353E+03  0.50039502353E+03  0.25500000000E-02 0.  1.
          2   -1    0    0  501    0  0.00000000000E+00 -0.00000000000E+00 -0.85048330897E+03  0.85048330898E+03  0.25500000000E-02 0. -1.
    8880022    1    1    2    0    0  0.55179681795E+03 -0.76864850412E+02 -0.48874342838E+03  0.75673623233E+03  0.15294330000E+03 0.  0.
    8880022    1    1    2    0    0 -0.55179681795E+03  0.76864850412E+02  0.13865514294E+03  0.59414210018E+03  0.15294330000E+03 0.  0.
<mgrwt>
<rscale>  0 0.57773661E+03</rscale>
<asrwt>0</asrwt>
<pdfrwt beam="1">  1        2 0.13084359E+00 0.57773661E+03</pdfrwt>
<pdfrwt beam="2">  1       -2 0.76983850E-01 0.57773661E+03</pdfrwt>
<totfact> 0.49236791E+01</totfact>
</mgrwt>
</event>
<event>
 4    1  0.5387657E-008  0.5512834E+03  0.7818608E-02  0.1001197E+00
          2   -1    0    0  501    0  0.00000000000E+00  0.00000000000E+00  0.11094548378E+04  0.11094548378E+04  0.25500000000E-02 0. -1.
         -2   -1    0    0    0  501 -0.00000000000E+00 -0.00000000000E+00 -0.34256346867E+03  0.34256346868E+03  0.25500000000E-02 0.  1.
    8880022    1    1    2    0    0 -0.49726418843E+03  0.18234607099E+03  0.70841193361E+03  0.89764184584E+03  0.15294330000E+03 0.  0.
    8880022    1    1    2    0    0  0.49726418843E+03 -0.18234607099E+03  0.58479435511E+02  0.55437646063E+03  0.15294330000E+03 0.  0.
<mgrwt>
<rscale>  0 0.55128343E+03</rscale>
<asrwt>0</asrwt>
<pdfrwt beam="1">  1        2 0.17068536E+00 0.55128343E+03</pdfrwt>
<pdfrwt beam="2">  1       -2 0.52702071E-01 0.55128343E+03</pdfrwt>
<totfact> 0.75583352E+01</totfact>
</mgrwt>
</event>
<event>
 4    1  0.5387657E-008  0.5096476E+03  0.7818608E-02  0.1011291E+00
          2   -1    0    0  501    0  0.00000000000E+00  0.00000000000E+00  0.63600621054E+03  0.63600621054E+03  0.25500000000E-02 0. -1.
         -2   -1    0    0    0  501 -0.00000000000E+00 -0.00000000000E+00 -0.72282708453E+03  0.72282708453E+03  0.25500000000E-02 0.  1.
    8880022    1    1    2    0    0 -0.29624935247E+03 -0.38546773585E+03 -0.49151930848E+03  0.70804797708E+03  0.15294330000E+03 0.  0.
    8880022    1    1    2    0    0  0.29624935247E+03  0.38546773585E+03  0.40469843449E+03  0.65078531799E+03  0.15294330000E+03 0.  0.
<mgrwt>
<rscale>  0 0.50964763E+03</rscale>
<asrwt>0</asrwt>
<pdfrwt beam="1">  1        2 0.97847109E-01 0.50964763E+03</pdfrwt>
<pdfrwt beam="2">  1       -2 0.11120417E+00 0.50964763E+03</pdfrwt>
<totfact> 0.30664387E+01</totfact>
</mgrwt>
</event>
<event>
 4    1  0.5387657E-008  0.7273607E+03  0.7818608E-02  0.9671553E-01
          2   -1    0    0  501    0  0.00000000000E+00  0.00000000000E+00  0.79556123968E+03  0.79556123969E+03  0.25500000000E-02 0. -1.
         -2   -1    0    0    0  501 -0.00000000000E+00 -0.00000000000E+00 -0.80496172873E+03  0.80496172874E+03  0.25500000000E-02 0.  1.
    8880022    1    1    2    0    0 -0.63081191173E+03  0.32823509286E+03 -0.33838661631E+03  0.80222135305E+03  0.15294330000E+03 0.  0.
    8880022    1    1    2    0    0  0.63081191173E+03 -0.32823509286E+03  0.32898612727E+03  0.79830161538E+03  0.15294330000E+03 0.  0.
<mgrwt>
<rscale>  0 0.72736071E+03</rscale>
<asrwt>0</asrwt>
<pdfrwt beam="1">  1        2 0.12239404E+00 0.72736071E+03</pdfrwt>
<pdfrwt beam="2">  1       -2 0.12384027E+00 0.72736071E+03</pdfrwt>
<totfact> 0.17324183E+01</totfact>
</mgrwt>
</event>
<event>
 4    1  0.5387657E-008  0.2706887E+03  0.7818608E-02  0.1100886E+00
         -2   -1    0    0    0  501 -0.00000000000E+00  0.00000000000E+00  0.35641339787E+02  0.35641339878E+02  0.25500000000E-02 0.  1.
          2   -1    0    0  501    0  0.00000000000E+00 -0.00000000000E+00 -0.41960052214E+04  0.41960052214E+04  0.25500000000E-02 0. -1.
    8880022    1    1    2    0    0  0.17866779476E+03 -0.13400943258E+03 -0.56910512668E+03  0.63020076733E+03  0.15294330000E+03 0.  0.
    8880022    1    1    2    0    0 -0.17866779476E+03  0.13400943258E+03 -0.35912587549E+04  0.36014457939E+04  0.15294330000E+03 0. -1.
<mgrwt>
<rscale>  0 0.27068868E+03</rscale>
<asrwt>0</asrwt>
<pdfrwt beam="1">  1        2 0.64553887E+00 0.27068868E+03</pdfrwt>
<pdfrwt beam="2">  1       -2 0.54832864E-02 0.27068868E+03</pdfrwt>
<totfact> 0.53219526E+01</totfact>
</mgrwt>
</event>
<event>
 4    1  0.5387657E-008  0.7076903E+03  0.7818608E-02  0.9704170E-01
         -2   -1    0    0    0  501 -0.00000000000E+00  0.00000000000E+00  0.91070224424E+03  0.91070224425E+03  0.25500000000E-02 0.  1.
          2   -1    0    0  501    0  0.00000000000E+00 -0.00000000000E+00 -0.23202260149E+04  0.23202260149E+04  0.25500000000E-02 0. -1.
    8880022    1    1    2    0    0  0.55835318518E+03  0.40703279658E+03 -0.21158518249E+04  0.22310657935E+04  0.15294330000E+03 0. -1.
    8880022    1    1    2    0    0 -0.55835318518E+03 -0.40703279658E+03  0.70632805428E+03  0.99986246563E+03  0.15294330000E+03 0.  0.
<mgrwt>
<rscale>  0 0.70769035E+03</rscale>
<asrwt>0</asrwt>
<pdfrwt beam="1">  1        2 0.35695785E+00 0.70769035E+03</pdfrwt>
<pdfrwt beam="2">  1       -2 0.14010804E+00 0.70769035E+03</pdfrwt>
<totfact> 0.16699983E+00</totfact>
</mgrwt>
</event>
<event>
 4    1  0.5387657E-008  0.7339084E+03  0.7818608E-02  0.9660939E-01
          2   -1    0    0  501    0  0.00000000000E+00  0.00000000000E+00  0.14444536858E+04  0.14444536858E+04  0.25500000000E-02 0. -1.
         -2   -1    0    0    0  501 -0.00000000000E+00 -0.00000000000E+00 -0.12409229451E+04  0.12409229451E+04  0.25500000000E-02 0.  1.
    8880022    1    1    2    0    0 -0.69522527045E+03  0.17858254482E+03  0.12247428359E+04  0.14278013059E+04  0.15294330000E+03 0.  0.
    8880022    1    1    2    0    0  0.69522527045E+03 -0.17858254482E+03 -0.10212120952E+04  0.12575753251E+04  0.15294330000E+03 0.  0.
<mgrwt>
<rscale>  0 0.73390841E+03</rscale>
<asrwt>0</asrwt>
<pdfrwt beam="1">  1        2 0.22222364E+00 0.73390841E+03</pdfrwt>
<pdfrwt beam="2">  1       -2 0.19091122E+00 0.73390841E+03</pdfrwt>
<totfact> 0.21544208E+00</totfact>
</mgrwt>
</event>
<event>
 4    1  0.5410533E-008  0.8008813E+03  0.7818608E-02  0.9558742E-01
         -2   -1    0    0    0  501 -0.00000000000E+00  0.00000000000E+00  0.73127015895E+03  0.73127015895E+03  0.25500000000E-02 0.  1.
          2   -1    0    0  501    0  0.00000000000E+00 -0.00000000000E+00 -0.23726234557E+04  0.23726234557E+04  0.25500000000E-02 0. -1.
    8880022    1    1    2    0    0 -0.77720640801E+03 -0.11819243498E+03  0.41145265583E+03  0.90039113353E+03  0.15294330000E+03 0.  0.
    8880022    1    1    2    0    0  0.77720640801E+03  0.11819243498E+03 -0.20528059526E+04  0.22035024811E+04  0.15294330000E+03 0.  0.
<mgrwt>
<rscale>  0 0.80088133E+03</rscale>
<asrwt>0</asrwt>
<pdfrwt beam="1">  1        2 0.36501899E+00 0.80088133E+03</pdfrwt>
<pdfrwt beam="2">  1       -2 0.11250310E+00 0.80088133E+03</pdfrwt>
<totfact> 0.26590159E+00</totfact>
</mgrwt>
</event>
<event>
 4    1  0.5387657E-008  0.9288958E+03  0.7818608E-02  0.9390164E-01
         -2   -1    0    0    0  501 -0.00000000000E+00  0.00000000000E+00  0.32550299497E+03  0.32550299498E+03  0.25500000000E-02 0.  1.
          2   -1    0    0  501    0  0.00000000000E+00 -0.00000000000E+00 -0.36467026783E+04  0.36467026783E+04  0.25500000000E-02 0. -1.
    8880022    1    1    2    0    0 -0.91621732527E+03  0.12540730990E+01 -0.62269562827E+03  0.11183010589E+04  0.15294330000E+03 0.  0.
    8880022    1    1    2    0    0  0.91621732527E+03 -0.12540730990E+01 -0.26985040551E+04  0.28539046144E+04  0.15294330000E+03 0.  0.
<mgrwt>
<rscale>  0 0.92889580E+03</rscale>
<asrwt>0</asrwt>
<pdfrwt beam="1">  1        2 0.56103115E+00 0.92889580E+03</pdfrwt>
<pdfrwt beam="2">  1       -2 0.50077386E-01 0.92889580E+03</pdfrwt>
<totfact> 0.25410589E+00</totfact>
</mgrwt>
</event>
<event>
 4    1  0.5387657E-008  0.2710137E+03  0.7818608E-02  0.1100701E+00
         -2   -1    0    0    0  501 -0.00000000000E+00  0.00000000000E+00  0.19395699655E+03  0.19395699657E+03  0.25500000000E-02 0.  1.
          2   -1    0    0  501    0  0.00000000000E+00 -0.00000000000E+00 -0.59957502154E+03  0.59957502155E+03  0.25500000000E-02 0. -1.
    8880022    1    1    2    0    0 -0.22356324848E+03 -0.87318124183E+01 -0.44363406434E+03  0.51986498890E+03  0.15294330000E+03 0. -1.
    8880022    1    1    2    0    0  0.22356324848E+03  0.87318124183E+01  0.38016039350E+02  0.27366702922E+03  0.15294330000E+03 0.  0.
<mgrwt>
<rscale>  0 0.27101370E+03</rscale>
<asrwt>0</asrwt>
<pdfrwt beam="1">  1        2 0.92242310E-01 0.27101370E+03</pdfrwt>
<pdfrwt beam="2">  1       -2 0.29839538E-01 0.27101370E+03</pdfrwt>
<totfact> 0.52428249E+02</totfact>
</mgrwt>
</event>
<event>
 4    1  0.5387657E-008  0.3296455E+03  0.7818608E-02  0.1071294E+00
         -2   -1    0    0    0  501 -0.00000000000E+00  0.00000000000E+00  0.15791068680E+03  0.15791068682E+03  0.25500000000E-02 0.  1.
          2   -1    0    0  501    0  0.00000000000E+00 -0.00000000000E+00 -0.85550857795E+03  0.85550857796E+03  0.25500000000E-02 0. -1.
    8880022    1    1    2    0    0  0.20350092530E+03  0.20943220863E+03 -0.12468346081E+03  0.35243736327E+03  0.15294330000E+03 0.  0.
    8880022    1    1    2    0    0 -0.20350092530E+03 -0.20943220863E+03 -0.57291443034E+03  0.66098190151E+03  0.15294330000E+03 0.  0.
<mgrwt>
<rscale>  0 0.32964546E+03</rscale>
<asrwt>0</asrwt>
<pdfrwt beam="1">  1        2 0.13161670E+00 0.32964546E+03</pdfrwt>
<pdfrwt beam="2">  1       -2 0.24293952E-01 0.32964546E+03</pdfrwt>
<totfact> 0.48693897E+02</totfact>
</mgrwt>
</event>
<event>
 4    1  0.5387657E-008  0.9765874E+03  0.7818608E-02  0.9334603E-01
          2   -1    0    0  501    0  0.00000000000E+00  0.00000000000E+00  0.16106277691E+04  0.16106277691E+04  0.25500000000E-02 0. -1.
         -2   -1    0    0    0  501 -0.00000000000E+00 -0.00000000000E+00 -0.75718556035E+03  0.75718556035E+03  0.25500000000E-02 0.  1.
    8880022    1    1    2    0    0 -0.16624723534E+03 -0.95010170487E+03  0.97945155641E+03  0.13831299278E+04  0.15294330000E+03 0.  0.
    8880022    1    1    2    0    0  0.16624723534E+03  0.95010170487E+03 -0.12600934762E+03  0.98468340168E+03  0.15294330000E+03 0.  0.
<mgrwt>
<rscale>  0 0.97658745E+03</rscale>
<asrwt>0</asrwt>
<pdfrwt beam="1">  1        2 0.24778889E+00 0.97658745E+03</pdfrwt>
<pdfrwt beam="2">  1       -2 0.11649009E+00 0.97658745E+03</pdfrwt>
<totfact> 0.62705335E+00</totfact>
</mgrwt>
</event>
<event>
 4    1  0.5387657E-008  0.9182842E+03  0.7818608E-02  0.9403010E-01
         -2   -1    0    0    0  501 -0.00000000000E+00  0.00000000000E+00  0.16959436578E+04  0.16959436578E+04  0.25500000000E-02 0.  1.
          2   -1    0    0  501    0  0.00000000000E+00 -0.00000000000E+00 -0.75731725734E+03  0.75731725734E+03  0.25500000000E-02 0. -1.
    8880022    1    1    2    0    0  0.64993049266E+03  0.63043207596E+03 -0.24955325690E+03  0.95158957998E+03  0.15294330000E+03 0.  0.
    8880022    1    1    2    0    0 -0.64993049266E+03 -0.63043207596E+03  0.11881796574E+04  0.15016713352E+04  0.15294330000E+03 0.  0.
<mgrwt>
<rscale>  0 0.91828422E+03</rscale>
<asrwt>0</asrwt>
<pdfrwt beam="1">  1        2 0.11651035E+00 0.91828422E+03</pdfrwt>
<pdfrwt beam="2">  1       -2 0.26091440E+00 0.91828422E+03</pdfrwt>
<totfact> 0.20584127E+00</totfact>
</mgrwt>
</event>
<event>
 4    1  0.5387657E-008  0.2286527E+03  0.7818608E-02  0.1127592E+00
         -2   -1    0    0    0  501 -0.00000000000E+00  0.00000000000E+00  0.57332820616E+02  0.57332820672E+02  0.25500000000E-02 0.  1.
          2   -1    0    0  501    0  0.00000000000E+00 -0.00000000000E+00 -0.16219280826E+04  0.16219280826E+04  0.25500000000E-02 0. -1.
    8880022    1    1    2    0    0  0.58287801337E+02 -0.15966502886E+03 -0.13378293372E+04  0.13572285650E+04  0.15294330000E+03 0.  0.
    8880022    1    1    2    0    0 -0.58287801337E+02  0.15966502886E+03 -0.22676592480E+03  0.32203233827E+03  0.15294330000E+03 0.  1.
<mgrwt>
<rscale>  0 0.22865267E+03</rscale>
<asrwt>0</asrwt>
<pdfrwt beam="1">  1        2 0.24952736E+00 0.22865267E+03</pdfrwt>
<pdfrwt beam="2">  1       -2 0.88204352E-02 0.22865267E+03</pdfrwt>
<totfact> 0.95753866E+02</totfact>
</mgrwt>
</event>
<event>
 4    1  0.5387657E-008  0.8500505E+03  0.7818608E-02  0.9490269E-01
          2   -1    0    0  501    0  0.00000000000E+00  0.00000000000E+00  0.18062765727E+04  0.18062765727E+04  0.25500000000E-02 0. -1.
         -2   -1    0    0    0  501 -0.00000000000E+00 -0.00000000000E+00 -0.48766219549E+03  0.48766219550E+03  0.25500000000E-02 0.  1.
    8880022    1    1    2    0    0  0.67499489316E+03 -0.49353427739E+03  0.17312921099E+03  0.86750191093E+03  0.15294330000E+03 0.  0.
    8880022    1    1    2    0    0 -0.67499489316E+03  0.49353427739E+03  0.11454851663E+04  0.14264368573E+04  0.15294330000E+03 0.  0.
<mgrwt>
<rscale>  0 0.85005049E+03</rscale>
<asrwt>0</asrwt>
<pdfrwt beam="1">  1        2 0.27788871E+00 0.85005049E+03</pdfrwt>
<pdfrwt beam="2">  1       -2 0.75024952E-01 0.85005049E+03</pdfrwt>
<totfact> 0.13892673E+01</totfact>
</mgrwt>
</event>
<event>
 4    1  0.5387657E-008  0.4655649E+03  0.7818608E-02  0.1023180E+00
         -2   -1    0    0    0  501 -0.00000000000E+00  0.00000000000E+00  0.10425664798E+03  0.10425664801E+03  0.25500000000E-02 0.  1.
          2   -1    0    0  501    0  0.00000000000E+00 -0.00000000000E+00 -0.25287006478E+04  0.25287006478E+04  0.25500000000E-02 0. -1.
    8880022    1    1    2    0    0  0.12048407048E+02 -0.43956093825E+03 -0.17673868183E+04  0.18276779807E+04  0.15294330000E+03 0.  0.
    8880022    1    1    2    0    0 -0.12048407048E+02  0.43956093825E+03 -0.65705718146E+03  0.80527931506E+03  0.15294330000E+03 0.  0.
<mgrwt>
<rscale>  0 0.46556486E+03</rscale>
<asrwt>0</asrwt>
<pdfrwt beam="1">  1        2 0.38903082E+00 0.46556486E+03</pdfrwt>
<pdfrwt beam="2">  1       -2 0.16039486E-01 0.46556486E+03</pdfrwt>
<totfact> 0.11344919E+02</totfact>
</mgrwt>
</event>
<event>
 4    1  0.5387657E-008  0.7644860E+03  0.7818608E-02  0.9612894E-01
         -2   -1    0    0    0  501 -0.00000000000E+00  0.00000000000E+00  0.56727736797E+03  0.56727736797E+03  0.25500000000E-02 0.  1.
          2   -1    0    0  501    0  0.00000000000E+00 -0.00000000000E+00 -0.32321019806E+04  0.32321019806E+04  0.25500000000E-02 0. -1.
    8880022    1    1    2    0    0  0.72399693431E+03  0.19203010897E+03 -0.29003686772E+04  0.29994294858E+04  0.15294330000E+03 0.  0.
    8880022    1    1    2    0    0 -0.72399693431E+03 -0.19203010897E+03  0.23554406454E+03  0.79994986280E+03  0.15294330000E+03 0.  0.
<mgrwt>
<rscale>  0 0.76448596E+03</rscale>
<asrwt>0</asrwt>
<pdfrwt beam="1">  1        2 0.49724645E+00 0.76448596E+03</pdfrwt>
<pdfrwt beam="2">  1       -2 0.87273443E-01 0.76448596E+03</pdfrwt>
<totfact> 0.15041834E+00</totfact>
</mgrwt>
</event>
<event>
 4    1  0.5387657E-008  0.9855582E+03  0.7818608E-02  0.9324528E-01
         -2   -1    0    0    0  501 -0.00000000000E+00  0.00000000000E+00  0.74935796312E+03  0.74935796312E+03  0.25500000000E-02 0.  1.
          2   -1    0    0  501    0  0.00000000000E+00 -0.00000000000E+00 -0.20522782272E+04  0.20522782272E+04  0.25500000000E-02 0. -1.
    8880022    1    1    2    0    0 -0.87686967478E+03  0.42312286490E+03  0.19878511498E+03  0.10054056695E+04  0.15294330000E+03 0.  0.
    8880022    1    1    2    0    0  0.87686967478E+03 -0.42312286490E+03 -0.15017053790E+04  0.17962305208E+04  0.15294330000E+03 0.  0.
<mgrwt>
<rscale>  0 0.98555824E+03</rscale>
<asrwt>0</asrwt>
<pdfrwt beam="1">  1        2 0.31573511E+00 0.98555824E+03</pdfrwt>
<pdfrwt beam="2">  1       -2 0.11528584E+00 0.98555824E+03</pdfrwt>
<totfact> 0.36687848E+00</totfact>
</mgrwt>
</event>
<event>
 4    1  0.5387657E-008  0.2039751E+03  0.7818608E-02  0.1146428E+00
         -2   -1    0    0    0  501 -0.00000000000E+00  0.00000000000E+00  0.48702837664E+02  0.48702837731E+02  0.25500000000E-02 0.  1.
          2   -1    0    0  501    0  0.00000000000E+00 -0.00000000000E+00 -0.85702492345E+03  0.85702492346E+03  0.25500000000E-02 0. -1.
    8880022    1    1    2    0    0 -0.12756892597E+03  0.44049650723E+02 -0.37853134381E+03  0.42999050438E+03  0.15294330000E+03 0.  1.
    8880022    1    1    2    0    0  0.12756892597E+03 -0.44049650723E+02 -0.42979074198E+03  0.47573725680E+03  0.15294330000E+03 0. -1.
<mgrwt>
<rscale>  0 0.20397513E+03</rscale>
<asrwt>0</asrwt>
<pdfrwt beam="1">  1        2 0.13184998E+00 0.20397513E+03</pdfrwt>
<pdfrwt beam="2">  1       -2 0.74927449E-02 0.20397513E+03</pdfrwt>
<totfact> 0.33688987E+03</totfact>
</mgrwt>
</event>
<event>
 4    1  0.5387657E-008  0.2628200E+03  0.7818608E-02  0.1105461E+00
          2   -1    0    0  501    0  0.00000000000E+00  0.00000000000E+00  0.25816815670E+03  0.25816815671E+03  0.25500000000E-02 0. -1.
         -2   -1    0    0    0  501 -0.00000000000E+00 -0.00000000000E+00 -0.12601023007E+04  0.12601023007E+04  0.25500000000E-02 0.  1.
    8880022    1    1    2    0    0  0.89290858935E+01  0.21354856064E+03  0.17277193249E+03  0.31452267009E+03  0.15294330000E+03 0.  0.
    8880022    1    1    2    0    0 -0.89290858935E+01 -0.21354856064E+03 -0.11747060765E+04  0.12037477873E+04  0.15294330000E+03 0.  0.
<mgrwt>
<rscale>  0 0.26282003E+03</rscale>
<asrwt>0</asrwt>
<pdfrwt beam="1">  1        2 0.39718179E-01 0.26282003E+03</pdfrwt>
<pdfrwt beam="2">  1       -2 0.19386189E+00 0.26282003E+03</pdfrwt>
<totfact> 0.20524698E+01</totfact>
</mgrwt>
</event>
<event>
 4    1  0.5387657E-008  0.4051601E+03  0.7818608E-02  0.1042007E+00
          2   -1    0    0  501    0  0.00000000000E+00  0.00000000000E+00  0.16522299945E+04  0.16522299945E+04  0.25500000000E-02 0. -1.
         -2   -1    0    0    0  501 -0.00000000000E+00 -0.00000000000E+00 -0.23526185156E+03  0.23526185157E+03  0.25500000000E-02 0.  1.
    8880022    1    1    2    0    0  0.26824539759E+03 -0.26231179186E+03 -0.88187056304E+01  0.40525608208E+03  0.15294330000E+03 0.  0.
    8880022    1    1    2    0    0 -0.26824539759E+03  0.26231179186E+03  0.14257868486E+04  0.14822357640E+04  0.15294330000E+03 0.  0.
<mgrwt>
<rscale>  0 0.40516012E+03</rscale>
<asrwt>0</asrwt>
<pdfrwt beam="1">  1        2 0.25418923E+00 0.40516012E+03</pdfrwt>
<pdfrwt beam="2">  1       -2 0.36194132E-01 0.40516012E+03</pdfrwt>
<totfact> 0.80174442E+01</totfact>
</mgrwt>
</event>
<event>
 4    1  0.5387657E-008  0.4730875E+03  0.7818608E-02  0.1021052E+00
          2   -1    0    0  501    0  0.00000000000E+00  0.00000000000E+00  0.24706686606E+03  0.24706686608E+03  0.25500000000E-02 0. -1.
         -2   -1    0    0    0  501 -0.00000000000E+00 -0.00000000000E+00 -0.15906738446E+04  0.15906738446E+04  0.25500000000E-02 0.  1.
    8880022    1    1    2    0    0 -0.44754318561E+03 -0.11190904227E+02 -0.68903802853E+02  0.47807899597E+03  0.15294330000E+03 0.  0.
    8880022    1    1    2    0    0  0.44754318561E+03  0.11190904227E+02 -0.12747031757E+04  0.13596617147E+04  0.15294330000E+03 0.  0.
<mgrwt>
<rscale>  0 0.47308751E+03</rscale>
<asrwt>0</asrwt>
<pdfrwt beam="1">  1        2 0.38010288E-01 0.47308751E+03</pdfrwt>
<pdfrwt beam="2">  1       -2 0.24471905E+00 0.47308751E+03</pdfrwt>
<totfact> 0.10039938E+01</totfact>
</mgrwt>
</event>
<event>
 4    1  0.5387657E-008  0.8285444E+03  0.7818608E-02  0.9519595E-01
         -2   -1    0    0    0  501 -0.00000000000E+00  0.00000000000E+00  0.50875466528E+03  0.50875466528E+03  0.25500000000E-02 0.  1.
          2   -1    0    0  501    0  0.00000000000E+00 -0.00000000000E+00 -0.29823065725E+04  0.29823065725E+04  0.25500000000E-02 0. -1.
    8880022    1    1    2    0    0 -0.26089131300E+03  0.77138179613E+03  0.54857389694E+02  0.83035843996E+03  0.15294330000E+03 0.  0.
    8880022    1    1    2    0    0  0.26089131300E+03 -0.77138179613E+03 -0.25284092969E+04  0.26607027978E+04  0.15294330000E+03 0.  0.
<mgrwt>
<rscale>  0 0.82854439E+03</rscale>
<asrwt>0</asrwt>
<pdfrwt beam="1">  1        2 0.45881638E+00 0.82854439E+03</pdfrwt>
<pdfrwt beam="2">  1       -2 0.78269951E-01 0.82854439E+03</pdfrwt>
<totfact> 0.27240350E+00</totfact>
</mgrwt>
</event>
<event>
 4    1  0.5387657E-008  0.5616029E+03  0.7818608E-02  0.9988434E-01
         -2   -1    0    0    0  501 -0.00000000000E+00  0.00000000000E+00  0.97525626697E+03  0.97525626697E+03  0.25500000000E-02 0.  1.
          2   -1    0    0  501    0  0.00000000000E+00 -0.00000000000E+00 -0.68464815310E+03  0.68464815310E+03  0.25500000000E-02 0. -1.
    8880022    1    1    2    0    0 -0.14115403751E+03 -0.52161456440E+03 -0.45756388111E+03  0.72440497957E+03  0.15294330000E+03 0.  0.
    8880022    1    1    2    0    0  0.14115403751E+03  0.52161456440E+03  0.74817199498E+03  0.93549944051E+03  0.15294330000E+03 0.  0.
<mgrwt>
<rscale>  0 0.56160295E+03</rscale>
<asrwt>0</asrwt>
<pdfrwt beam="1">  1        2 0.10533049E+00 0.56160295E+03</pdfrwt>
<pdfrwt beam="2">  1       -2 0.15003942E+00 0.56160295E+03</pdfrwt>
<totfact> 0.13098829E+01</totfact>
</mgrwt>
</event>
<event>
 4    1  0.5387657E-008  0.4532972E+03  0.7818608E-02  0.1026743E+00
         -2   -1    0    0    0  501 -0.00000000000E+00  0.00000000000E+00  0.11986355816E+03  0.11986355819E+03  0.25500000000E-02 0.  1.
          2   -1    0    0  501    0  0.00000000000E+00 -0.00000000000E+00 -0.22968783170E+04  0.22968783170E+04  0.25500000000E-02 0. -1.
    8880022    1    1    2    0    0  0.14416789365E+03 -0.40162457303E+03 -0.47992391923E+03  0.66015551235E+03  0.15294330000E+03 0.  0.
    8880022    1    1    2    0    0 -0.14416789365E+03  0.40162457303E+03 -0.16970908396E+04  0.17565863629E+04  0.15294330000E+03 0.  0.
<mgrwt>
<rscale>  0 0.45329718E+03</rscale>
<asrwt>0</asrwt>
<pdfrwt beam="1">  1        2 0.35336586E+00 0.45329718E+03</pdfrwt>
<pdfrwt beam="2">  1       -2 0.18440549E-01 0.45329718E+03</pdfrwt>
<totfact> 0.12045578E+02</totfact>
</mgrwt>
</event>
<event>
 4    1  0.5387657E-008  0.7716805E+03  0.7818608E-02  0.9601938E-01
         -2   -1    0    0    0  501 -0.00000000000E+00  0.00000000000E+00  0.76613238373E+03  0.76613238373E+03  0.25500000000E-02 0.  1.
          2   -1    0    0  501    0  0.00000000000E+00 -0.00000000000E+00 -0.98807955546E+03  0.98807955547E+03  0.25500000000E-02 0. -1.
    8880022    1    1    2    0    0  0.54226383234E+03 -0.52730361178E+03 -0.51611110949E+03  0.92836495691E+03  0.15294330000E+03 0.  1.
    8880022    1    1    2    0    0 -0.54226383234E+03  0.52730361178E+03  0.29416393776E+03  0.82584698229E+03  0.15294330000E+03 0.  0.
<mgrwt>
<rscale>  0 0.77168051E+03</rscale>
<asrwt>0</asrwt>
<pdfrwt beam="1">  1        2 0.15201224E+00 0.77168051E+03</pdfrwt>
<pdfrwt beam="2">  1       -2 0.11786652E+00 0.77168051E+03</pdfrwt>
<totfact> 0.14436667E+01</totfact>
</mgrwt>
</event>
<event>
 4    1  0.5387657E-008  0.2866132E+03  0.7818608E-02  0.1092131E+00
          2   -1    0    0  501    0  0.00000000000E+00  0.00000000000E+00  0.19550549456E+04  0.19550549456E+04  0.25500000000E-02 0. -1.
         -2   -1    0    0    0  501 -0.00000000000E+00 -0.00000000000E+00 -0.56345151446E+02  0.56345151504E+02  0.25500000000E-02 0.  1.
    8880022    1    1    2    0    0  0.10999401801E+03 -0.21600176752E+03  0.44222033629E+03  0.52697810810E+03  0.15294330000E+03 0.  0.
    8880022    1    1    2    0    0 -0.10999401801E+03  0.21600176752E+03  0.14564894578E+04  0.14844219890E+04  0.15294330000E+03 0.  0.
<mgrwt>
<rscale>  0 0.28661315E+03</rscale>
<asrwt>0</asrwt>
<pdfrwt beam="1">  1        2 0.30077770E+00 0.28661315E+03</pdfrwt>
<pdfrwt beam="2">  1       -2 0.86684843E-02 0.28661315E+03</pdfrwt>
<totfact> 0.65288744E+02</totfact>
</mgrwt>
</event>
<event>
 4    1  0.5387657E-008  0.8492521E+03  0.7818608E-02  0.9491341E-01
          2   -1    0    0  501    0  0.00000000000E+00  0.00000000000E+00  0.11761170947E+04  0.11761170947E+04  0.25500000000E-02 0. -1.
         -2   -1    0    0    0  501 -0.00000000000E+00 -0.00000000000E+00 -0.10555626375E+04  0.10555626375E+04  0.25500000000E-02 0.  1.
    8880022    1    1    2    0    0 -0.42965219833E+02  0.83426103581E+03 -0.66205142010E+03  0.10768199580E+04  0.15294330000E+03 0.  0.
    8880022    1    1    2    0    0  0.42965219833E+02 -0.83426103581E+03  0.78260587733E+03  0.11548597743E+04  0.15294330000E+03 0.  0.
<mgrwt>
<rscale>  0 0.84925211E+03</rscale>
<asrwt>0</asrwt>
<pdfrwt beam="1">  1        2 0.18094109E+00 0.84925211E+03</pdfrwt>
<pdfrwt beam="2">  1       -2 0.16239425E+00 0.84925211E+03</pdfrwt>
<totfact> 0.47753138E+00</totfact>
</mgrwt>
</event>
<event>
 4    1  0.5387657E-008  0.3548447E+03  0.7818608E-02  0.1060644E+00
         -2   -1    0    0    0  501 -0.00000000000E+00  0.00000000000E+00  0.42522695900E+03  0.42522695901E+03  0.25500000000E-02 0.  1.
          2   -1    0    0  501    0  0.00000000000E+00 -0.00000000000E+00 -0.21794192499E+04  0.21794192499E+04  0.25500000000E-02 0. -1.
    8880022    1    1    2    0    0  0.22454755267E+03 -0.22825749977E+03  0.33352696519E+03  0.48698560465E+03  0.15294330000E+03 0.  1.
    8880022    1    1    2    0    0 -0.22454755267E+03  0.22825749977E+03 -0.20877192561E+04  0.21176606043E+04  0.15294330000E+03 0.  0.
<mgrwt>
<rscale>  0 0.35484467E+03</rscale>
<asrwt>0</asrwt>
<pdfrwt beam="1">  1        2 0.33529526E+00 0.35484467E+03</pdfrwt>
<pdfrwt beam="2">  1       -2 0.65419534E-01 0.35484467E+03</pdfrwt>
<totfact> 0.12961459E+01</totfact>
</mgrwt>
</event>
<event>
 4    1  0.5387657E-008  0.3187464E+03  0.7818608E-02  0.1076228E+00
         -2   -1    0    0    0  501 -0.00000000000E+00  0.00000000000E+00  0.19228227645E+04  0.19228227645E+04  0.25500000000E-02 0.  1.
          2   -1    0    0  501    0  0.00000000000E+00 -0.00000000000E+00 -0.48918100762E+03  0.48918100762E+03  0.25500000000E-02 0. -1.
    8880022    1    1    2    0    0  0.27855857767E+03 -0.24754055468E+02  0.18558291979E+04  0.18830032685E+04  0.15294330000E+03 0.  0.
    8880022    1    1    2    0    0 -0.27855857767E+03  0.24754055468E+02 -0.42218744102E+03  0.52900050361E+03  0.15294330000E+03 0.  0.
<mgrwt>
<rscale>  0 0.31874645E+03</rscale>
<asrwt>0</asrwt>
<pdfrwt beam="1">  1        2 0.75258616E-01 0.31874645E+03</pdfrwt>
<pdfrwt beam="2">  1       -2 0.29581889E+00 0.31874645E+03</pdfrwt>
<totfact> 0.24501461E+00</totfact>
</mgrwt>
</event>
<event>
 4    1  0.5387657E-008  0.5300394E+03  0.7818608E-02  0.1006223E+00
          2   -1    0    0  501    0  0.00000000000E+00  0.00000000000E+00  0.16580295752E+04  0.16580295752E+04  0.25500000000E-02 0. -1.
         -2   -1    0    0    0  501 -0.00000000000E+00 -0.00000000000E+00 -0.32339218684E+03  0.32339218685E+03  0.25500000000E-02 0.  1.
    8880022    1    1    2    0    0 -0.50748898150E+03  0.22471970741E+01 -0.16231870553E+02  0.53028788679E+03  0.15294330000E+03 0.  0.
    8880022    1    1    2    0    0  0.50748898150E+03 -0.22471970741E+01  0.13508692590E+04  0.14511338753E+04  0.15294330000E+03 0.  0.
<mgrwt>
<rscale>  0 0.53003940E+03</rscale>
<asrwt>0</asrwt>
<pdfrwt beam="1">  1        2 0.25508147E+00 0.53003940E+03</pdfrwt>
<pdfrwt beam="2">  1       -2 0.49752646E-01 0.53003940E+03</pdfrwt>
<totfact> 0.41777882E+01</totfact>
</mgrwt>
</event>
<event>
 4    1  0.5387657E-008  0.3775331E+03  0.7818608E-02  0.1051849E+00
         -2   -1    0    0    0  501 -0.00000000000E+00  0.00000000000E+00  0.42082555561E+03  0.42082555562E+03  0.25500000000E-02 0.  1.
          2   -1    0    0  501    0  0.00000000000E+00 -0.00000000000E+00 -0.66728481710E+03  0.66728481710E+03  0.25500000000E-02 0. -1.
    8880022    1    1    2    0    0  0.18374270215E+03 -0.29219550895E+03  0.25855179508E+03  0.45758089973E+03  0.15294330000E+03 0.  0.
    8880022    1    1    2    0    0 -0.18374270215E+03  0.29219550895E+03 -0.50501105657E+03  0.63052947299E+03  0.15294330000E+03 0.  0.
<mgrwt>
<rscale>  0 0.37753311E+03</rscale>
<asrwt>0</asrwt>
<pdfrwt beam="1">  1        2 0.10265920E+00 0.37753311E+03</pdfrwt>
<pdfrwt beam="2">  1       -2 0.64742393E-01 0.37753311E+03</pdfrwt>
<totfact> 0.99981745E+01</totfact>
</mgrwt>
</event>
<event>
 4    1  0.5387657E-008  0.5372044E+03  0.7818608E-02  0.1004500E+00
         -2   -1    0    0    0  501 -0.00000000000E+00  0.00000000000E+00  0.29933665654E+03  0.29933665655E+03  0.25500000000E-02 0.  1.
          2   -1    0    0  501    0  0.00000000000E+00 -0.00000000000E+00 -0.12015512873E+04  0.12015512873E+04  0.25500000000E-02 0. -1.
    8880022    1    1    2    0    0  0.20692481227E+03 -0.47157080955E+03 -0.78471820624E+03  0.95098434402E+03  0.15294330000E+03 0.  0.
    8880022    1    1    2    0    0 -0.20692481227E+03  0.47157080955E+03 -0.11749642456E+03  0.54990359987E+03  0.15294330000E+03 0.  0.
<mgrwt>
<rscale>  0 0.53720439E+03</rscale>
<asrwt>0</asrwt>
<pdfrwt beam="1">  1        2 0.18485404E+00 0.53720439E+03</pdfrwt>
<pdfrwt beam="2">  1       -2 0.46051794E-01 0.53720439E+03</pdfrwt>
<totfact> 0.87655411E+01</totfact>
</mgrwt>
</event>
<event>
 4    1  0.5387657E-008  0.1621261E+03  0.7818608E-02  0.1186317E+00
         -2   -1    0    0    0  501 -0.00000000000E+00  0.00000000000E+00  0.61755791964E+02  0.61755792017E+02  0.25500000000E-02 0.  1.
          2   -1    0    0  501    0  0.00000000000E+00 -0.00000000000E+00 -0.52789654437E+03  0.52789654438E+03  0.25500000000E-02 0. -1.
    8880022    1    1    2    0    0 -0.20640222776E+02  0.49671013049E+02 -0.10330269719E+03  0.19224028869E+03  0.15294330000E+03 0.  0.
    8880022    1    1    2    0    0  0.20640222776E+02 -0.49671013049E+02 -0.36283805521E+03  0.39741204770E+03  0.15294330000E+03 0.  0.
<mgrwt>
<rscale>  0 0.16212613E+03</rscale>
<asrwt>0</asrwt>
<pdfrwt beam="1">  1        2 0.81214850E-01 0.16212613E+03</pdfrwt>
<pdfrwt beam="2">  1       -2 0.95008914E-02 0.16212613E+03</pdfrwt>
<totfact> 0.41147775E+03</totfact>
</mgrwt>
</event>
<event>
 4    1  0.5387657E-008  0.9208685E+03  0.7818608E-02  0.9399864E-01
         -2   -1    0    0    0  501 -0.00000000000E+00  0.00000000000E+00  0.16504738979E+04  0.16504738979E+04  0.25500000000E-02 0.  1.
          2   -1    0    0  501    0  0.00000000000E+00 -0.00000000000E+00 -0.69649549680E+03  0.69649549680E+03  0.25500000000E-02 0. -1.
    8880022    1    1    2    0    0  0.61821553250E+03  0.66514414812E+03 -0.12403609097E+03  0.92918447430E+03  0.15294330000E+03 0.  0.
    8880022    1    1    2    0    0 -0.61821553250E+03 -0.66514414812E+03  0.10780144921E+04  0.14177849204E+04  0.15294330000E+03 0.  0.
<mgrwt>
<rscale>  0 0.92086852E+03</rscale>
<asrwt>0</asrwt>
<pdfrwt beam="1">  1        2 0.10715316E+00 0.92086852E+03</pdfrwt>
<pdfrwt beam="2">  1       -2 0.25391906E+00 0.92086852E+03</pdfrwt>
<totfact> 0.25267999E+00</totfact>
</mgrwt>
</event>
<event>
 4    1  0.5387657E-008  0.6497186E+03  0.7818608E-02  0.9807307E-01
         -2   -1    0    0    0  501 -0.00000000000E+00  0.00000000000E+00  0.54793763473E+03  0.54793763474E+03  0.25500000000E-02 0.  1.
          2   -1    0    0  501    0  0.00000000000E+00 -0.00000000000E+00 -0.11628293408E+04  0.11628293408E+04  0.25500000000E-02 0. -1.
    8880022    1    1    2    0    0  0.29217838022E+02  0.63078436943E+03  0.18946727948E+03  0.67678069254E+03  0.15294330000E+03 0.  0.
    8880022    1    1    2    0    0 -0.29217838022E+02 -0.63078436943E+03 -0.80435898551E+03  0.10339862830E+04  0.15294330000E+03 0.  0.
<mgrwt>
<rscale>  0 0.64971860E+03</rscale>
<asrwt>0</asrwt>
<pdfrwt beam="1">  1        2 0.17889682E+00 0.64971860E+03</pdfrwt>
<pdfrwt beam="2">  1       -2 0.84298098E-01 0.64971860E+03</pdfrwt>
<totfact> 0.25223523E+01</totfact>
</mgrwt>
</event>
<event>
 4    1  0.5387657E-008  0.5844171E+03  0.7818608E-02  0.9938274E-01
          2   -1    0    0  501    0  0.00000000000E+00  0.00000000000E+00  0.71422010234E+03  0.71422010235E+03  0.25500000000E-02 0. -1.
         -2   -1    0    0    0  501 -0.00000000000E+00 -0.00000000000E+00 -0.66952672547E+03  0.66952672547E+03  0.25500000000E-02 0.  1.
    8880022    1    1    2    0    0 -0.55477097492E+03  0.10188661461E+03 -0.34750297883E+03  0.67992770951E+03  0.15294330000E+03 0.  0.
    8880022    1    1    2    0    0  0.55477097492E+03 -0.10188661461E+03  0.39219635571E+03  0.70381911831E+03  0.15294330000E+03 0.  0.
<mgrwt>
<rscale>  0 0.58441712E+03</rscale>
<asrwt>0</asrwt>
<pdfrwt beam="1">  1        2 0.10988001E+00 0.58441712E+03</pdfrwt>
<pdfrwt beam="2">  1       -2 0.10300411E+00 0.58441712E+03</pdfrwt>
<totfact> 0.31652989E+01</totfact>
</mgrwt>
</event>
<event>
 4    1  0.5387657E-008  0.5316023E+03  0.7818608E-02  0.1005844E+00
         -2   -1    0    0    0  501 -0.00000000000E+00  0.00000000000E+00  0.32107451415E+03  0.32107451416E+03  0.25500000000E-02 0.  1.
          2   -1    0    0  501    0  0.00000000000E+00 -0.00000000000E+00 -0.33925715557E+04  0.33925715557E+04  0.25500000000E-02 0. -1.
    8880022    1    1    2    0    0 -0.69833686654E+02 -0.50431398859E+03  0.62154093880E+02  0.53522343678E+03  0.15294330000E+03 0.  1.
    8880022    1    1    2    0    0  0.69833686654E+02  0.50431398859E+03 -0.31336511354E+04  0.31784226331E+04  0.15294330000E+03 0.  0.
<mgrwt>
<rscale>  0 0.53160229E+03</rscale>
<asrwt>0</asrwt>
<pdfrwt beam="1">  1        2 0.52193406E+00 0.53160229E+03</pdfrwt>
<pdfrwt beam="2">  1       -2 0.49396081E-01 0.53160229E+03</pdfrwt>
<totfact> 0.42702230E+00</totfact>
</mgrwt>
</event>
<event>
 4    1  0.6848405E-008  0.7765178E+03  0.7818608E-02  0.9594643E-01
         -2   -1    0    0    0  501 -0.00000000000E+00  0.00000000000E+00  0.93336229834E+03  0.93336229834E+03  0.25500000000E-02 0.  1.
          2   -1    0    0  501    0  0.00000000000E+00 -0.00000000000E+00 -0.24606358677E+04  0.24606358677E+04  0.25500000000E-02 0. -1.
    8880022    1    1    2    0    0 -0.13018242606E+03  0.75009382418E+03  0.69366370716E+03  0.10412248560E+04  0.15294330000E+03 0.  0.
    8880022    1    1    2    0    0  0.13018242606E+03 -0.75009382418E+03 -0.22209372765E+04  0.23527733101E+04  0.15294330000E+03 0.  0.
<mgrwt>
<rscale>  0 0.77651778E+03</rscale>
<asrwt>0</asrwt>
<pdfrwt beam="1">  1        2 0.37855936E+00 0.77651778E+03</pdfrwt>
<pdfrwt beam="2">  1       -2 0.14359420E+00 0.77651778E+03</pdfrwt>
<totfact> 0.12888578E+00</totfact>
</mgrwt>
</event>
<event>
 4    1  0.5387657E-008  0.1594865E+03  0.7818608E-02  0.1189278E+00
         -2   -1    0    0    0  501 -0.00000000000E+00  0.00000000000E+00  0.12289029670E+04  0.12289029670E+04  0.25500000000E-02 0.  1.
          2   -1    0    0  501    0  0.00000000000E+00 -0.00000000000E+00 -0.52533855485E+03  0.52533855486E+03  0.25500000000E-02 0. -1.
    8880022    1    1    2    0    0 -0.28515462794E+02 -0.35088030611E+02  0.12114502543E+04  0.12219032994E+04  0.15294330000E+03 0.  0.
    8880022    1    1    2    0    0  0.28515462794E+02  0.35088030611E+02 -0.50788584209E+03  0.53233822249E+03  0.15294330000E+03 0. -1.
<mgrwt>
<rscale>  0 0.15948653E+03</rscale>
<asrwt>0</asrwt>
<pdfrwt beam="1">  1        2 0.80821316E-01 0.15948653E+03</pdfrwt>
<pdfrwt beam="2">  1       -2 0.18906200E+00 0.15948653E+03</pdfrwt>
<totfact> 0.10548310E+01</totfact>
</mgrwt>
</event>
<event>
 4    1  0.5387657E-008  0.2691097E+03  0.7818608E-02  0.1101790E+00
          2   -1    0    0  501    0  0.00000000000E+00  0.00000000000E+00  0.79380853839E+03  0.79380853839E+03  0.25500000000E-02 0. -1.
         -2   -1    0    0    0  501 -0.00000000000E+00 -0.00000000000E+00 -0.14876204568E+03  0.14876204570E+03  0.25500000000E-02 0.  1.
    8880022    1    1    2    0    0 -0.37079696977E+02 -0.21829674402E+03  0.29441631646E+02  0.27071541343E+03  0.15294330000E+03 0.  0.
    8880022    1    1    2    0    0  0.37079696977E+02  0.21829674402E+03  0.61560486106E+03  0.67185517067E+03  0.15294330000E+03 0.  0.
<mgrwt>
<rscale>  0 0.26910969E+03</rscale>
<asrwt>0</asrwt>
<pdfrwt beam="1">  1        2 0.12212439E+00 0.26910969E+03</pdfrwt>
<pdfrwt beam="2">  1       -2 0.22886468E-01 0.26910969E+03</pdfrwt>
<totfact> 0.59827905E+02</totfact>
</mgrwt>
</event>
<event>
 4    1  0.5387657E-008  0.1735332E+03  0.7818608E-02  0.1174213E+00
         -2   -1    0    0    0  501 -0.00000000000E+00  0.00000000000E+00  0.43560967836E+03  0.43560967837E+03  0.25500000000E-02 0.  1.
          2   -1    0    0  501    0  0.00000000000E+00 -0.00000000000E+00 -0.29002768086E+04  0.29002768086E+04  0.25500000000E-02 0. -1.
    8880022    1    1    2    0    0  0.65755077413E+02  0.48973478521E+02  0.41561147320E+03  0.45038503691E+03  0.15294330000E+03 0.  1.
    8880022    1    1    2    0    0 -0.65755077413E+02 -0.48973478521E+02 -0.28802786034E+04  0.28855014500E+04  0.15294330000E+03 0.  0.
<mgrwt>
<rscale>  0 0.17353324E+03</rscale>
<asrwt>0</asrwt>
<pdfrwt beam="1">  1        2 0.44619642E+00 0.17353324E+03</pdfrwt>
<pdfrwt beam="2">  1       -2 0.67016875E-01 0.17353324E+03</pdfrwt>
<totfact> 0.54497523E+00</totfact>
</mgrwt>
</event>
<event>
 4    1  0.5387657E-008  0.3805454E+03  0.7818608E-02  0.1050732E+00
          2   -1    0    0  501    0  0.00000000000E+00  0.00000000000E+00  0.11043256641E+04  0.11043256641E+04  0.25500000000E-02 0. -1.
         -2   -1    0    0    0  501 -0.00000000000E+00 -0.00000000000E+00 -0.21101009348E+03  0.21101009350E+03  0.25500000000E-02 0.  1.
    8880022    1    1    2    0    0  0.16436940402E+03 -0.30725539213E+03  0.85129233352E+03  0.93247705982E+03  0.15294330000E+03 0. -1.
    8880022    1    1    2    0    0 -0.16436940402E+03  0.30725539213E+03  0.42023237059E+02  0.38285869774E+03  0.15294330000E+03 0.  0.
<mgrwt>
<rscale>  0 0.38054544E+03</rscale>
<asrwt>0</asrwt>
<pdfrwt beam="1">  1        2 0.16989625E+00 0.38054544E+03</pdfrwt>
<pdfrwt beam="2">  1       -2 0.32463092E-01 0.38054544E+03</pdfrwt>
<totfact> 0.19969904E+02</totfact>
</mgrwt>
</event>
<event>
 4    1  0.7201208E-008  0.6212341E+03  0.7818608E-02  0.9862306E-01
         -2   -1    0    0    0  501 -0.00000000000E+00  0.00000000000E+00  0.74637663320E+03  0.74637663321E+03  0.25500000000E-02 0.  1.
          2   -1    0    0  501    0  0.00000000000E+00 -0.00000000000E+00 -0.22031005349E+04  0.22031005349E+04  0.25500000000E-02 0. -1.
    8880022    1    1    2    0    0  0.14803631636E+03  0.58363123022E+03 -0.20184819596E+04  0.21119188522E+04  0.15294330000E+03 0.  0.
    8880022    1    1    2    0    0 -0.14803631636E+03 -0.58363123022E+03  0.56175805795E+03  0.83755831590E+03  0.15294330000E+03 0.  0.
<mgrwt>
<rscale>  0 0.62123411E+03</rscale>
<asrwt>0</asrwt>
<pdfrwt beam="1">  1        2 0.33893854E+00 0.62123411E+03</pdfrwt>
<pdfrwt beam="2">  1       -2 0.11482718E+00 0.62123411E+03</pdfrwt>
<totfact> 0.32532984E+00</totfact>
</mgrwt>
</event>
<event>
 4    1  0.5387657E-008  0.3012058E+03  0.7818608E-02  0.1084639E+00
          2   -1    0    0  501    0  0.00000000000E+00  0.00000000000E+00  0.83524138608E+03  0.83524138608E+03  0.25500000000E-02 0. -1.
         -2   -1    0    0    0  501 -0.00000000000E+00 -0.00000000000E+00 -0.19551304690E+03  0.19551304692E+03  0.25500000000E-02 0.  1.
    8880022    1    1    2    0    0 -0.39466288472E+02 -0.25646776697E+03 -0.23714943099E+02  0.30213797338E+03  0.15294330000E+03 0.  0.
    8880022    1    1    2    0    0  0.39466288472E+02  0.25646776697E+03  0.66344328227E+03  0.72861645962E+03  0.15294330000E+03 0.  0.
<mgrwt>
<rscale>  0 0.30120584E+03</rscale>
<asrwt>0</asrwt>
<pdfrwt beam="1">  1        2 0.12849867E+00 0.30120584E+03</pdfrwt>
<pdfrwt beam="2">  1       -2 0.30078931E-01 0.30120584E+03</pdfrwt>
<totfact> 0.34299217E+02</totfact>
</mgrwt>
</event>
<event>
 4    1  0.5387657E-008  0.3280891E+03  0.7818608E-02  0.1071986E+00
         -2   -1    0    0    0  501 -0.00000000000E+00  0.00000000000E+00  0.25575870262E+03  0.25575870263E+03  0.25500000000E-02 0.  1.
          2   -1    0    0  501    0  0.00000000000E+00 -0.00000000000E+00 -0.12044975626E+04  0.12044975626E+04  0.25500000000E-02 0. -1.
    8880022    1    1    2    0    0 -0.74144880372E+02 -0.28063024226E+03  0.11454145315E+03  0.34750855193E+03  0.15294330000E+03 0.  0.
    8880022    1    1    2    0    0  0.74144880372E+02  0.28063024226E+03 -0.10632803131E+04  0.11127477133E+04  0.15294330000E+03 0.  0.
<mgrwt>
<rscale>  0 0.32808909E+03</rscale>
<asrwt>0</asrwt>
<pdfrwt beam="1">  1        2 0.18530731E+00 0.32808909E+03</pdfrwt>
<pdfrwt beam="2">  1       -2 0.39347493E-01 0.32808909E+03</pdfrwt>
<totfact> 0.12230565E+02</totfact>
</mgrwt>
</event>
<event>
 4    1  0.5387657E-008  0.9983784E+03  0.7818608E-02  0.9310325E-01
         -2   -1    0    0    0  501 -0.00000000000E+00  0.00000000000E+00  0.93916398610E+03  0.93916398610E+03  0.25500000000E-02 0.  1.
          2   -1    0    0  501    0  0.00000000000E+00 -0.00000000000E+00 -0.15550597687E+04  0.15550597687E+04  0.25500000000E-02 0. -1.
    8880022    1    1    2    0    0 -0.80765583545E+03  0.56662149547E+03  0.39476531899E+03  0.10735917184E+04  0.15294330000E+03 0.  0.
    8880022    1    1    2    0    0  0.80765583545E+03 -0.56662149547E+03 -0.10106611016E+04  0.14206320364E+04  0.15294330000E+03 0.  0.
<mgrwt>
<rscale>  0 0.99837845E+03</rscale>
<asrwt>0</asrwt>
<pdfrwt beam="1">  1        2 0.23923996E+00 0.99837845E+03</pdfrwt>
<pdfrwt beam="2">  1       -2 0.14448677E+00 0.99837845E+03</pdfrwt>
<totfact> 0.38832082E+00</totfact>
</mgrwt>
</event>
<event>
 4    1  0.5387657E-008  0.8834503E+03  0.7818608E-02  0.9446509E-01
         -2   -1    0    0    0  501 -0.00000000000E+00  0.00000000000E+00  0.35849731921E+03  0.35849731922E+03  0.25500000000E-02 0.  1.
          2   -1    0    0  501    0  0.00000000000E+00 -0.00000000000E+00 -0.31002623241E+04  0.31002623241E+04  0.25500000000E-02 0. -1.
    8880022    1    1    2    0    0  0.56226324851E+03  0.66404273944E+03 -0.42719045774E+03  0.98131343649E+03  0.15294330000E+03 0.  0.
    8880022    1    1    2    0    0 -0.56226324851E+03 -0.66404273944E+03 -0.23145745472E+04  0.24774462068E+04  0.15294330000E+03 0.  0.
<mgrwt>
<rscale>  0 0.88345027E+03</rscale>
<asrwt>0</asrwt>
<pdfrwt beam="1">  1        2 0.47696342E+00 0.88345027E+03</pdfrwt>
<pdfrwt beam="2">  1       -2 0.55153436E-01 0.88345027E+03</pdfrwt>
<totfact> 0.48547216E+00</totfact>
</mgrwt>
</event>
<event>
 4    1  0.5387657E-008  0.9825370E+03  0.7818608E-02  0.9327908E-01
          2   -1    0    0  501    0  0.00000000000E+00  0.00000000000E+00  0.13224644861E+04  0.13224644861E+04  0.25500000000E-02 0. -1.
         -2   -1    0    0    0  501 -0.00000000000E+00 -0.00000000000E+00 -0.82701845859E+03  0.82701845860E+03  0.25500000000E-02 0.  1.
    8880022    1    1    2    0    0 -0.85191474510E+03 -0.46500392898E+03  0.61585834243E+03  0.11595949887E+04  0.15294330000E+03 0.  0.
    8880022    1    1    2    0    0  0.85191474510E+03  0.46500392898E+03 -0.12041231490E+03  0.98988795602E+03  0.15294330000E+03 0.  0.
<mgrwt>
<rscale>  0 0.98253704E+03</rscale>
<asrwt>0</asrwt>
<pdfrwt beam="1">  1        2 0.20345607E+00 0.98253704E+03</pdfrwt>
<pdfrwt beam="2">  1       -2 0.12723361E+00 0.98253704E+03</pdfrwt>
<totfact> 0.73148304E+00</totfact>
</mgrwt>
</event>
<event>
 4    1  0.5387657E-008  0.4668846E+03  0.7818608E-02  0.1022803E+00
         -2   -1    0    0    0  501 -0.00000000000E+00  0.00000000000E+00  0.15633104621E+03  0.15633104623E+03  0.25500000000E-02 0.  1.
          2   -1    0    0  501    0  0.00000000000E+00 -0.00000000000E+00 -0.21059285120E+04  0.21059285120E+04  0.25500000000E-02 0. -1.
    8880022    1    1    2    0    0  0.14248421576E+03 -0.41747797670E+03 -0.16323050728E+04  0.16977635631E+04  0.15294330000E+03 0.  0.
    8880022    1    1    2    0    0 -0.14248421576E+03  0.41747797670E+03 -0.31729239301E+03  0.56449599507E+03  0.15294330000E+03 0.  0.
<mgrwt>
<rscale>  0 0.46688464E+03</rscale>
<asrwt>0</asrwt>
<pdfrwt beam="1">  1        2 0.32398898E+00 0.46688464E+03</pdfrwt>
<pdfrwt beam="2">  1       -2 0.24050932E-01 0.46688464E+03</pdfrwt>
<totfact> 0.95895377E+01</totfact>
</mgrwt>
</event>
<event>
 4    1  0.5387657E-008  0.8960787E+03  0.7818608E-02  0.9430497E-01
          2   -1    0    0  501    0  0.00000000000E+00  0.00000000000E+00  0.17551740917E+04  0.17551740917E+04  0.25500000000E-02 0. -1.
         -2   -1    0    0    0  501 -0.00000000000E+00 -0.00000000000E+00 -0.13142886893E+04  0.13142886893E+04  0.25500000000E-02 0.  1.
    8880022    1    1    2    0    0  0.21199739909E+03  0.85710120471E+03 -0.10187216888E+04  0.13567427555E+04  0.15294330000E+03 0.  0.
    8880022    1    1    2    0    0 -0.21199739909E+03 -0.85710120471E+03  0.14596070911E+04  0.17127200255E+04  0.15294330000E+03 0.  0.
<mgrwt>
<rscale>  0 0.89607869E+03</rscale>
<asrwt>0</asrwt>
<pdfrwt beam="1">  1        2 0.27002678E+00 0.89607869E+03</pdfrwt>
<pdfrwt beam="2">  1       -2 0.20219826E+00 0.89607869E+03</pdfrwt>
<totfact> 0.11894612E+00</totfact>
</mgrwt>
</event>
<event>
 4    1  0.5387657E-008  0.1648599E+03  0.7818608E-02  0.1183317E+00
         -2   -1    0    0    0  501 -0.00000000000E+00  0.00000000000E+00  0.21237047998E+03  0.21237047999E+03  0.25500000000E-02 0.  1.
          2   -1    0    0  501    0  0.00000000000E+00 -0.00000000000E+00 -0.64198255653E+03  0.64198255653E+03  0.25500000000E-02 0. -1.
    8880022    1    1    2    0    0  0.46840523963E+02  0.39913644211E+02  0.16742783192E+03  0.23496992487E+03  0.15294330000E+03 0.  1.
    8880022    1    1    2    0    0 -0.46840523963E+02 -0.39913644211E+02 -0.59703990847E+03  0.61938311165E+03  0.15294330000E+03 0.  0.
<mgrwt>
<rscale>  0 0.16485990E+03</rscale>
<asrwt>0</asrwt>
<pdfrwt beam="1">  1        2 0.98766546E-01 0.16485990E+03</pdfrwt>
<pdfrwt beam="2">  1       -2 0.32672382E-01 0.16485990E+03</pdfrwt>
<totfact> 0.41260643E+02</totfact>
</mgrwt>
</event>
<event>
 4    1  0.5387657E-008  0.1645290E+03  0.7818608E-02  0.1183676E+00
         -2   -1    0    0    0  501 -0.00000000000E+00  0.00000000000E+00  0.30976673020E+03  0.30976673021E+03  0.25500000000E-02 0.  1.
          2   -1    0    0  501    0  0.00000000000E+00 -0.00000000000E+00 -0.10618416270E+04  0.10618416270E+04  0.25500000000E-02 0. -1.
    8880022    1    1    2    0    0  0.60617004796E+02  0.19244455650E+01 -0.10330155987E+04  0.10460358526E+04  0.15294330000E+03 0.  0.
    8880022    1    1    2    0    0 -0.60617004796E+02 -0.19244455650E+01  0.28094070190E+03  0.32557250461E+03  0.15294330000E+03 0.  1.
<mgrwt>
<rscale>  0 0.16452896E+03</rscale>
<asrwt>0</asrwt>
<pdfrwt beam="1">  1        2 0.16336025E+00 0.16452896E+03</pdfrwt>
<pdfrwt beam="2">  1       -2 0.47656421E-01 0.16452896E+03</pdfrwt>
<totfact> 0.10594596E+02</totfact>
</mgrwt>
</event>
<event>
 4    1  0.5387657E-008  0.4495947E+03  0.7818608E-02  0.1027843E+00
         -2   -1    0    0    0  501 -0.00000000000E+00  0.00000000000E+00  0.10536229287E+03  0.10536229290E+03  0.25500000000E-02 0.  1.
          2   -1    0    0  501    0  0.00000000000E+00 -0.00000000000E+00 -0.23636774684E+04  0.23636774684E+04  0.25500000000E-02 0. -1.
    8880022    1    1    2    0    0  0.26295867190E+03 -0.33105352606E+03 -0.16649305326E+04  0.17245663315E+04  0.15294330000E+03 0.  0.
    8880022    1    1    2    0    0 -0.26295867190E+03  0.33105352606E+03 -0.59338464289E+03  0.74447342980E+03  0.15294330000E+03 0.  0.
<mgrwt>
<rscale>  0 0.44959465E+03</rscale>
<asrwt>0</asrwt>
<pdfrwt beam="1">  1        2 0.36364265E+00 0.44959465E+03</pdfrwt>
<pdfrwt beam="2">  1       -2 0.16209585E-01 0.44959465E+03</pdfrwt>
<totfact> 0.13800434E+02</totfact>
</mgrwt>
</event>
<event>
 4    1  0.5387657E-008  0.1831576E+03  0.7818608E-02  0.1164782E+00
          2   -1    0    0  501    0  0.00000000000E+00  0.00000000000E+00  0.18803494501E+04  0.18803494501E+04  0.25500000000E-02 0. -1.
         -2   -1    0    0    0  501 -0.00000000000E+00 -0.00000000000E+00 -0.10881622755E+03  0.10881622758E+03  0.25500000000E-02 0.  1.
    8880022    1    1    2    0    0  0.95762143031E+02  0.31379546360E+02 -0.23636555781E+02  0.18467648402E+03  0.15294330000E+03 0.  0.
    8880022    1    1    2    0    0 -0.95762143031E+02 -0.31379546360E+02  0.17951697784E+04  0.18044891937E+04  0.15294330000E+03 0. -1.
<mgrwt>
<rscale>  0 0.18315763E+03</rscale>
<asrwt>0</asrwt>
<pdfrwt beam="1">  1        2 0.28928453E+00 0.18315763E+03</pdfrwt>
<pdfrwt beam="2">  1       -2 0.16740958E-01 0.18315763E+03</pdfrwt>
<totfact> 0.25164306E+02</totfact>
</mgrwt>
</event>
<event>
 4    1  0.5387657E-008  0.5506269E+03  0.7818608E-02  0.1001349E+00
         -2   -1    0    0    0  501 -0.00000000000E+00  0.00000000000E+00  0.28311013039E+03  0.28311013040E+03  0.25500000000E-02 0.  1.
          2   -1    0    0  501    0  0.00000000000E+00 -0.00000000000E+00 -0.20722147409E+04  0.20722147409E+04  0.25500000000E-02 0. -1.
    8880022    1    1    2    0    0  0.48375594065E+03  0.21395912828E+03 -0.75930835302E+02  0.55583762328E+03  0.15294330000E+03 0.  0.
    8880022    1    1    2    0    0 -0.48375594065E+03 -0.21395912828E+03 -0.17131737752E+04  0.17994872480E+04  0.15294330000E+03 0.  0.
<mgrwt>
<rscale>  0 0.55062689E+03</rscale>
<asrwt>0</asrwt>
<pdfrwt beam="1">  1        2 0.31880226E+00 0.55062689E+03</pdfrwt>
<pdfrwt beam="2">  1       -2 0.43555406E-01 0.55062689E+03</pdfrwt>
<totfact> 0.32447293E+01</totfact>
</mgrwt>
</event>
<event>
 4    1  0.5387657E-008  0.6498726E+03  0.7818608E-02  0.9807018E-01
         -2   -1    0    0    0  501 -0.00000000000E+00  0.00000000000E+00  0.12604300819E+03  0.12604300821E+03  0.25500000000E-02 0.  1.
          2   -1    0    0  501    0  0.00000000000E+00 -0.00000000000E+00 -0.33937121836E+04  0.33937121836E+04  0.25500000000E-02 0. -1.
    8880022    1    1    2    0    0 -0.59487355119E+03  0.21229271760E+03 -0.18319221303E+04  0.19437780440E+04  0.15294330000E+03 0.  0.
    8880022    1    1    2    0    0  0.59487355119E+03 -0.21229271760E+03 -0.14357470451E+04  0.15759771478E+04  0.15294330000E+03 0.  0.
<mgrwt>
<rscale>  0 0.64987260E+03</rscale>
<asrwt>0</asrwt>
<pdfrwt beam="1">  1        2 0.52210950E+00 0.64987260E+03</pdfrwt>
<pdfrwt beam="2">  1       -2 0.19391235E-01 0.64987260E+03</pdfrwt>
<totfact> 0.23688158E+01</totfact>
</mgrwt>
</event>
<event>
 4    1  0.5387657E-008  0.2846402E+03  0.7818608E-02  0.1093181E+00
          2   -1    0    0  501    0  0.00000000000E+00  0.00000000000E+00  0.13272831996E+04  0.13272831996E+04  0.25500000000E-02 0. -1.
         -2   -1    0    0    0  501 -0.00000000000E+00 -0.00000000000E+00 -0.97920833822E+02  0.97920833855E+02  0.25500000000E-02 0.  1.
    8880022    1    1    2    0    0  0.23010402871E+03  0.68414498493E+02  0.17736262244E+03  0.33537674410E+03  0.15294330000E+03 0.  0.
    8880022    1    1    2    0    0 -0.23010402871E+03 -0.68414498493E+02  0.10519997433E+04  0.10898272894E+04  0.15294330000E+03 0.  0.
<mgrwt>
<rscale>  0 0.28464023E+03</rscale>
<asrwt>0</asrwt>
<pdfrwt beam="1">  1        2 0.20419742E+00 0.28464023E+03</pdfrwt>
<pdfrwt beam="2">  1       -2 0.15064743E-01 0.28464023E+03</pdfrwt>
<totfact> 0.57744561E+02</totfact>
</mgrwt>
</event>
<event>
 4    1  0.5415289E-008  0.7818481E+03  0.7818608E-02  0.9586669E-01
         -2   -1    0    0    0  501 -0.00000000000E+00  0.00000000000E+00  0.86948360490E+03  0.86948360490E+03  0.25500000000E-02 0.  1.
          2   -1    0    0  501    0  0.00000000000E+00 -0.00000000000E+00 -0.23436391029E+04  0.23436391029E+04  0.25500000000E-02 0. -1.
    8880022    1    1    2    0    0  0.74455548201E+03  0.18311734416E+03  0.60708688098E+03  0.98986916387E+03  0.15294330000E+03 0.  1.
    8880022    1    1    2    0    0 -0.74455548201E+03 -0.18311734416E+03 -0.20812423790E+04  0.22232535439E+04  0.15294330000E+03 0.  0.
<mgrwt>
<rscale>  0 0.78184812E+03</rscale>
<asrwt>0</asrwt>
<pdfrwt beam="1">  1        2 0.36055986E+00 0.78184812E+03</pdfrwt>
<pdfrwt beam="2">  1       -2 0.13376671E+00 0.78184812E+03</pdfrwt>
<totfact> 0.17988019E+00</totfact>
</mgrwt>
</event>
<event>
 4    1  0.5387657E-008  0.2492096E+03  0.7818608E-02  0.1113805E+00
          2   -1    0    0  501    0  0.00000000000E+00  0.00000000000E+00  0.16332343087E+04  0.16332343087E+04  0.25500000000E-02 0. -1.
         -2   -1    0    0    0  501 -0.00000000000E+00 -0.00000000000E+00 -0.15397608309E+03  0.15397608311E+03  0.25500000000E-02 0.  1.
    8880022    1    1    2    0    0 -0.19497513640E+03 -0.26428616026E+02  0.15150803871E+04  0.15354393533E+04  0.15294330000E+03 0.  0.
    8880022    1    1    2    0    0  0.19497513640E+03  0.26428616026E+02 -0.35822161422E+02  0.25177103849E+03  0.15294330000E+03 0.  1.
<mgrwt>
<rscale>  0 0.24920961E+03</rscale>
<asrwt>0</asrwt>
<pdfrwt beam="1">  1        2 0.25126683E+00 0.24920961E+03</pdfrwt>
<pdfrwt beam="2">  1       -2 0.23688627E-01 0.24920961E+03</pdfrwt>
<totfact> 0.18370687E+02</totfact>
</mgrwt>
</event>
<event>
 4    1  0.5387657E-008  0.4195104E+03  0.7818608E-02  0.1037226E+00
          2   -1    0    0  501    0  0.00000000000E+00  0.00000000000E+00  0.53533027342E+03  0.53533027343E+03  0.25500000000E-02 0. -1.
         -2   -1    0    0    0  501 -0.00000000000E+00 -0.00000000000E+00 -0.11900006259E+04  0.11900006259E+04  0.25500000000E-02 0.  1.
    8880022    1    1    2    0    0  0.26273041181E+03  0.28908482233E+03  0.40655993547E+03  0.58419169622E+03  0.15294330000E+03 0.  0.
    8880022    1    1    2    0    0 -0.26273041181E+03 -0.28908482233E+03 -0.10612302879E+04  0.11411392031E+04  0.15294330000E+03 0.  0.
<mgrwt>
<rscale>  0 0.41951038E+03</rscale>
<asrwt>0</asrwt>
<pdfrwt beam="1">  1        2 0.82358504E-01 0.41951038E+03</pdfrwt>
<pdfrwt beam="2">  1       -2 0.18307702E+00 0.41951038E+03</pdfrwt>
<totfact> 0.10459152E+01</totfact>
</mgrwt>
</event>
<event>
 4    1  0.5387657E-008  0.1858480E+03  0.7818608E-02  0.1162260E+00
          2   -1    0    0  501    0  0.00000000000E+00  0.00000000000E+00  0.39410914190E+03  0.39410914191E+03  0.25500000000E-02 0. -1.
         -2   -1    0    0    0  501 -0.00000000000E+00 -0.00000000000E+00 -0.58211702803E+03  0.58211702803E+03  0.25500000000E-02 0.  1.
    8880022    1    1    2    0    0 -0.81331945872E+02 -0.67326997535E+02 -0.54387561893E+03  0.57475225263E+03  0.15294330000E+03 0.  0.
    8880022    1    1    2    0    0  0.81331945872E+02  0.67326997535E+02  0.35586773280E+03  0.40147391731E+03  0.15294330000E+03 0.  0.
<mgrwt>
<rscale>  0 0.18584796E+03</rscale>
<asrwt>0</asrwt>
<pdfrwt beam="1">  1        2 0.60632176E-01 0.18584796E+03</pdfrwt>
<pdfrwt beam="2">  1       -2 0.89556465E-01 0.18584796E+03</pdfrwt>
<totfact> 0.91759853E+01</totfact>
</mgrwt>
</event>
<event>
 4    1  0.5387657E-008  0.1021244E+04  0.7818608E-02  0.9285547E-01
         -2   -1    0    0    0  501 -0.00000000000E+00  0.00000000000E+00  0.81352846779E+03  0.81352846780E+03  0.25500000000E-02 0.  1.
          2   -1    0    0  501    0  0.00000000000E+00 -0.00000000000E+00 -0.23796451634E+04  0.23796451634E+04  0.25500000000E-02 0. -1.
    8880022    1    1    2    0    0  0.88959080733E+03 -0.47767747700E+03 -0.18674057882E+04  0.21284134015E+04  0.15294330000E+03 0.  0.
    8880022    1    1    2    0    0 -0.88959080733E+03  0.47767747700E+03  0.30128909262E+03  0.10647602298E+04  0.15294330000E+03 0.  0.
<mgrwt>
<rscale>  0 0.10212440E+04</rscale>
<asrwt>0</asrwt>
<pdfrwt beam="1">  1        2 0.36609925E+00 0.10212440E+04</pdfrwt>
<pdfrwt beam="2">  1       -2 0.12515823E+00 0.10212440E+04</pdfrwt>
<totfact> 0.19548803E+00</totfact>
</mgrwt>
</event>
<event>
 4    1  0.5387657E-008  0.7101641E+03  0.7818608E-02  0.9700006E-01
          2   -1    0    0  501    0  0.00000000000E+00  0.00000000000E+00  0.20591973071E+04  0.20591973071E+04  0.25500000000E-02 0. -1.
         -2   -1    0    0    0  501 -0.00000000000E+00 -0.00000000000E+00 -0.25248759408E+03  0.25248759409E+03  0.25500000000E-02 0.  1.
    8880022    1    1    2    0    0 -0.69289658652E+03 -0.28908739695E+02  0.11034953422E+04  0.13122633189E+04  0.15294330000E+03 0.  0.
    8880022    1    1    2    0    0  0.69289658652E+03  0.28908739695E+02  0.70321437087E+03  0.99942158234E+03  0.15294330000E+03 0.  0.
<mgrwt>
<rscale>  0 0.71016410E+03</rscale>
<asrwt>0</asrwt>
<pdfrwt beam="1">  1        2 0.31679960E+00 0.71016410E+03</pdfrwt>
<pdfrwt beam="2">  1       -2 0.38844243E-01 0.71016410E+03</pdfrwt>
<totfact> 0.40242814E+01</totfact>
</mgrwt>
</event>
<event>
 4    1  0.5387657E-008  0.6070928E+03  0.7818608E-02  0.9890799E-01
          2   -1    0    0  501    0  0.00000000000E+00  0.00000000000E+00  0.20790747520E+04  0.20790747520E+04  0.25500000000E-02 0. -1.
         -2   -1    0    0    0  501 -0.00000000000E+00 -0.00000000000E+00 -0.45816835637E+03  0.45816835638E+03  0.25500000000E-02 0.  1.
    8880022    1    1    2    0    0 -0.73238351570E+02  0.58292896479E+03 -0.18287465378E+03  0.63403850525E+03  0.15294330000E+03 0.  0.
    8880022    1    1    2    0    0  0.73238351570E+02 -0.58292896479E+03  0.18037810494E+04  0.19032046032E+04  0.15294330000E+03 0.  0.
<mgrwt>
<rscale>  0 0.60709282E+03</rscale>
<asrwt>0</asrwt>
<pdfrwt beam="1">  1        2 0.31985766E+00 0.60709282E+03</pdfrwt>
<pdfrwt beam="2">  1       -2 0.70487439E-01 0.60709282E+03</pdfrwt>
<totfact> 0.11741976E+01</totfact>
</mgrwt>
</event>
<event>
 4    1  0.5387657E-008  0.8945342E+03  0.7818608E-02  0.9432440E-01
          2   -1    0    0  501    0  0.00000000000E+00  0.00000000000E+00  0.19941981045E+04  0.19941981045E+04  0.25500000000E-02 0. -1.
         -2   -1    0    0    0  501 -0.00000000000E+00 -0.00000000000E+00 -0.82591495767E+03  0.82591495768E+03  0.25500000000E-02 0.  1.
    8880022    1    1    2    0    0  0.87931079825E+03 -0.60102007947E+02  0.15952252485E+04  0.18289163398E+04  0.15294330000E+03 0.  0.
    8880022    1    1    2    0    0 -0.87931079825E+03  0.60102007947E+02 -0.42694210172E+03  0.99119672241E+03  0.15294330000E+03 0.  0.
<mgrwt>
<rscale>  0 0.89453417E+03</rscale>
<asrwt>0</asrwt>
<pdfrwt beam="1">  1        2 0.30679971E+00 0.89453417E+03</pdfrwt>
<pdfrwt beam="2">  1       -2 0.12706384E+00 0.89453417E+03</pdfrwt>
<totfact> 0.31374545E+00</totfact>
</mgrwt>
</event>
<event>
 4    1  0.5387657E-008  0.9490518E+03  0.7818608E-02  0.9366260E-01
          2   -1    0    0  501    0  0.00000000000E+00  0.00000000000E+00  0.14509916482E+04  0.14509916482E+04  0.25500000000E-02 0. -1.
         -2   -1    0    0    0  501 -0.00000000000E+00 -0.00000000000E+00 -0.12155080275E+04  0.12155080275E+04  0.25500000000E-02 0.  1.
    8880022    1    1    2    0    0 -0.65843312787E+03  0.66616322463E+03 -0.81487606000E+03  0.12508885929E+04  0.15294330000E+03 0.  0.
    8880022    1    1    2    0    0  0.65843312787E+03 -0.66616322463E+03  0.10503596807E+04  0.14156110827E+04  0.15294330000E+03 0.  0.
<mgrwt>
<rscale>  0 0.94905178E+03</rscale>
<asrwt>0</asrwt>
<pdfrwt beam="1">  1        2 0.22322948E+00 0.94905178E+03</pdfrwt>
<pdfrwt beam="2">  1       -2 0.18700124E+00 0.94905178E+03</pdfrwt>
<totfact> 0.21958976E+00</totfact>
</mgrwt>
</event>
<event>
 4    1  0.5387657E-008  0.1059444E+04  0.7818608E-02  0.9245648E-01
          2   -1    0    0  501    0  0.00000000000E+00  0.00000000000E+00  0.21202499793E+04  0.21202499793E+04  0.25500000000E-02 0. -1.
         -2   -1    0    0    0  501 -0.00000000000E+00 -0.00000000000E+00 -0.67002498303E+03  0.67002498303E+03  0.25500000000E-02 0.  1.
    8880022    1    1    2    0    0 -0.85625622528E+02 -0.10448433357E+04  0.85920395219E+02  0.10629220624E+04  0.15294330000E+03 0.  0.
    8880022    1    1    2    0    0  0.85625622528E+02  0.10448433357E+04  0.13643046010E+04  0.17273528999E+04  0.15294330000E+03 0.  0.
<mgrwt>
<rscale>  0 0.10594437E+04</rscale>
<asrwt>0</asrwt>
<pdfrwt beam="1">  1        2 0.32619230E+00 0.10594437E+04</pdfrwt>
<pdfrwt beam="2">  1       -2 0.10308077E+00 0.10594437E+04</pdfrwt>
<totfact> 0.43748556E+00</totfact>
</mgrwt>
</event>
<event>
 4    1  0.5387657E-008  0.1751782E+03  0.7818608E-02  0.1172553E+00
          2   -1    0    0  501    0  0.00000000000E+00  0.00000000000E+00  0.10835367969E+04  0.10835367969E+04  0.25500000000E-02 0. -1.
         -2   -1    0    0    0  501 -0.00000000000E+00 -0.00000000000E+00 -0.64037649018E+03  0.64037649019E+03  0.25500000000E-02 0.  1.
    8880022    1    1    2    0    0 -0.37837958033E+01 -0.85331345351E+02 -0.62110035042E+03  0.64533173943E+03  0.15294330000E+03 0.  0.
    8880022    1    1    2    0    0  0.37837958033E+01  0.85331345351E+02  0.10642606571E+04  0.10785815477E+04  0.15294330000E+03 0. -1.
<mgrwt>
<rscale>  0 0.17517822E+03</rscale>
<asrwt>0</asrwt>
<pdfrwt beam="1">  1        2 0.16669797E+00 0.17517822E+03</pdfrwt>
<pdfrwt beam="2">  1       -2 0.98519461E-01 0.17517822E+03</pdfrwt>
<totfact> 0.21878183E+01</totfact>
</mgrwt>
</event>
<event>
 4    1  0.5387657E-008  0.6189834E+03  0.7818608E-02  0.9866786E-01
          2   -1    0    0  501    0  0.00000000000E+00  0.00000000000E+00  0.34711979015E+03  0.34711979016E+03  0.25500000000E-02 0. -1.
         -2   -1    0    0    0  501 -0.00000000000E+00 -0.00000000000E+00 -0.17918866512E+04  0.17918866512E+04  0.25500000000E-02 0.  1.
    8880022    1    1    2    0    0  0.31520890568E+03  0.51028636712E+03 -0.13851457313E+04  0.15171582583E+04  0.15294330000E+03 0.  0.
    8880022    1    1    2    0    0 -0.31520890568E+03 -0.51028636712E+03 -0.59621129736E+02  0.62184818309E+03  0.15294330000E+03 0.  0.
<mgrwt>
<rscale>  0 0.61898343E+03</rscale>
<asrwt>0</asrwt>
<pdfrwt beam="1">  1        2 0.53403046E-01 0.61898343E+03</pdfrwt>
<pdfrwt beam="2">  1       -2 0.27567486E+00 0.61898343E+03</pdfrwt>
<totfact> 0.43979457E+00</totfact>
</mgrwt>
</event>
<event>
 4    1  0.5387657E-008  0.1813833E+03  0.7818608E-02  0.1166471E+00
         -2   -1    0    0    0  501 -0.00000000000E+00  0.00000000000E+00  0.10592467512E+03  0.10592467515E+03  0.25500000000E-02 0.  1.
          2   -1    0    0  501    0  0.00000000000E+00 -0.00000000000E+00 -0.11588702004E+04  0.11588702004E+04  0.25500000000E-02 0. -1.
    8880022    1    1    2    0    0 -0.25730766269E+02 -0.94054089667E+02 -0.10675266866E+04  0.10828264513E+04  0.15294330000E+03 0.  0.
    8880022    1    1    2    0    0  0.25730766269E+02  0.94054089667E+02  0.14581161353E+02  0.18196842418E+03  0.15294330000E+03 0.  0.
<mgrwt>
<rscale>  0 0.18138329E+03</rscale>
<asrwt>0</asrwt>
<pdfrwt beam="1">  1        2 0.17828771E+00 0.18138329E+03</pdfrwt>
<pdfrwt beam="2">  1       -2 0.16296105E-01 0.18138329E+03</pdfrwt>
<totfact> 0.63674073E+02</totfact>
</mgrwt>
</event>
<event>
 4    1  0.5387657E-008  0.3657817E+03  0.7818608E-02  0.1056318E+00
          2   -1    0    0  501    0  0.00000000000E+00  0.00000000000E+00  0.59369312160E+03  0.59369312160E+03  0.25500000000E-02 0. -1.
         -2   -1    0    0    0  501 -0.00000000000E+00 -0.00000000000E+00 -0.98592792754E+03  0.98592792754E+03  0.25500000000E-02 0.  1.
    8880022    1    1    2    0    0  0.32828991543E+03  0.51286544863E+02 -0.88981244575E+03  0.96206154683E+03  0.15294330000E+03 0.  0.
    8880022    1    1    2    0    0 -0.32828991543E+03 -0.51286544863E+02  0.49757763981E+03  0.61755950232E+03  0.15294330000E+03 0. -1.
<mgrwt>
<rscale>  0 0.36578167E+03</rscale>
<asrwt>0</asrwt>
<pdfrwt beam="1">  1        2 0.91337403E-01 0.36578167E+03</pdfrwt>
<pdfrwt beam="2">  1       -2 0.15168122E+00 0.36578167E+03</pdfrwt>
<totfact> 0.15619615E+01</totfact>
</mgrwt>
</event>
<event>
 4    1  0.5387657E-008  0.2692034E+03  0.7818608E-02  0.1101736E+00
          2   -1    0    0  501    0  0.00000000000E+00  0.00000000000E+00  0.82958487470E+03  0.82958487470E+03  0.25500000000E-02 0. -1.
         -2   -1    0    0    0  501 -0.00000000000E+00 -0.00000000000E+00 -0.11916769094E+03  0.11916769097E+03  0.25500000000E-02 0.  1.
    8880022    1    1    2    0    0  0.16853144539E+03  0.14379141092E+03  0.11011793310E+03  0.29085465467E+03  0.15294330000E+03 0.  0.
    8880022    1    1    2    0    0 -0.16853144539E+03 -0.14379141092E+03  0.60029925066E+03  0.65789791100E+03  0.15294330000E+03 0. -1.
<mgrwt>
<rscale>  0 0.26920340E+03</rscale>
<asrwt>0</asrwt>
<pdfrwt beam="1">  1        2 0.12762844E+00 0.26920340E+03</pdfrwt>
<pdfrwt beam="2">  1       -2 0.18333491E-01 0.26920340E+03</pdfrwt>
<totfact> 0.82844643E+02</totfact>
</mgrwt>
</event>
<event>
 4    1  0.5387657E-008  0.1349771E+04  0.7818608E-02  0.8991002E-01
         -2   -1    0    0    0  501 -0.00000000000E+00  0.00000000000E+00  0.15363335094E+04  0.15363335094E+04  0.25500000000E-02 0.  1.
          2   -1    0    0  501    0  0.00000000000E+00 -0.00000000000E+00 -0.35856941486E+04  0.35856941486E+04  0.25500000000E-02 0. -1.
    8880022    1    1    2    0    0 -0.11889562713E+04  0.62038074147E+03  0.10704722461E+04  0.17227280000E+04  0.15294330000E+03 0.  0.
    8880022    1    1    2    0    0  0.11889562713E+04 -0.62038074147E+03 -0.31198328853E+04  0.33992996580E+04  0.15294330000E+03 0.  0.
<mgrwt>
<rscale>  0 0.13497707E+04</rscale>
<asrwt>0</asrwt>
<pdfrwt beam="1">  1        2 0.55164525E+00 0.13497707E+04</pdfrwt>
<pdfrwt beam="2">  1       -2 0.23635900E+00 0.13497707E+04</pdfrwt>
<totfact> 0.53500861E-02</totfact>
</mgrwt>
</event>
<event>
 4    1  0.5387657E-008  0.2947125E+03  0.7818608E-02  0.1087914E+00
         -2   -1    0    0    0  501 -0.00000000000E+00  0.00000000000E+00  0.11470461768E+03  0.11470461771E+03  0.25500000000E-02 0.  1.
          2   -1    0    0  501    0  0.00000000000E+00 -0.00000000000E+00 -0.10738885099E+04  0.10738885099E+04  0.25500000000E-02 0. -1.
    8880022    1    1    2    0    0  0.14816062869E+03 -0.20374557881E+03 -0.80231716529E+03  0.85473289366E+03  0.15294330000E+03 0.  0.
    8880022    1    1    2    0    0 -0.14816062869E+03  0.20374557881E+03 -0.15686672691E+03  0.33386023394E+03  0.15294330000E+03 0.  0.
<mgrwt>
<rscale>  0 0.29471255E+03</rscale>
<asrwt>0</asrwt>
<pdfrwt beam="1">  1        2 0.16521361E+00 0.29471255E+03</pdfrwt>
<pdfrwt beam="2">  1       -2 0.17646865E-01 0.29471255E+03</pdfrwt>
<totfact> 0.61803337E+02</totfact>
</mgrwt>
</event>
<event>
 4    1  0.5387657E-008  0.8852233E+03  0.7818608E-02  0.9444244E-01
         -2   -1    0    0    0  501 -0.00000000000E+00  0.00000000000E+00  0.35827312918E+03  0.35827312919E+03  0.25500000000E-02 0.  1.
          2   -1    0    0  501    0  0.00000000000E+00 -0.00000000000E+00 -0.25598685473E+04  0.25598685473E+04  0.25500000000E-02 0. -1.
    8880022    1    1    2    0    0  0.48930892327E+03 -0.72166843971E+03 -0.54409873731E+03  0.10390686446E+04  0.15294330000E+03 0.  0.
    8880022    1    1    2    0    0 -0.48930892327E+03  0.72166843971E+03 -0.16574966808E+04  0.18790730319E+04  0.15294330000E+03 0.  0.
<mgrwt>
<rscale>  0 0.88522326E+03</rscale>
<asrwt>0</asrwt>
<pdfrwt beam="1">  1        2 0.39382592E+00 0.88522326E+03</pdfrwt>
<pdfrwt beam="2">  1       -2 0.55118945E-01 0.88522326E+03</pdfrwt>
<totfact> 0.10226998E+01</totfact>
</mgrwt>
</event>
<event>
 4    1  0.5387657E-008  0.1843533E+03  0.7818608E-02  0.1163655E+00
          2   -1    0    0  501    0  0.00000000000E+00  0.00000000000E+00  0.12565492049E+04  0.12565492049E+04  0.25500000000E-02 0. -1.
         -2   -1    0    0    0  501 -0.00000000000E+00 -0.00000000000E+00 -0.33539274965E+03  0.33539274966E+03  0.25500000000E-02 0.  1.
    8880022    1    1    2    0    0 -0.10067105264E+03 -0.21443345474E+02 -0.30262332263E+03  0.35435435134E+03  0.15294330000E+03 0.  0.
    8880022    1    1    2    0    0  0.10067105264E+03  0.21443345474E+02  0.12237797778E+04  0.12375876032E+04  0.15294330000E+03 0. -1.
<mgrwt>
<rscale>  0 0.18435328E+03</rscale>
<asrwt>0</asrwt>
<pdfrwt beam="1">  1        2 0.19331526E+00 0.18435328E+03</pdfrwt>
<pdfrwt beam="2">  1       -2 0.51598885E-01 0.18435328E+03</pdfrwt>
<totfact> 0.69680156E+01</totfact>
</mgrwt>
</event>
<event>
 4    1  0.5387657E-008  0.7822766E+03  0.7818608E-02  0.9586031E-01
         -2   -1    0    0    0  501 -0.00000000000E+00  0.00000000000E+00  0.68066151075E+03  0.68066151076E+03  0.25500000000E-02 0.  1.
          2   -1    0    0  501    0  0.00000000000E+00 -0.00000000000E+00 -0.97784720184E+03  0.97784720184E+03  0.25500000000E-02 0. -1.
    8880022    1    1    2    0    0 -0.20555343157E+03 -0.73912973664E+03  0.86790463286E+02  0.78707637389E+03  0.15294330000E+03 0.  0.
    8880022    1    1    2    0    0  0.20555343157E+03  0.73912973664E+03 -0.38397615437E+03  0.87143233871E+03  0.15294330000E+03 0.  0.
<mgrwt>
<rscale>  0 0.78227657E+03</rscale>
<asrwt>0</asrwt>
<pdfrwt beam="1">  1        2 0.15043803E+00 0.78227657E+03</pdfrwt>
<pdfrwt beam="2">  1       -2 0.10471716E+00 0.78227657E+03</pdfrwt>
<totfact> 0.19510915E+01</totfact>
</mgrwt>
</event>
<event>
 4    1  0.5387657E-008  0.4168239E+03  0.7818608E-02  0.1038105E+00
         -2   -1    0    0    0  501 -0.00000000000E+00  0.00000000000E+00  0.43102221882E+03  0.43102221883E+03  0.25500000000E-02 0.  1.
          2   -1    0    0  501    0  0.00000000000E+00 -0.00000000000E+00 -0.16323265206E+04  0.16323265206E+04  0.25500000000E-02 0. -1.
    8880022    1    1    2    0    0 -0.27458656530E+03 -0.27377501185E+03 -0.14959267396E+04  0.15529130697E+04  0.15294330000E+03 0.  0.
    8880022    1    1    2    0    0  0.27458656530E+03  0.27377501185E+03  0.29462243784E+03  0.51043566965E+03  0.15294330000E+03 0.  0.
<mgrwt>
<rscale>  0 0.41682393E+03</rscale>
<asrwt>0</asrwt>
<pdfrwt beam="1">  1        2 0.25112715E+00 0.41682393E+03</pdfrwt>
<pdfrwt beam="2">  1       -2 0.66311111E-01 0.41682393E+03</pdfrwt>
<totfact> 0.24256408E+01</totfact>
</mgrwt>
</event>
<event>
 4    1  0.5387657E-008  0.3594130E+03  0.7818608E-02  0.1058817E+00
          2   -1    0    0  501    0  0.00000000000E+00  0.00000000000E+00  0.17133522622E+04  0.17133522622E+04  0.25500000000E-02 0. -1.
         -2   -1    0    0    0  501 -0.00000000000E+00 -0.00000000000E+00 -0.96651230413E+03  0.96651230413E+03  0.25500000000E-02 0.  1.
    8880022    1    1    2    0    0  0.24873659798E+03 -0.20956179184E+03  0.16600292218E+04  0.16984918929E+04  0.15294330000E+03 0. -1.
    8880022    1    1    2    0    0 -0.24873659798E+03  0.20956179184E+03 -0.91318926376E+03  0.98137267347E+03  0.15294330000E+03 0.  0.
<mgrwt>
<rscale>  0 0.35941298E+03</rscale>
<asrwt>0</asrwt>
<pdfrwt beam="1">  1        2 0.26359265E+00 0.35941298E+03</pdfrwt>
<pdfrwt beam="2">  1       -2 0.14869420E+00 0.35941298E+03</pdfrwt>
<totfact> 0.33501944E+00</totfact>
</mgrwt>
</event>
<event>
 4    1  0.5387657E-008  0.5531559E+03  0.7818608E-02  0.1000766E+00
          2   -1    0    0  501    0  0.00000000000E+00  0.00000000000E+00  0.71015463156E+03  0.71015463157E+03  0.25500000000E-02 0. -1.
         -2   -1    0    0    0  501 -0.00000000000E+00 -0.00000000000E+00 -0.29516146808E+04  0.29516146808E+04  0.25500000000E-02 0.  1.
    8880022    1    1    2    0    0  0.49762447739E+03 -0.18697520324E+03 -0.28127127577E+04  0.28665893597E+04  0.15294330000E+03 0.  0.
    8880022    1    1    2    0    0 -0.49762447739E+03  0.18697520324E+03  0.57125270845E+03  0.79517995262E+03  0.15294330000E+03 0.  0.
<mgrwt>
<rscale>  0 0.55315595E+03</rscale>
<asrwt>0</asrwt>
<pdfrwt beam="1">  1        2 0.10925456E+00 0.55315595E+03</pdfrwt>
<pdfrwt beam="2">  1       -2 0.45409456E+00 0.55315595E+03</pdfrwt>
<totfact> 0.14760786E-01</totfact>
</mgrwt>
</event>
<event>
 4    1  0.5387657E-008  0.3450728E+03  0.7818608E-02  0.1064656E+00
         -2   -1    0    0    0  501 -0.00000000000E+00  0.00000000000E+00  0.24582377455E+03  0.24582377456E+03  0.25500000000E-02 0.  1.
          2   -1    0    0  501    0  0.00000000000E+00 -0.00000000000E+00 -0.63424931369E+03  0.63424931370E+03  0.25500000000E-02 0. -1.
    8880022    1    1    2    0    0  0.37432432032E+02 -0.30705444032E+03 -0.40810575289E+03  0.53443949597E+03  0.15294330000E+03 0.  0.
    8880022    1    1    2    0    0 -0.37432432032E+02  0.30705444032E+03  0.19680213748E+02  0.34563359229E+03  0.15294330000E+03 0.  0.
<mgrwt>
<rscale>  0 0.34507285E+03</rscale>
<asrwt>0</asrwt>
<pdfrwt beam="1">  1        2 0.97576817E-01 0.34507285E+03</pdfrwt>
<pdfrwt beam="2">  1       -2 0.37819042E-01 0.34507285E+03</pdfrwt>
<totfact> 0.31418846E+02</totfact>
</mgrwt>
</event>
<event>
 4    1  0.5387657E-008  0.7456810E+03  0.7818608E-02  0.9642151E-01
         -2   -1    0    0    0  501 -0.00000000000E+00  0.00000000000E+00  0.46873215658E+03  0.46873215658E+03  0.25500000000E-02 0.  1.
          2   -1    0    0  501    0  0.00000000000E+00 -0.00000000000E+00 -0.16662066967E+04  0.16662066967E+04  0.25500000000E-02 0. -1.
    8880022    1    1    2    0    0 -0.42125007235E+03 -0.59598389540E+03 -0.11716463482E+04  0.13888107306E+04  0.15294330000E+03 0. -1.
    8880022    1    1    2    0    0  0.42125007235E+03  0.59598389540E+03 -0.25828191919E+02  0.74612812274E+03  0.15294330000E+03 0.  0.
<mgrwt>
<rscale>  0 0.74568095E+03</rscale>
<asrwt>0</asrwt>
<pdfrwt beam="1">  1        2 0.25633949E+00 0.74568095E+03</pdfrwt>
<pdfrwt beam="2">  1       -2 0.72112640E-01 0.74568095E+03</pdfrwt>
<totfact> 0.18331638E+01</totfact>
</mgrwt>
</event>
<event>
 4    1  0.5387657E-008  0.5633968E+03  0.7818608E-02  0.9984398E-01
         -2   -1    0    0    0  501 -0.00000000000E+00  0.00000000000E+00  0.41001152816E+03  0.41001152817E+03  0.25500000000E-02 0.  1.
          2   -1    0    0  501    0  0.00000000000E+00 -0.00000000000E+00 -0.14248694357E+04  0.14248694357E+04  0.25500000000E-02 0. -1.
    8880022    1    1    2    0    0 -0.38074129110E+03  0.38608344162E+03 -0.11274161336E+04  0.12603504060E+04  0.15294330000E+03 0.  0.
    8880022    1    1    2    0    0  0.38074129110E+03 -0.38608344162E+03  0.11255822606E+03  0.57453055785E+03  0.15294330000E+03 0.  0.
<mgrwt>
<rscale>  0 0.56339685E+03</rscale>
<asrwt>0</asrwt>
<pdfrwt beam="1">  1        2 0.21921068E+00 0.56339685E+03</pdfrwt>
<pdfrwt beam="2">  1       -2 0.63078697E-01 0.56339685E+03</pdfrwt>
<totfact> 0.34116190E+01</totfact>
</mgrwt>
</event>
<event>
 4    1  0.5387657E-008  0.1812879E+03  0.7818608E-02  0.1166562E+00
         -2   -1    0    0    0  501 -0.00000000000E+00  0.00000000000E+00  0.69010085322E+03  0.69010085322E+03  0.25500000000E-02 0.  1.
          2   -1    0    0  501    0  0.00000000000E+00 -0.00000000000E+00 -0.17288138442E+03  0.17288138444E+03  0.25500000000E-02 0. -1.
    8880022    1    1    2    0    0 -0.44509754172E+02 -0.86559347041E+02 -0.10867222254E+03  0.21136448080E+03  0.15294330000E+03 0.  0.
    8880022    1    1    2    0    0  0.44509754172E+02  0.86559347041E+02  0.62589169133E+03  0.65161775687E+03  0.15294330000E+03 0.  0.
<mgrwt>
<rscale>  0 0.18128787E+03</rscale>
<asrwt>0</asrwt>
<pdfrwt beam="1">  1        2 0.26597136E-01 0.18128787E+03</pdfrwt>
<pdfrwt beam="2">  1       -2 0.10616936E+00 0.18128787E+03</pdfrwt>
<totfact> 0.15104796E+02</totfact>
</mgrwt>
</event>
<event>
 4    1  0.5387657E-008  0.4094242E+03  0.7818608E-02  0.1040564E+00
         -2   -1    0    0    0  501 -0.00000000000E+00  0.00000000000E+00  0.37832804894E+03  0.37832804895E+03  0.25500000000E-02 0.  1.
          2   -1    0    0  501    0  0.00000000000E+00 -0.00000000000E+00 -0.11992471942E+04  0.11992471942E+04  0.25500000000E-02 0. -1.
    8880022    1    1    2    0    0 -0.30365843769E+02 -0.37856896174E+03  0.21588844377E+03  0.46285636695E+03  0.15294330000E+03 0.  0.
    8880022    1    1    2    0    0  0.30365843769E+02  0.37856896174E+03 -0.10368075890E+04  0.11147188762E+04  0.15294330000E+03 0. -1.
<mgrwt>
<rscale>  0 0.40942423E+03</rscale>
<asrwt>0</asrwt>
<pdfrwt beam="1">  1        2 0.18449957E+00 0.40942423E+03</pdfrwt>
<pdfrwt beam="2">  1       -2 0.58204316E-01 0.40942423E+03</pdfrwt>
<totfact> 0.55575839E+01</totfact>
</mgrwt>
</event>
<event>
 4    1  0.5387657E-008  0.1836021E+03  0.7818608E-02  0.1164362E+00
         -2   -1    0    0    0  501 -0.00000000000E+00  0.00000000000E+00  0.22453099531E+03  0.22453099532E+03  0.25500000000E-02 0.  1.
          2   -1    0    0  501    0  0.00000000000E+00 -0.00000000000E+00 -0.12931409372E+04  0.12931409372E+04  0.25500000000E-02 0. -1.
    8880022    1    1    2    0    0  0.54162092054E+02  0.85933442786E+02  0.17912180522E+03  0.25650411873E+03  0.15294330000E+03 0.  1.
    8880022    1    1    2    0    0 -0.54162092054E+02 -0.85933442786E+02 -0.12477317471E+04  0.12611678138E+04  0.15294330000E+03 0.  0.
<mgrwt>
<rscale>  0 0.18360213E+03</rscale>
<asrwt>0</asrwt>
<pdfrwt beam="1">  1        2 0.19894475E+00 0.18360213E+03</pdfrwt>
<pdfrwt beam="2">  1       -2 0.34543231E-01 0.18360213E+03</pdfrwt>
<totfact> 0.14405996E+02</totfact>
</mgrwt>
</event>
<event>
 4    1  0.5387657E-008  0.2110782E+03  0.7818608E-02  0.1140715E+00
          2   -1    0    0  501    0  0.00000000000E+00  0.00000000000E+00  0.79157113883E+03  0.79157113884E+03  0.25500000000E-02 0. -1.
         -2   -1    0    0    0  501 -0.00000000000E+00 -0.00000000000E+00 -0.13227135205E+03  0.13227135208E+03  0.25500000000E-02 0.  1.
    8880022    1    1    2    0    0 -0.96326890179E+02 -0.10901134858E+03  0.67975733292E+03  0.71177526549E+03  0.15294330000E+03 0.  0.
    8880022    1    1    2    0    0  0.96326890179E+02  0.10901134858E+03 -0.20457546145E+02  0.21206722542E+03  0.15294330000E+03 0.  0.
<mgrwt>
<rscale>  0 0.21107818E+03</rscale>
<asrwt>0</asrwt>
<pdfrwt beam="1">  1        2 0.12178018E+00 0.21107818E+03</pdfrwt>
<pdfrwt beam="2">  1       -2 0.20349438E-01 0.21107818E+03</pdfrwt>
<totfact> 0.73779296E+02</totfact>
</mgrwt>
</event>
<event>
 4    1  0.5387657E-008  0.5027147E+03  0.7818608E-02  0.1013073E+00
          2   -1    0    0  501    0  0.00000000000E+00  0.00000000000E+00  0.12138677768E+04  0.12138677768E+04  0.25500000000E-02 0. -1.
         -2   -1    0    0    0  501 -0.00000000000E+00 -0.00000000000E+00 -0.78671609259E+03  0.78671609260E+03  0.25500000000E-02 0.  1.
    8880022    1    1    2    0    0 -0.22574810214E+03  0.42233663950E+03  0.10713581266E+04  0.11834400412E+04  0.15294330000E+03 0.  0.
    8880022    1    1    2    0    0  0.22574810214E+03 -0.42233663950E+03 -0.64420644234E+03  0.81714382825E+03  0.15294330000E+03 0.  0.
<mgrwt>
<rscale>  0 0.50271473E+03</rscale>
<asrwt>0</asrwt>
<pdfrwt beam="1">  1        2 0.18674889E+00 0.50271473E+03</pdfrwt>
<pdfrwt beam="2">  1       -2 0.12103325E+00 0.50271473E+03</pdfrwt>
<totfact> 0.10236968E+01</totfact>
</mgrwt>
</event>
<event>
 4    1  0.5387657E-008  0.4947950E+03  0.7818608E-02  0.1015147E+00
          2   -1    0    0  501    0  0.00000000000E+00  0.00000000000E+00  0.12676736759E+04  0.12676736759E+04  0.25500000000E-02 0. -1.
         -2   -1    0    0    0  501 -0.00000000000E+00 -0.00000000000E+00 -0.38401294008E+03  0.38401294009E+03  0.25500000000E-02 0.  1.
    8880022    1    1    2    0    0  0.46987815809E+03 -0.25395324391E+02 -0.14042252455E+03  0.51433505068E+03  0.15294330000E+03 0.  0.
    8880022    1    1    2    0    0 -0.46987815809E+03  0.25395324391E+02  0.10240832604E+04  0.11373515653E+04  0.15294330000E+03 0.  0.
<mgrwt>
<rscale>  0 0.49479497E+03</rscale>
<asrwt>0</asrwt>
<pdfrwt beam="1">  1        2 0.19502672E+00 0.49479497E+03</pdfrwt>
<pdfrwt beam="2">  1       -2 0.59078913E-01 0.49479497E+03</pdfrwt>
<totfact> 0.48536889E+01</totfact>
</mgrwt>
</event>
<event>
 4    1  0.8519805E-008  0.1620993E+04  0.7818608E-02  0.8807754E-01
         -2   -1    0    0    0  501 -0.00000000000E+00  0.00000000000E+00  0.17335643059E+04  0.17335643059E+04  0.25500000000E-02 0.  1.
          2   -1    0    0  501    0  0.00000000000E+00 -0.00000000000E+00 -0.30550651472E+04  0.30550651472E+04  0.25500000000E-02 0. -1.
    8880022    1    1    2    0    0  0.11157576139E+04 -0.11658949218E+04  0.10388131305E+04  0.19252922881E+04  0.15294330000E+03 0.  0.
    8880022    1    1    2    0    0 -0.11157576139E+04  0.11658949218E+04 -0.23603139718E+04  0.28633371649E+04  0.15294330000E+03 0.  0.
<mgrwt>
<rscale>  0 0.16209928E+04</rscale>
<asrwt>0</asrwt>
<pdfrwt beam="1">  1        2 0.47001002E+00 0.16209928E+04</pdfrwt>
<pdfrwt beam="2">  1       -2 0.26670220E+00 0.16209928E+04</pdfrwt>
<totfact> 0.75569493E-02</totfact>
</mgrwt>
</event>
<event>
 4    1  0.5387657E-008  0.1756987E+03  0.7818608E-02  0.1172032E+00
          2   -1    0    0  501    0  0.00000000000E+00  0.00000000000E+00  0.54602070108E+03  0.54602070108E+03  0.25500000000E-02 0. -1.
         -2   -1    0    0    0  501 -0.00000000000E+00 -0.00000000000E+00 -0.10340880242E+04  0.10340880242E+04  0.25500000000E-02 0.  1.
    8880022    1    1    2    0    0 -0.69225287752E+02  0.51828970275E+02 -0.10121872714E+04  0.10273232733E+04  0.15294330000E+03 0.  1.
    8880022    1    1    2    0    0  0.69225287752E+02 -0.51828970275E+02  0.52411994828E+03  0.55278545190E+03  0.15294330000E+03 0.  0.
<mgrwt>
<rscale>  0 0.17569871E+03</rscale>
<asrwt>0</asrwt>
<pdfrwt beam="1">  1        2 0.84003185E-01 0.17569871E+03</pdfrwt>
<pdfrwt beam="2">  1       -2 0.15909047E+00 0.17569871E+03</pdfrwt>
<totfact> 0.15998197E+01</totfact>
</mgrwt>
</event>
<event>
 4    1  0.5387657E-008  0.4891391E+03  0.7818608E-02  0.1016653E+00
         -2   -1    0    0    0  501 -0.00000000000E+00  0.00000000000E+00  0.20898247297E+03  0.20898247298E+03  0.25500000000E-02 0.  1.
          2   -1    0    0  501    0  0.00000000000E+00 -0.00000000000E+00 -0.20008189829E+04  0.20008189829E+04  0.25500000000E-02 0. -1.
    8880022    1    1    2    0    0 -0.55041305407E+02  0.46134140768E+03 -0.16185950584E+04  0.16908894274E+04  0.15294330000E+03 0.  0.
    8880022    1    1    2    0    0  0.55041305407E+02 -0.46134140768E+03 -0.17324145156E+03  0.51891202847E+03  0.15294330000E+03 0.  0.
<mgrwt>
<rscale>  0 0.48913913E+03</rscale>
<asrwt>0</asrwt>
<pdfrwt beam="1">  1        2 0.30781829E+00 0.48913913E+03</pdfrwt>
<pdfrwt beam="2">  1       -2 0.32151151E-01 0.48913913E+03</pdfrwt>
<totfact> 0.64147359E+01</totfact>
</mgrwt>
</event>
<event>
 4    1  0.5387657E-008  0.5256990E+03  0.7818608E-02  0.1007281E+00
          2   -1    0    0  501    0  0.00000000000E+00  0.00000000000E+00  0.19462899429E+04  0.19462899429E+04  0.25500000000E-02 0. -1.
         -2   -1    0    0    0  501 -0.00000000000E+00 -0.00000000000E+00 -0.15479510046E+03  0.15479510048E+03  0.25500000000E-02 0.  1.
    8880022    1    1    2    0    0 -0.93807245300E+02  0.49413360813E+03  0.59362964364E+03  0.79294112567E+03  0.15294330000E+03 0.  0.
    8880022    1    1    2    0    0  0.93807245300E+02 -0.49413360813E+03  0.11978651988E+04  0.13081439177E+04  0.15294330000E+03 0.  0.
<mgrwt>
<rscale>  0 0.52569903E+03</rscale>
<asrwt>0</asrwt>
<pdfrwt beam="1">  1        2 0.29942922E+00 0.52569903E+03</pdfrwt>
<pdfrwt beam="2">  1       -2 0.23814631E-01 0.52569903E+03</pdfrwt>
<totfact> 0.11786278E+02</totfact>
</mgrwt>
</event>
<event>
 4    1  0.5387657E-008  0.2742161E+03  0.7818608E-02  0.1098891E+00
         -2   -1    0    0    0  501 -0.00000000000E+00  0.00000000000E+00  0.58703377257E+02  0.58703377313E+02  0.25500000000E-02 0.  1.
          2   -1    0    0  501    0  0.00000000000E+00 -0.00000000000E+00 -0.18195039586E+04  0.18195039586E+04  0.25500000000E-02 0. -1.
    8880022    1    1    2    0    0  0.15924321707E+03 -0.16261733465E+03 -0.13913320497E+04  0.14180970789E+04  0.15294330000E+03 0. -1.
    8880022    1    1    2    0    0 -0.15924321707E+03  0.16261733465E+03 -0.36946853170E+03  0.46011025705E+03  0.15294330000E+03 0.  0.
<mgrwt>
<rscale>  0 0.27421607E+03</rscale>
<asrwt>0</asrwt>
<pdfrwt beam="1">  1        2 0.27992364E+00 0.27421607E+03</pdfrwt>
<pdfrwt beam="2">  1       -2 0.90312902E-02 0.27421607E+03</pdfrwt>
<totfact> 0.72233328E+02</totfact>
</mgrwt>
</event>
<event>
 4    1  0.5387657E-008  0.7759894E+03  0.7818608E-02  0.9595437E-01
          2   -1    0    0  501    0  0.00000000000E+00  0.00000000000E+00  0.14759229003E+04  0.14759229003E+04  0.25500000000E-02 0. -1.
         -2   -1    0    0    0  501 -0.00000000000E+00 -0.00000000000E+00 -0.83772639163E+03  0.83772639163E+03  0.25500000000E-02 0.  1.
    8880022    1    1    2    0    0 -0.73880886729E+03  0.18146467547E+03 -0.50945082646E+03  0.92827785088E+03  0.15294330000E+03 0.  1.
    8880022    1    1    2    0    0  0.73880886729E+03 -0.18146467547E+03  0.11476473351E+04  0.13853714410E+04  0.15294330000E+03 0.  0.
<mgrwt>
<rscale>  0 0.77598945E+03</rscale>
<asrwt>0</asrwt>
<pdfrwt beam="1">  1        2 0.22706506E+00 0.77598945E+03</pdfrwt>
<pdfrwt beam="2">  1       -2 0.12888099E+00 0.77598945E+03</pdfrwt>
<totfact> 0.59375781E+00</totfact>
</mgrwt>
</event>
<event>
 4    1  0.5387657E-008  0.6624602E+03  0.7818608E-02  0.9783675E-01
          2   -1    0    0  501    0  0.00000000000E+00  0.00000000000E+00  0.35544135522E+04  0.35544135522E+04  0.25500000000E-02 0. -1.
         -2   -1    0    0    0  501 -0.00000000000E+00 -0.00000000000E+00 -0.17956327344E+03  0.17956327346E+03  0.25500000000E-02 0.  1.
    8880022    1    1    2    0    0  0.48617566929E+03 -0.42319622584E+03  0.27309411261E+04  0.28101410844E+04  0.15294330000E+03 0.  0.
    8880022    1    1    2    0    0 -0.48617566929E+03  0.42319622584E+03  0.64390915270E+03  0.92383574131E+03  0.15294330000E+03 0.  0.
<mgrwt>
<rscale>  0 0.66246017E+03</rscale>
<asrwt>0</asrwt>
<pdfrwt beam="1">  1        2 0.54683283E+00 0.66246017E+03</pdfrwt>
<pdfrwt beam="2">  1       -2 0.27625120E-01 0.66246017E+03</pdfrwt>
<totfact> 0.97949125E+00</totfact>
</mgrwt>
</event>
<event>
 4    1  0.5387657E-008  0.6153595E+03  0.7818608E-02  0.9874043E-01
         -2   -1    0    0    0  501 -0.00000000000E+00  0.00000000000E+00  0.45106321932E+03  0.45106321933E+03  0.25500000000E-02 0.  1.
          2   -1    0    0  501    0  0.00000000000E+00 -0.00000000000E+00 -0.12181270072E+04  0.12181270072E+04  0.25500000000E-02 0. -1.
    8880022    1    1    2    0    0  0.15527086828E+03 -0.57547082164E+03 -0.84883463765E+03  0.10484214821E+04  0.15294330000E+03 0.  0.
    8880022    1    1    2    0    0 -0.15527086828E+03  0.57547082164E+03  0.81770849806E+02  0.62076874437E+03  0.15294330000E+03 0.  0.
<mgrwt>
<rscale>  0 0.61535954E+03</rscale>
<asrwt>0</asrwt>
<pdfrwt beam="1">  1        2 0.18740415E+00 0.61535954E+03</pdfrwt>
<pdfrwt beam="2">  1       -2 0.69394342E-01 0.61535954E+03</pdfrwt>
<totfact> 0.36195474E+01</totfact>
</mgrwt>
</event>
<event>
 4    1  0.5387657E-008  0.4136087E+03  0.7818608E-02  0.1039167E+00
         -2   -1    0    0    0  501 -0.00000000000E+00  0.00000000000E+00  0.31284022544E+03  0.31284022545E+03  0.25500000000E-02 0.  1.
          2   -1    0    0  501    0  0.00000000000E+00 -0.00000000000E+00 -0.90022166832E+03  0.90022166832E+03  0.25500000000E-02 0. -1.
    8880022    1    1    2    0    0 -0.28844639443E+01 -0.38428134411E+03  0.86326291162E+02  0.42252142328E+03  0.15294330000E+03 0.  0.
    8880022    1    1    2    0    0  0.28844639443E+01  0.38428134411E+03 -0.67370773404E+03  0.79054047049E+03  0.15294330000E+03 0.  0.
<mgrwt>
<rscale>  0 0.41360866E+03</rscale>
<asrwt>0</asrwt>
<pdfrwt beam="1">  1        2 0.13849564E+00 0.41360866E+03</pdfrwt>
<pdfrwt beam="2">  1       -2 0.48129266E-01 0.41360866E+03</pdfrwt>
<totfact> 0.12490186E+02</totfact>
</mgrwt>
</event>
<event>
 4    1  0.5387657E-008  0.5648200E+03  0.7818608E-02  0.9981207E-01
          2   -1    0    0  501    0  0.00000000000E+00  0.00000000000E+00  0.31785099553E+04  0.31785099553E+04  0.25500000000E-02 0. -1.
         -2   -1    0    0    0  501 -0.00000000000E+00 -0.00000000000E+00 -0.11089560922E+03  0.11089560925E+03  0.25500000000E-02 0.  1.
    8880022    1    1    2    0    0  0.32361592821E+01 -0.54370907325E+03  0.10270631049E+04  0.11721264026E+04  0.15294330000E+03 0.  0.
    8880022    1    1    2    0    0 -0.32361592821E+01  0.54370907325E+03  0.20405512412E+04  0.21172791620E+04  0.15294330000E+03 0.  0.
<mgrwt>
<rscale>  0 0.56482004E+03</rscale>
<asrwt>0</asrwt>
<pdfrwt beam="1">  1        2 0.48900151E+00 0.56482004E+03</pdfrwt>
<pdfrwt beam="2">  1       -2 0.17060864E-01 0.56482004E+03</pdfrwt>
<totfact> 0.41358873E+01</totfact>
</mgrwt>
</event>
<event>
 4    1  0.5387657E-008  0.3480161E+03  0.7818608E-02  0.1063432E+00
         -2   -1    0    0    0  501 -0.00000000000E+00  0.00000000000E+00  0.21842182244E+03  0.21842182245E+03  0.25500000000E-02 0.  1.
          2   -1    0    0  501    0  0.00000000000E+00 -0.00000000000E+00 -0.59618526437E+03  0.59618526437E+03  0.25500000000E-02 0. -1.
    8880022    1    1    2    0    0 -0.18551278723E+03  0.25161193046E+03 -0.81182775621E+02  0.35735955821E+03  0.15294330000E+03 0.  0.
    8880022    1    1    2    0    0  0.18551278723E+03 -0.25161193046E+03 -0.29658066631E+03  0.45724752861E+03  0.15294330000E+03 0.  0.
<mgrwt>
<rscale>  0 0.34801611E+03</rscale>
<asrwt>0</asrwt>
<pdfrwt beam="1">  1        2 0.91720809E-01 0.34801611E+03</pdfrwt>
<pdfrwt beam="2">  1       -2 0.33603358E-01 0.34801611E+03</pdfrwt>
<totfact> 0.42246239E+02</totfact>
</mgrwt>
</event>
<event>
 4    1  0.5387657E-008  0.4225937E+03  0.7818608E-02  0.1036225E+00
         -2   -1    0    0    0  501 -0.00000000000E+00  0.00000000000E+00  0.19640533995E+04  0.19640533995E+04  0.25500000000E-02 0.  1.
          2   -1    0    0  501    0  0.00000000000E+00 -0.00000000000E+00 -0.25474539898E+03  0.25474539899E+03  0.25500000000E-02 0. -1.
    8880022    1    1    2    0    0 -0.24977655254E+03  0.30463985662E+03  0.17442977510E+04  0.17947590550E+04  0.15294330000E+03 0.  0.
    8880022    1    1    2    0    0  0.24977655254E+03 -0.30463985662E+03 -0.34989750411E+02  0.42403974353E+03  0.15294330000E+03 0.  0.
<mgrwt>
<rscale>  0 0.42259368E+03</rscale>
<asrwt>0</asrwt>
<pdfrwt beam="1">  1        2 0.39191601E-01 0.42259368E+03</pdfrwt>
<pdfrwt beam="2">  1       -2 0.30216205E+00 0.42259368E+03</pdfrwt>
<totfact> 0.44712931E+00</totfact>
</mgrwt>
</event>
<event>
 4    1  0.5387657E-008  0.1593288E+03  0.7818608E-02  0.1189457E+00
         -2   -1    0    0    0  501 -0.00000000000E+00  0.00000000000E+00  0.19245608827E+03  0.19245608829E+03  0.25500000000E-02 0.  1.
          2   -1    0    0  501    0  0.00000000000E+00 -0.00000000000E+00 -0.11440062179E+04  0.11440062179E+04  0.25500000000E-02 0. -1.
    8880022    1    1    2    0    0 -0.44458289188E+02  0.41805478757E+01 -0.11043032819E+04  0.11157380552E+04  0.15294330000E+03 0. -1.
    8880022    1    1    2    0    0  0.44458289188E+02 -0.41805478757E+01  0.15275315222E+03  0.22072425102E+03  0.15294330000E+03 0.  0.
<mgrwt>
<rscale>  0 0.15932881E+03</rscale>
<asrwt>0</asrwt>
<pdfrwt beam="1">  1        2 0.17600095E+00 0.15932881E+03</pdfrwt>
<pdfrwt beam="2">  1       -2 0.29608630E-01 0.15932881E+03</pdfrwt>
<totfact> 0.23268319E+02</totfact>
</mgrwt>
</event>
<event>
 4    1  0.5387657E-008  0.3071120E+03  0.7818608E-02  0.1081738E+00
         -2   -1    0    0    0  501 -0.00000000000E+00  0.00000000000E+00  0.82799062960E+03  0.82799062960E+03  0.25500000000E-02 0.  1.
          2   -1    0    0  501    0  0.00000000000E+00 -0.00000000000E+00 -0.13482055852E+03  0.13482055854E+03  0.25500000000E-02 0. -1.
    8880022    1    1    2    0    0 -0.18958103834E+03  0.18704315202E+03  0.15700223223E+03  0.34491660551E+03  0.15294330000E+03 0.  0.
    8880022    1    1    2    0    0  0.18958103834E+03 -0.18704315202E+03  0.53616783885E+03  0.61789458263E+03  0.15294330000E+03 0.  0.
<mgrwt>
<rscale>  0 0.30711197E+03</rscale>
<asrwt>0</asrwt>
<pdfrwt beam="1">  1        2 0.20741624E-01 0.30711197E+03</pdfrwt>
<pdfrwt beam="2">  1       -2 0.12738317E+00 0.30711197E+03</pdfrwt>
<totfact> 0.12798580E+02</totfact>
</mgrwt>
</event>
<event>
 4    1  0.5387657E-008  0.7863538E+03  0.7818608E-02  0.9579982E-01
         -2   -1    0    0    0  501 -0.00000000000E+00  0.00000000000E+00  0.16434110433E+03  0.16434110435E+03  0.25500000000E-02 0.  1.
          2   -1    0    0  501    0  0.00000000000E+00 -0.00000000000E+00 -0.45709168205E+04  0.45709168205E+04  0.25500000000E-02 0. -1.
    8880022    1    1    2    0    0 -0.67941751083E+03 -0.36517467369E+03 -0.12076562179E+04  0.14411057872E+04  0.15294330000E+03 0.  0.
    8880022    1    1    2    0    0  0.67941751083E+03  0.36517467369E+03 -0.31989194983E+04  0.32941521376E+04  0.15294330000E+03 0.  0.
<mgrwt>
<rscale>  0 0.78635383E+03</rscale>
<asrwt>0</asrwt>
<pdfrwt beam="1">  1        2 0.70321788E+00 0.78635383E+03</pdfrwt>
<pdfrwt beam="2">  1       -2 0.25283250E-01 0.78635383E+03</pdfrwt>
<totfact> 0.16595648E+00</totfact>
</mgrwt>
</event>
<event>
 4    1  0.5387657E-008  0.6967013E+03  0.7818608E-02  0.9722890E-01
         -2   -1    0    0    0  501 -0.00000000000E+00  0.00000000000E+00  0.96599452980E+03  0.96599452980E+03  0.25500000000E-02 0.  1.
          2   -1    0    0  501    0  0.00000000000E+00 -0.00000000000E+00 -0.82143117720E+03  0.82143117721E+03  0.25500000000E-02 0. -1.
    8880022    1    1    2    0    0 -0.17325243849E+03  0.65725541145E+03  0.62917838992E+03  0.93875352605E+03  0.15294330000E+03 0.  0.
    8880022    1    1    2    0    0  0.17325243849E+03 -0.65725541145E+03 -0.48461503733E+03  0.84867218096E+03  0.15294330000E+03 0.  0.
<mgrwt>
<rscale>  0 0.69670133E+03</rscale>
<asrwt>0</asrwt>
<pdfrwt beam="1">  1        2 0.12637403E+00 0.69670133E+03</pdfrwt>
<pdfrwt beam="2">  1       -2 0.14861454E+00 0.69670133E+03</pdfrwt>
<totfact> 0.10440805E+01</totfact>
</mgrwt>
</event>
<event>
 4    1  0.5387657E-008  0.4122005E+03  0.7818608E-02  0.1039635E+00
         -2   -1    0    0    0  501 -0.00000000000E+00  0.00000000000E+00  0.15698514274E+04  0.15698514274E+04  0.25500000000E-02 0.  1.
          2   -1    0    0  501    0  0.00000000000E+00 -0.00000000000E+00 -0.24754660769E+03  0.24754660770E+03  0.25500000000E-02 0. -1.
    8880022    1    1    2    0    0 -0.21639868855E+03  0.31573601730E+03  0.13428453348E+04  0.14046860401E+04  0.15294330000E+03 0.  0.
    8880022    1    1    2    0    0  0.21639868855E+03 -0.31573601730E+03 -0.20540515115E+02  0.41271199498E+03  0.15294330000E+03 0.  0.
<mgrwt>
<rscale>  0 0.41220053E+03</rscale>
<asrwt>0</asrwt>
<pdfrwt beam="1">  1        2 0.38084093E-01 0.41220053E+03</pdfrwt>
<pdfrwt beam="2">  1       -2 0.24151560E+00 0.41220053E+03</pdfrwt>
<totfact> 0.10584262E+01</totfact>
</mgrwt>
</event>
<event>
 4    1  0.5387657E-008  0.2673774E+03  0.7818608E-02  0.1102790E+00
         -2   -1    0    0    0  501 -0.00000000000E+00  0.00000000000E+00  0.64831820151E+03  0.64831820152E+03  0.25500000000E-02 0.  1.
          2   -1    0    0  501    0  0.00000000000E+00 -0.00000000000E+00 -0.90552566303E+03  0.90552566304E+03  0.25500000000E-02 0. -1.
    8880022    1    1    2    0    0  0.10421539324E+03  0.19297191820E+03 -0.85668544958E+03  0.89744115235E+03  0.15294330000E+03 0.  0.
    8880022    1    1    2    0    0 -0.10421539324E+03 -0.19297191820E+03  0.59947798806E+03  0.65640271220E+03  0.15294330000E+03 0.  1.
<mgrwt>
<rscale>  0 0.26737738E+03</rscale>
<asrwt>0</asrwt>
<pdfrwt beam="1">  1        2 0.13931164E+00 0.26737738E+03</pdfrwt>
<pdfrwt beam="2">  1       -2 0.99741262E-01 0.26737738E+03</pdfrwt>
<totfact> 0.26446079E+01</totfact>
</mgrwt>
</event>
<event>
 4    1  0.5387657E-008  0.3857099E+03  0.7818608E-02  0.1048843E+00
         -2   -1    0    0    0  501 -0.00000000000E+00  0.00000000000E+00  0.36396829803E+03  0.36396829804E+03  0.25500000000E-02 0.  1.
          2   -1    0    0  501    0  0.00000000000E+00 -0.00000000000E+00 -0.36973856653E+04  0.36973856653E+04  0.25500000000E-02 0. -1.
    8880022    1    1    2    0    0  0.23240361068E+03  0.26714985338E+03 -0.35818522401E+04  0.36025598684E+04  0.15294330000E+03 0.  0.
    8880022    1    1    2    0    0 -0.23240361068E+03 -0.26714985338E+03  0.24843487290E+03  0.45879409489E+03  0.15294330000E+03 0.  0.
<mgrwt>
<rscale>  0 0.38570991E+03</rscale>
<asrwt>0</asrwt>
<pdfrwt beam="1">  1        2 0.56882854E+00 0.38570991E+03</pdfrwt>
<pdfrwt beam="2">  1       -2 0.55995125E-01 0.38570991E+03</pdfrwt>
<totfact> 0.21649779E+00</totfact>
</mgrwt>
</event>
<event>
 4    1  0.5387657E-008  0.7319972E+03  0.7818608E-02  0.9664025E-01
          2   -1    0    0  501    0  0.00000000000E+00  0.00000000000E+00  0.12177829091E+04  0.12177829091E+04  0.25500000000E-02 0. -1.
         -2   -1    0    0    0  501 -0.00000000000E+00 -0.00000000000E+00 -0.76546821432E+03  0.76546821433E+03  0.25500000000E-02 0.  1.
    8880022    1    1    2    0    0 -0.69753772106E+03 -0.16083950191E+03  0.87276516113E+03  0.11390956488E+04  0.15294330000E+03 0.  0.
    8880022    1    1    2    0    0  0.69753772106E+03  0.16083950191E+03 -0.42045046634E+03  0.84415547462E+03  0.15294330000E+03 0.  0.
<mgrwt>
<rscale>  0 0.73199718E+03</rscale>
<asrwt>0</asrwt>
<pdfrwt beam="1">  1        2 0.18735121E+00 0.73199718E+03</pdfrwt>
<pdfrwt beam="2">  1       -2 0.11776434E+00 0.73199718E+03</pdfrwt>
<totfact> 0.10512199E+01</totfact>
</mgrwt>
</event>
<event>
 4    1  0.5387657E-008  0.7264540E+03  0.7818608E-02  0.9673032E-01
          2   -1    0    0  501    0  0.00000000000E+00  0.00000000000E+00  0.17169737350E+04  0.17169737350E+04  0.25500000000E-02 0. -1.
         -2   -1    0    0    0  501 -0.00000000000E+00 -0.00000000000E+00 -0.68496362281E+03  0.68496362281E+03  0.25500000000E-02 0.  1.
    8880022    1    1    2    0    0  0.70710232859E+03  0.65954530106E+02 -0.37568493233E+03  0.81784749467E+03  0.15294330000E+03 0.  0.
    8880022    1    1    2    0    0 -0.70710232859E+03 -0.65954530106E+02  0.14076950445E+04  0.15840898632E+04  0.15294330000E+03 0. -1.
<mgrwt>
<rscale>  0 0.72645396E+03</rscale>
<asrwt>0</asrwt>
<pdfrwt beam="1">  1        2 0.26414980E+00 0.72645396E+03</pdfrwt>
<pdfrwt beam="2">  1       -2 0.10537902E+00 0.72645396E+03</pdfrwt>
<totfact> 0.72233735E+00</totfact>
</mgrwt>
</event>
<event>
 4    1  0.5387657E-008  0.3870468E+03  0.7818608E-02  0.1048360E+00
         -2   -1    0    0    0  501 -0.00000000000E+00  0.00000000000E+00  0.30338109611E+03  0.30338109612E+03  0.25500000000E-02 0.  1.
          2   -1    0    0  501    0  0.00000000000E+00 -0.00000000000E+00 -0.18117601505E+04  0.18117601505E+04  0.25500000000E-02 0. -1.
    8880022    1    1    2    0    0 -0.53450731327E+02  0.35150620605E+03 -0.16562019586E+04  0.17008263210E+04  0.15294330000E+03 0.  0.
    8880022    1    1    2    0    0  0.53450731327E+02 -0.35150620605E+03  0.14782290419E+03  0.41431492562E+03  0.15294330000E+03 0.  0.
<mgrwt>
<rscale>  0 0.38704683E+03</rscale>
<asrwt>0</asrwt>
<pdfrwt beam="1">  1        2 0.27873232E+00 0.38704683E+03</pdfrwt>
<pdfrwt beam="2">  1       -2 0.46674016E-01 0.38704683E+03</pdfrwt>
<totfact> 0.40375876E+01</totfact>
</mgrwt>
</event>
<event>
 4    1  0.5387657E-008  0.2844207E+03  0.7818608E-02  0.1093299E+00
         -2   -1    0    0    0  501 -0.00000000000E+00  0.00000000000E+00  0.59564570254E+02  0.59564570309E+02  0.25500000000E-02 0.  1.
          2   -1    0    0  501    0  0.00000000000E+00 -0.00000000000E+00 -0.16430271347E+04  0.16430271347E+04  0.25500000000E-02 0. -1.
    8880022    1    1    2    0    0 -0.22834976200E+03 -0.73211124070E+02 -0.11462333331E+04  0.11809936450E+04  0.15294330000E+03 0. -1.
    8880022    1    1    2    0    0  0.22834976200E+03  0.73211124070E+02 -0.43722923132E+03  0.52159806004E+03  0.15294330000E+03 0.  1.
<mgrwt>
<rscale>  0 0.28442070E+03</rscale>
<asrwt>0</asrwt>
<pdfrwt beam="1">  1        2 0.25277337E+00 0.28442070E+03</pdfrwt>
<pdfrwt beam="2">  1       -2 0.91637813E-02 0.28442070E+03</pdfrwt>
<totfact> 0.87356288E+02</totfact>
</mgrwt>
</event>
<event>
 4    1  0.5387657E-008  0.4530231E+03  0.7818608E-02  0.1026824E+00
          2   -1    0    0  501    0  0.00000000000E+00  0.00000000000E+00  0.74701282359E+03  0.74701282360E+03  0.25500000000E-02 0. -1.
         -2   -1    0    0    0  501 -0.00000000000E+00 -0.00000000000E+00 -0.40885813827E+03  0.40885813827E+03  0.25500000000E-02 0.  1.
    8880022    1    1    2    0    0  0.37617981033E+03 -0.20081589366E+03  0.50009127961E+03  0.67477493566E+03  0.15294330000E+03 0. -1.
    8880022    1    1    2    0    0 -0.37617981033E+03  0.20081589366E+03 -0.16193659428E+03  0.48109602620E+03  0.15294330000E+03 0.  1.
<mgrwt>
<rscale>  0 0.45302310E+03</rscale>
<asrwt>0</asrwt>
<pdfrwt beam="1">  1        2 0.11492505E+00 0.45302310E+03</pdfrwt>
<pdfrwt beam="2">  1       -2 0.62901253E-01 0.45302310E+03</pdfrwt>
<totfact> 0.91614823E+01</totfact>
</mgrwt>
</event>
<event>
 4    1  0.5387657E-008  0.1543111E+04  0.7818608E-02  0.8856280E-01
         -2   -1    0    0    0  501 -0.00000000000E+00  0.00000000000E+00  0.10592222068E+04  0.10592222068E+04  0.25500000000E-02 0.  1.
          2   -1    0    0  501    0  0.00000000000E+00 -0.00000000000E+00 -0.24817182765E+04  0.24817182765E+04  0.25500000000E-02 0. -1.
    8880022    1    1    2    0    0  0.15347464438E+04  0.48512242034E+02 -0.16799031802E+03  0.15522282321E+04  0.15294330000E+03 0.  0.
    8880022    1    1    2    0    0 -0.15347464438E+04 -0.48512242034E+02 -0.12545057517E+04  0.19887122513E+04  0.15294330000E+03 0.  0.
<mgrwt>
<rscale>  0 0.15431111E+04</rscale>
<asrwt>0</asrwt>
<pdfrwt beam="1">  1        2 0.38180281E+00 0.15431111E+04</pdfrwt>
<pdfrwt beam="2">  1       -2 0.16295726E+00 0.15431111E+04</pdfrwt>
<totfact> 0.80245970E-01</totfact>
</mgrwt>
</event>
<event>
 4    1  0.5387657E-008  0.4233957E+03  0.7818608E-02  0.1035967E+00
         -2   -1    0    0    0  501 -0.00000000000E+00  0.00000000000E+00  0.10571184368E+03  0.10571184371E+03  0.25500000000E-02 0.  1.
          2   -1    0    0  501    0  0.00000000000E+00 -0.00000000000E+00 -0.24378075694E+04  0.24378075694E+04  0.25500000000E-02 0. -1.
    8880022    1    1    2    0    0 -0.33973836177E+03  0.20112220368E+03 -0.18676898957E+04  0.19150795009E+04  0.15294330000E+03 0.  0.
    8880022    1    1    2    0    0  0.33973836177E+03 -0.20112220368E+03 -0.46440583002E+03  0.62843991220E+03  0.15294330000E+03 0.  0.
<mgrwt>
<rscale>  0 0.42339573E+03</rscale>
<asrwt>0</asrwt>
<pdfrwt beam="1">  1        2 0.37504728E+00 0.42339573E+03</pdfrwt>
<pdfrwt beam="2">  1       -2 0.16263362E-01 0.42339573E+03</pdfrwt>
<totfact> 0.12553309E+02</totfact>
</mgrwt>
</event>
<event>
 4    1  0.5387657E-008  0.3240300E+03  0.7818608E-02  0.1073809E+00
          2   -1    0    0  501    0  0.00000000000E+00  0.00000000000E+00  0.99991612234E+03  0.99991612234E+03  0.25500000000E-02 0. -1.
         -2   -1    0    0    0  501 -0.00000000000E+00 -0.00000000000E+00 -0.57895985237E+03  0.57895985237E+03  0.25500000000E-02 0.  1.
    8880022    1    1    2    0    0 -0.28554311961E+03  0.83026104645E+01  0.92474847907E+03  0.97987509871E+03  0.15294330000E+03 0.  0.
    8880022    1    1    2    0    0  0.28554311961E+03 -0.83026104645E+01 -0.50379220910E+03  0.59900087601E+03  0.15294330000E+03 0.  0.
<mgrwt>
<rscale>  0 0.32403003E+03</rscale>
<asrwt>0</asrwt>
<pdfrwt beam="1">  1        2 0.15383325E+00 0.32403003E+03</pdfrwt>
<pdfrwt beam="2">  1       -2 0.89070747E-01 0.32403003E+03</pdfrwt>
<totfact> 0.29482137E+01</totfact>
</mgrwt>
</event>
<event>
 4    1  0.5387657E-008  0.1680713E+03  0.7818608E-02  0.1179874E+00
          2   -1    0    0  501    0  0.00000000000E+00  0.00000000000E+00  0.68611498678E+03  0.68611498678E+03  0.25500000000E-02 0. -1.
         -2   -1    0    0    0  501 -0.00000000000E+00 -0.00000000000E+00 -0.47199841857E+03  0.47199841857E+03  0.25500000000E-02 0.  1.
    8880022    1    1    2    0    0  0.75478761082E+01 -0.69277306855E+02  0.66028423136E+03  0.68133929497E+03  0.15294330000E+03 0. -1.
    8880022    1    1    2    0    0 -0.75478761082E+01  0.69277306855E+02 -0.44616766315E+03  0.47677411038E+03  0.15294330000E+03 0.  0.
<mgrwt>
<rscale>  0 0.16807132E+03</rscale>
<asrwt>0</asrwt>
<pdfrwt beam="1">  1        2 0.10555615E+00 0.16807132E+03</pdfrwt>
<pdfrwt beam="2">  1       -2 0.72615141E-01 0.16807132E+03</pdfrwt>
<totfact> 0.78448047E+01</totfact>
</mgrwt>
</event>
<event>
 4    1  0.5387657E-008  0.3986269E+03  0.7818608E-02  0.1044256E+00
          2   -1    0    0  501    0  0.00000000000E+00  0.00000000000E+00  0.12404170115E+03  0.12404170118E+03  0.25500000000E-02 0. -1.
         -2   -1    0    0    0  501 -0.00000000000E+00 -0.00000000000E+00 -0.23095300614E+04  0.23095300614E+04  0.25500000000E-02 0.  1.
    8880022    1    1    2    0    0  0.65553565966E+02 -0.36223538447E+03 -0.28075419551E+03  0.48757185633E+03  0.15294330000E+03 0. -1.
    8880022    1    1    2    0    0 -0.65553565966E+02  0.36223538447E+03 -0.19047341647E+04  0.19459999062E+04  0.15294330000E+03 0.  1.
<mgrwt>
<rscale>  0 0.39862689E+03</rscale>
<asrwt>0</asrwt>
<pdfrwt beam="1">  1        2 0.19083340E-01 0.39862689E+03</pdfrwt>
<pdfrwt beam="2">  1       -2 0.35531228E+00 0.39862689E+03</pdfrwt>
<totfact> 0.48454010E+00</totfact>
</mgrwt>
</event>
<event>
 4    1  0.5387657E-008  0.5592984E+03  0.7818608E-02  0.9993643E-01
          2   -1    0    0  501    0  0.00000000000E+00  0.00000000000E+00  0.41398218550E+03  0.41398218551E+03  0.25500000000E-02 0. -1.
         -2   -1    0    0    0  501 -0.00000000000E+00 -0.00000000000E+00 -0.21420199989E+04  0.21420199989E+04  0.25500000000E-02 0.  1.
    8880022    1    1    2    0    0  0.19650467736E+03 -0.50080828948E+03  0.16414696656E+03  0.58288842044E+03  0.15294330000E+03 0.  0.
    8880022    1    1    2    0    0 -0.19650467736E+03  0.50080828948E+03 -0.18921847800E+04  0.19731137640E+04  0.15294330000E+03 0.  0.
<mgrwt>
<rscale>  0 0.55929839E+03</rscale>
<asrwt>0</asrwt>
<pdfrwt beam="1">  1        2 0.63689568E-01 0.55929839E+03</pdfrwt>
<pdfrwt beam="2">  1       -2 0.32954153E+00 0.55929839E+03</pdfrwt>
<totfact> 0.17367085E+00</totfact>
</mgrwt>
</event>
<event>
 4    1  0.5387657E-008  0.6474385E+03  0.7818608E-02  0.9811598E-01
          2   -1    0    0  501    0  0.00000000000E+00  0.00000000000E+00  0.14635175460E+04  0.14635175460E+04  0.25500000000E-02 0. -1.
         -2   -1    0    0    0  501 -0.00000000000E+00 -0.00000000000E+00 -0.37458152878E+03  0.37458152879E+03  0.25500000000E-02 0.  1.
    8880022    1    1    2    0    0  0.41883559136E+03 -0.46942697547E+03  0.99034206787E+03  0.11831965189E+04  0.15294330000E+03 0.  0.
    8880022    1    1    2    0    0 -0.41883559136E+03  0.46942697547E+03  0.98593949351E+02  0.65490255592E+03  0.15294330000E+03 0.  0.
<mgrwt>
<rscale>  0 0.64743848E+03</rscale>
<asrwt>0</asrwt>
<pdfrwt beam="1">  1        2 0.22515655E+00 0.64743848E+03</pdfrwt>
<pdfrwt beam="2">  1       -2 0.57627928E-01 0.64743848E+03</pdfrwt>
<totfact> 0.38830532E+01</totfact>
</mgrwt>
</event>
<event>
 4    1  0.5387657E-008  0.8890976E+03  0.7818608E-02  0.9439314E-01
          2   -1    0    0  501    0  0.00000000000E+00  0.00000000000E+00  0.26956165587E+04  0.26956165587E+04  0.25500000000E-02 0. -1.
         -2   -1    0    0    0  501 -0.00000000000E+00 -0.00000000000E+00 -0.34186491063E+03  0.34186491064E+03  0.25500000000E-02 0.  1.
    8880022    1    1    2    0    0  0.85857698688E+03 -0.17305615115E+03  0.17495833455E+04  0.19625331614E+04  0.15294330000E+03 0.  0.
    8880022    1    1    2    0    0 -0.85857698688E+03  0.17305615115E+03  0.60416830257E+03  0.10749483079E+04  0.15294330000E+03 0.  0.
<mgrwt>
<rscale>  0 0.88909759E+03</rscale>
<asrwt>0</asrwt>
<pdfrwt beam="1">  1        2 0.41471025E+00 0.88909759E+03</pdfrwt>
<pdfrwt beam="2">  1       -2 0.52594601E-01 0.88909759E+03</pdfrwt>
<totfact> 0.93984587E+00</totfact>
</mgrwt>
</event>
<event>
 4    1  0.5387657E-008  0.7248289E+03  0.7818608E-02  0.9675689E-01
          2   -1    0    0  501    0  0.00000000000E+00  0.00000000000E+00  0.91494695305E+03  0.91494695305E+03  0.25500000000E-02 0. -1.
         -2   -1    0    0    0  501 -0.00000000000E+00 -0.00000000000E+00 -0.65731947316E+03  0.65731947317E+03  0.25500000000E-02 0.  1.
    8880022    1    1    2    0    0  0.23755511061E+03 -0.66749748846E+03 -0.15070958345E+03  0.74033124967E+03  0.15294330000E+03 0.  0.
    8880022    1    1    2    0    0 -0.23755511061E+03  0.66749748846E+03  0.40833706334E+03  0.83193517655E+03  0.15294330000E+03 0.  0.
<mgrwt>
<rscale>  0 0.72482893E+03</rscale>
<asrwt>0</asrwt>
<pdfrwt beam="1">  1        2 0.14076107E+00 0.72482893E+03</pdfrwt>
<pdfrwt beam="2">  1       -2 0.10112607E+00 0.72482893E+03</pdfrwt>
<totfact> 0.23456483E+01</totfact>
</mgrwt>
</event>
<event>
 4    1  0.5387657E-008  0.8225723E+03  0.7818608E-02  0.9527907E-01
         -2   -1    0    0    0  501 -0.00000000000E+00  0.00000000000E+00  0.77965345806E+03  0.77965345807E+03  0.25500000000E-02 0.  1.
          2   -1    0    0  501    0  0.00000000000E+00 -0.00000000000E+00 -0.13446063757E+04  0.13446063757E+04  0.25500000000E-02 0. -1.
    8880022    1    1    2    0    0  0.26264579172E+03  0.76436293920E+03 -0.91492706178E+03  0.12303319455E+04  0.15294330000E+03 0.  0.
    8880022    1    1    2    0    0 -0.26264579172E+03 -0.76436293920E+03  0.34997414419E+03  0.89392788822E+03  0.15294330000E+03 0.  0.
<mgrwt>
<rscale>  0 0.82257229E+03</rscale>
<asrwt>0</asrwt>
<pdfrwt beam="1">  1        2 0.20686252E+00 0.82257229E+03</pdfrwt>
<pdfrwt beam="2">  1       -2 0.11994669E+00 0.82257229E+03</pdfrwt>
<totfact> 0.83841786E+00</totfact>
</mgrwt>
</event>
<event>
 4    1  0.5387657E-008  0.2995534E+03  0.7818608E-02  0.1085464E+00
         -2   -1    0    0    0  501 -0.00000000000E+00  0.00000000000E+00  0.59959553102E+02  0.59959553157E+02  0.25500000000E-02 0.  1.
          2   -1    0    0  501    0  0.00000000000E+00 -0.00000000000E+00 -0.23591915510E+04  0.23591915510E+04  0.25500000000E-02 0. -1.
    8880022    1    1    2    0    0 -0.24562702712E+03  0.77510857181E+02 -0.41819466972E+03  0.51441131814E+03  0.15294330000E+03 0.  0.
    8880022    1    1    2    0    0  0.24562702712E+03 -0.77510857181E+02 -0.18810373282E+04  0.19047397860E+04  0.15294330000E+03 0.  0.
<mgrwt>
<rscale>  0 0.29955337E+03</rscale>
<asrwt>0</asrwt>
<pdfrwt beam="1">  1        2 0.36295247E+00 0.29955337E+03</pdfrwt>
<pdfrwt beam="2">  1       -2 0.92245485E-02 0.29955337E+03</pdfrwt>
<totfact> 0.35950676E+02</totfact>
</mgrwt>
</event>
<event>
 4    1  0.5387657E-008  0.4252701E+03  0.7818608E-02  0.1035365E+00
         -2   -1    0    0    0  501 -0.00000000000E+00  0.00000000000E+00  0.12078938897E+04  0.12078938897E+04  0.25500000000E-02 0.  1.
          2   -1    0    0  501    0  0.00000000000E+00 -0.00000000000E+00 -0.49254983328E+03  0.49254983328E+03  0.25500000000E-02 0. -1.
    8880022    1    1    2    0    0 -0.39654898158E+03 -0.14557605328E+02  0.10669914794E+04  0.11486189484E+04  0.15294330000E+03 0.  0.
    8880022    1    1    2    0    0  0.39654898158E+03  0.14557605328E+02 -0.35164742297E+03  0.55182477451E+03  0.15294330000E+03 0.  0.
<mgrwt>
<rscale>  0 0.42527012E+03</rscale>
<asrwt>0</asrwt>
<pdfrwt beam="1">  1        2 0.75776899E-01 0.42527012E+03</pdfrwt>
<pdfrwt beam="2">  1       -2 0.18582983E+00 0.42527012E+03</pdfrwt>
<totfact> 0.11018896E+01</totfact>
</mgrwt>
</event>
<event>
 4    1  0.5387657E-008  0.3774112E+03  0.7818608E-02  0.1051895E+00
         -2   -1    0    0    0  501 -0.00000000000E+00  0.00000000000E+00  0.61397456802E+02  0.61397456855E+02  0.25500000000E-02 0.  1.
          2   -1    0    0  501    0  0.00000000000E+00 -0.00000000000E+00 -0.37217537005E+04  0.37217537005E+04  0.25500000000E-02 0. -1.
    8880022    1    1    2    0    0  0.96185049796E+02  0.33135478999E+03 -0.66928290571E+03  0.76836112704E+03  0.15294330000E+03 0.  0.
    8880022    1    1    2    0    0 -0.96185049796E+02 -0.33135478999E+03 -0.29910733380E+04  0.30147900303E+04  0.15294330000E+03 0.  0.
<mgrwt>
<rscale>  0 0.37741120E+03</rscale>
<asrwt>0</asrwt>
<pdfrwt beam="1">  1        2 0.57257732E+00 0.37741120E+03</pdfrwt>
<pdfrwt beam="2">  1       -2 0.94457655E-02 0.37741120E+03</pdfrwt>
<totfact> 0.50046168E+01</totfact>
</mgrwt>
</event>
<event>
 4    1  0.5387657E-008  0.9004919E+03  0.7818608E-02  0.9424967E-01
         -2   -1    0    0    0  501 -0.00000000000E+00  0.00000000000E+00  0.41148678431E+03  0.41148678431E+03  0.25500000000E-02 0.  1.
          2   -1    0    0  501    0  0.00000000000E+00 -0.00000000000E+00 -0.21697871942E+04  0.21697871942E+04  0.25500000000E-02 0. -1.
    8880022    1    1    2    0    0 -0.67536496905E+03  0.57565285088E+03 -0.12701712819E+04  0.15569909391E+04  0.15294330000E+03 0.  0.
    8880022    1    1    2    0    0  0.67536496905E+03 -0.57565285088E+03 -0.48812912797E+03  0.10242830394E+04  0.15294330000E+03 0.  0.
<mgrwt>
<rscale>  0 0.90049192E+03</rscale>
<asrwt>0</asrwt>
<pdfrwt beam="1">  1        2 0.33381341E+00 0.90049192E+03</pdfrwt>
<pdfrwt beam="2">  1       -2 0.63305660E-01 0.90049192E+03</pdfrwt>
<totfact> 0.12627859E+01</totfact>
</mgrwt>
</event>
<event>
 4    1  0.5387657E-008  0.9893433E+03  0.7818608E-02  0.9320311E-01
          2   -1    0    0  501    0  0.00000000000E+00  0.00000000000E+00  0.13577401660E+04  0.13577401660E+04  0.25500000000E-02 0. -1.
         -2   -1    0    0    0  501 -0.00000000000E+00 -0.00000000000E+00 -0.81606583322E+03  0.81606583322E+03  0.25500000000E-02 0.  1.
    8880022    1    1    2    0    0  0.93566596946E+03 -0.28273242857E+03  0.64199615092E+03  0.11793893095E+04  0.15294330000E+03 0.  0.
    8880022    1    1    2    0    0 -0.93566596946E+03  0.28273242857E+03 -0.10032181814E+03  0.99441668971E+03  0.15294330000E+03 0.  0.
<mgrwt>
<rscale>  0 0.98934326E+03</rscale>
<asrwt>0</asrwt>
<pdfrwt beam="1">  1        2 0.20888310E+00 0.98934326E+03</pdfrwt>
<pdfrwt beam="2">  1       -2 0.12554859E+00 0.98934326E+03</pdfrwt>
<totfact> 0.72137610E+00</totfact>
</mgrwt>
</event>
<event>
 4    1  0.5387657E-008  0.5838658E+03  0.7818608E-02  0.9939457E-01
          2   -1    0    0  501    0  0.00000000000E+00  0.00000000000E+00  0.14465091192E+04  0.14465091192E+04  0.25500000000E-02 0. -1.
         -2   -1    0    0    0  501 -0.00000000000E+00 -0.00000000000E+00 -0.29519028777E+03  0.29519028778E+03  0.25500000000E-02 0.  1.
    8880022    1    1    2    0    0  0.29157677193E+03 -0.48217276087E+03  0.18461724746E+03  0.61235836430E+03  0.15294330000E+03 0.  0.
    8880022    1    1    2    0    0 -0.29157677193E+03  0.48217276087E+03  0.96670158401E+03  0.11293410427E+04  0.15294330000E+03 0.  1.
<mgrwt>
<rscale>  0 0.58386577E+03</rscale>
<asrwt>0</asrwt>
<pdfrwt beam="1">  1        2 0.22253986E+00 0.58386577E+03</pdfrwt>
<pdfrwt beam="2">  1       -2 0.45413892E-01 0.58386577E+03</pdfrwt>
<totfact> 0.65022788E+01</totfact>
</mgrwt>
</event>
<event>
 4    1  0.5387657E-008  0.7968310E+03  0.7818608E-02  0.9564615E-01
          2   -1    0    0  501    0  0.00000000000E+00  0.00000000000E+00  0.22136755334E+04  0.22136755334E+04  0.25500000000E-02 0. -1.
         -2   -1    0    0    0  501 -0.00000000000E+00 -0.00000000000E+00 -0.38127281172E+03  0.38127281173E+03  0.25500000000E-02 0.  1.
    8880022    1    1    2    0    0  0.78194137336E+03 -0.10756978622E+02  0.27043640031E+03  0.84147223578E+03  0.15294330000E+03 0.  0.
    8880022    1    1    2    0    0 -0.78194137336E+03  0.10756978622E+02  0.15619663214E+04  0.17534761094E+04  0.15294330000E+03 0.  0.
<mgrwt>
<rscale>  0 0.79683102E+03</rscale>
<asrwt>0</asrwt>
<pdfrwt beam="1">  1        2 0.34056546E+00 0.79683102E+03</pdfrwt>
<pdfrwt beam="2">  1       -2 0.58657356E-01 0.79683102E+03</pdfrwt>
<totfact> 0.14235376E+01</totfact>
</mgrwt>
</event>
<event>
 4    1  0.5387657E-008  0.1820050E+03  0.7818608E-02  0.1165877E+00
         -2   -1    0    0    0  501 -0.00000000000E+00  0.00000000000E+00  0.63765390979E+02  0.63765391030E+02  0.25500000000E-02 0.  1.
          2   -1    0    0  501    0  0.00000000000E+00 -0.00000000000E+00 -0.19903401068E+04  0.19903401068E+04  0.25500000000E-02 0. -1.
    8880022    1    1    2    0    0  0.73964947179E+01 -0.98384264675E+02 -0.80385320265E+02  0.19896639012E+03  0.15294330000E+03 0.  0.
    8880022    1    1    2    0    0 -0.73964947179E+01  0.98384264675E+02 -0.18461893956E+04  0.18551391078E+04  0.15294330000E+03 0. -1.
<mgrwt>
<rscale>  0 0.18200501E+03</rscale>
<asrwt>0</asrwt>
<pdfrwt beam="1">  1        2 0.30620612E+00 0.18200501E+03</pdfrwt>
<pdfrwt beam="2">  1       -2 0.98100617E-02 0.18200501E+03</pdfrwt>
<totfact> 0.52476095E+02</totfact>
</mgrwt>
</event>
<event>
 4    1  0.5387657E-008  0.1392184E+04  0.7818608E-02  0.8959495E-01
         -2   -1    0    0    0  501 -0.00000000000E+00  0.00000000000E+00  0.83690295658E+03  0.83690295659E+03  0.25500000000E-02 0.  1.
          2   -1    0    0  501    0  0.00000000000E+00 -0.00000000000E+00 -0.25301784619E+04  0.25301784619E+04  0.25500000000E-02 0. -1.
    8880022    1    1    2    0    0 -0.35341865014E+03 -0.13378642037E+04 -0.13365803694E+04  0.19299285238E+04  0.15294330000E+03 0.  0.
    8880022    1    1    2    0    0  0.35341865014E+03  0.13378642037E+04 -0.35669513583E+03  0.14371528947E+04  0.15294330000E+03 0.  0.
<mgrwt>
<rscale>  0 0.13921843E+04</rscale>
<asrwt>0</asrwt>
<pdfrwt beam="1">  1        2 0.38925822E+00 0.13921843E+04</pdfrwt>
<pdfrwt beam="2">  1       -2 0.12875430E+00 0.13921843E+04</pdfrwt>
<totfact> 0.14265579E+00</totfact>
</mgrwt>
</event>
<event>
 4    1  0.5387657E-008  0.8200609E+03  0.7818608E-02  0.9531425E-01
         -2   -1    0    0    0  501 -0.00000000000E+00  0.00000000000E+00  0.24326318903E+03  0.24326318904E+03  0.25500000000E-02 0.  1.
          2   -1    0    0  501    0  0.00000000000E+00 -0.00000000000E+00 -0.32166317287E+04  0.32166317287E+04  0.25500000000E-02 0. -1.
    8880022    1    1    2    0    0  0.62342432126E+03 -0.51034340424E+03 -0.83809908804E+03  0.11725655670E+04  0.15294330000E+03 0.  0.
    8880022    1    1    2    0    0 -0.62342432126E+03  0.51034340424E+03 -0.21352694517E+04  0.22873293508E+04  0.15294330000E+03 0.  0.
<mgrwt>
<rscale>  0 0.82006093E+03</rscale>
<asrwt>0</asrwt>
<pdfrwt beam="1">  1        2 0.49486639E+00 0.82006093E+03</pdfrwt>
<pdfrwt beam="2">  1       -2 0.37425108E-01 0.82006093E+03</pdfrwt>
<totfact> 0.90030001E+00</totfact>
</mgrwt>
</event>
<event>
 4    1  0.5387657E-008  0.3670868E+03  0.7818608E-02  0.1055812E+00
          2   -1    0    0  501    0  0.00000000000E+00  0.00000000000E+00  0.12167173670E+04  0.12167173670E+04  0.25500000000E-02 0. -1.
         -2   -1    0    0    0  501 -0.00000000000E+00 -0.00000000000E+00 -0.66037682064E+03  0.66037682064E+03  0.25500000000E-02 0.  1.
    8880022    1    1    2    0    0 -0.21403207670E+03  0.25602996727E+03  0.11344067042E+04  0.11923218095E+04  0.15294330000E+03 0.  0.
    8880022    1    1    2    0    0  0.21403207670E+03 -0.25602996727E+03 -0.57806615781E+03  0.68477237811E+03  0.15294330000E+03 0.  1.
<mgrwt>
<rscale>  0 0.36708681E+03</rscale>
<asrwt>0</asrwt>
<pdfrwt beam="1">  1        2 0.18718729E+00 0.36708681E+03</pdfrwt>
<pdfrwt beam="2">  1       -2 0.10159643E+00 0.36708681E+03</pdfrwt>
<totfact> 0.16003021E+01</totfact>
</mgrwt>
</event>
<event>
 4    1  0.5387657E-008  0.6966366E+03  0.7818608E-02  0.9723001E-01
          2   -1    0    0  501    0  0.00000000000E+00  0.00000000000E+00  0.15781611657E+04  0.15781611657E+04  0.25500000000E-02 0. -1.
         -2   -1    0    0    0  501 -0.00000000000E+00 -0.00000000000E+00 -0.97078278009E+03  0.97078278009E+03  0.25500000000E-02 0.  1.
    8880022    1    1    2    0    0  0.32961508706E+03 -0.59436082922E+03  0.13571415162E+04  0.15254952143E+04  0.15294330000E+03 0.  0.
    8880022    1    1    2    0    0 -0.32961508706E+03  0.59436082922E+03 -0.74976313059E+03  0.10234487315E+04  0.15294330000E+03 0.  0.
<mgrwt>
<rscale>  0 0.69663660E+03</rscale>
<asrwt>0</asrwt>
<pdfrwt beam="1">  1        2 0.24279402E+00 0.69663660E+03</pdfrwt>
<pdfrwt beam="2">  1       -2 0.14935120E+00 0.69663660E+03</pdfrwt>
<totfact> 0.36063740E+00</totfact>
</mgrwt>
</event>
<event>
 4    1  0.5387657E-008  0.3421017E+03  0.7818608E-02  0.1065904E+00
          2   -1    0    0  501    0  0.00000000000E+00  0.00000000000E+00  0.14280802627E+04  0.14280802627E+04  0.25500000000E-02 0. -1.
         -2   -1    0    0    0  501 -0.00000000000E+00 -0.00000000000E+00 -0.34870165996E+03  0.34870165997E+03  0.25500000000E-02 0.  1.
    8880022    1    1    2    0    0  0.24398669083E+03 -0.18469538585E+03 -0.23732558694E+03  0.41636159535E+03  0.15294330000E+03 0.  0.
    8880022    1    1    2    0    0 -0.24398669083E+03  0.18469538585E+03  0.13167041897E+04  0.13604203274E+04  0.15294330000E+03 0.  0.
<mgrwt>
<rscale>  0 0.34210166E+03</rscale>
<asrwt>0</asrwt>
<pdfrwt beam="1">  1        2 0.21970465E+00 0.34210166E+03</pdfrwt>
<pdfrwt beam="2">  1       -2 0.53646411E-01 0.34210166E+03</pdfrwt>
<totfact> 0.49559333E+01</totfact>
</mgrwt>
</event>
<event>
 4    1  0.5387657E-008  0.3293812E+03  0.7818608E-02  0.1071411E+00
         -2   -1    0    0    0  501 -0.00000000000E+00  0.00000000000E+00  0.80607929709E+03  0.80607929709E+03  0.25500000000E-02 0.  1.
          2   -1    0    0  501    0  0.00000000000E+00 -0.00000000000E+00 -0.48841139098E+03  0.48841139099E+03  0.25500000000E-02 0. -1.
    8880022    1    1    2    0    0 -0.34839061747E+02 -0.28963178155E+03 -0.39205839295E+03  0.51205640861E+03  0.15294330000E+03 0.  0.
    8880022    1    1    2    0    0  0.34839061747E+02  0.28963178155E+03  0.70972629905E+03  0.78243427947E+03  0.15294330000E+03 0.  0.
<mgrwt>
<rscale>  0 0.32938121E+03</rscale>
<asrwt>0</asrwt>
<pdfrwt beam="1">  1        2 0.75140214E-01 0.32938121E+03</pdfrwt>
<pdfrwt beam="2">  1       -2 0.12401220E+00 0.32938121E+03</pdfrwt>
<totfact> 0.32816324E+01</totfact>
</mgrwt>
</event>
<event>
 4    1  0.5387657E-008  0.3307716E+03  0.7818608E-02  0.1070796E+00
          2   -1    0    0  501    0  0.00000000000E+00  0.00000000000E+00  0.15556354678E+04  0.15556354678E+04  0.25500000000E-02 0. -1.
         -2   -1    0    0    0  501 -0.00000000000E+00 -0.00000000000E+00 -0.14728729205E+03  0.14728729207E+03  0.25500000000E-02 0.  1.
    8880022    1    1    2    0    0  0.15556026578E+03 -0.24863466706E+03  0.88708793549E+02  0.34246035832E+03  0.15294330000E+03 0.  0.
    8880022    1    1    2    0    0 -0.15556026578E+03  0.24863466706E+03  0.13196393822E+04  0.13604624015E+04  0.15294330000E+03 0.  0.
<mgrwt>
<rscale>  0 0.33077159E+03</rscale>
<asrwt>0</asrwt>
<pdfrwt beam="1">  1        2 0.23932854E+00 0.33077159E+03</pdfrwt>
<pdfrwt beam="2">  1       -2 0.22659583E-01 0.33077159E+03</pdfrwt>
<totfact> 0.21486239E+02</totfact>
</mgrwt>
</event>
<event>
 4    1  0.5387657E-008  0.4571600E+03  0.7818608E-02  0.1025608E+00
         -2   -1    0    0    0  501 -0.00000000000E+00  0.00000000000E+00  0.29215388536E+03  0.29215388537E+03  0.25500000000E-02 0.  1.
          2   -1    0    0  501    0  0.00000000000E+00 -0.00000000000E+00 -0.89039228991E+03  0.89039228991E+03  0.25500000000E-02 0. -1.
    8880022    1    1    2    0    0 -0.43072611492E+03  0.88666107012E+01 -0.36965327394E+02  0.45865203729E+03  0.15294330000E+03 0.  0.
    8880022    1    1    2    0    0  0.43072611492E+03 -0.88666107012E+01 -0.56127307716E+03  0.72389413799E+03  0.15294330000E+03 0.  0.
<mgrwt>
<rscale>  0 0.45715999E+03</rscale>
<asrwt>0</asrwt>
<pdfrwt beam="1">  1        2 0.13698343E+00 0.45715999E+03</pdfrwt>
<pdfrwt beam="2">  1       -2 0.44946752E-01 0.45715999E+03</pdfrwt>
<totfact> 0.14459747E+02</totfact>
</mgrwt>
</event>
<event>
 4    1  0.5387657E-008  0.1042053E+04  0.7818608E-02  0.9263587E-01
          2   -1    0    0  501    0  0.00000000000E+00  0.00000000000E+00  0.20268887046E+04  0.20268887046E+04  0.25500000000E-02 0. -1.
         -2   -1    0    0    0  501 -0.00000000000E+00 -0.00000000000E+00 -0.10830570207E+04  0.10830570207E+04  0.25500000000E-02 0.  1.
    8880022    1    1    2    0    0 -0.46901896038E+03 -0.91788058290E+03 -0.63348201287E+03  0.12194977094E+04  0.15294330000E+03 0.  0.
    8880022    1    1    2    0    0  0.46901896038E+03  0.91788058290E+03  0.15773136967E+04  0.18904480158E+04  0.15294330000E+03 0.  0.
<mgrwt>
<rscale>  0 0.10420534E+04</rscale>
<asrwt>0</asrwt>
<pdfrwt beam="1">  1        2 0.31182903E+00 0.10420534E+04</pdfrwt>
<pdfrwt beam="2">  1       -2 0.16662416E+00 0.10420534E+04</pdfrwt>
<totfact> 0.14429473E+00</totfact>
</mgrwt>
</event>
<event>
 4    1  0.5387657E-008  0.8180080E+03  0.7818608E-02  0.9534311E-01
          2   -1    0    0  501    0  0.00000000000E+00  0.00000000000E+00  0.29351855811E+04  0.29351855811E+04  0.25500000000E-02 0. -1.
         -2   -1    0    0    0  501 -0.00000000000E+00 -0.00000000000E+00 -0.27649028677E+03  0.27649028678E+03  0.25500000000E-02 0.  1.
    8880022    1    1    2    0    0 -0.13933806746E+03  0.79141032100E+03  0.65665109794E+03  0.10489650665E+04  0.15294330000E+03 0.  0.
    8880022    1    1    2    0    0  0.13933806746E+03 -0.79141032100E+03  0.20020441964E+04  0.21627108014E+04  0.15294330000E+03 0.  0.
<mgrwt>
<rscale>  0 0.81800797E+03</rscale>
<asrwt>0</asrwt>
<pdfrwt beam="1">  1        2 0.45156704E+00 0.81800797E+03</pdfrwt>
<pdfrwt beam="2">  1       -2 0.42536964E-01 0.81800797E+03</pdfrwt>
<totfact> 0.10500585E+01</totfact>
</mgrwt>
</event>
<event>
 4    1  0.5387657E-008  0.4860285E+03  0.7818608E-02  0.1017491E+00
          2   -1    0    0  501    0  0.00000000000E+00  0.00000000000E+00  0.51326691204E+03  0.51326691205E+03  0.25500000000E-02 0. -1.
         -2   -1    0    0    0  501 -0.00000000000E+00 -0.00000000000E+00 -0.16037562255E+04  0.16037562255E+04  0.25500000000E-02 0.  1.
    8880022    1    1    2    0    0  0.32912119313E+03  0.32328203499E+03  0.34857199077E+03  0.59810209804E+03  0.15294330000E+03 0.  0.
    8880022    1    1    2    0    0 -0.32912119313E+03 -0.32328203499E+03 -0.14390613042E+04  0.15189210395E+04  0.15294330000E+03 0.  0.
<mgrwt>
<rscale>  0 0.48602848E+03</rscale>
<asrwt>0</asrwt>
<pdfrwt beam="1">  1        2 0.78964141E-01 0.48602848E+03</pdfrwt>
<pdfrwt beam="2">  1       -2 0.24673172E+00 0.48602848E+03</pdfrwt>
<totfact> 0.43195352E+00</totfact>
</mgrwt>
</event>
<event>
 4    1  0.5387657E-008  0.4562734E+03  0.7818608E-02  0.1025868E+00
          2   -1    0    0  501    0  0.00000000000E+00  0.00000000000E+00  0.11741801248E+04  0.11741801248E+04  0.25500000000E-02 0. -1.
         -2   -1    0    0    0  501 -0.00000000000E+00 -0.00000000000E+00 -0.43594694284E+03  0.43594694285E+03  0.25500000000E-02 0.  1.
    8880022    1    1    2    0    0 -0.28377906369E+03  0.32289813285E+03  0.98922078395E+03  0.10893774248E+04  0.15294330000E+03 0.  0.
    8880022    1    1    2    0    0  0.28377906369E+03 -0.32289813285E+03 -0.25098760200E+03  0.52074964288E+03  0.15294330000E+03 0.  0.
<mgrwt>
<rscale>  0 0.45627340E+03</rscale>
<asrwt>0</asrwt>
<pdfrwt beam="1">  1        2 0.18064309E+00 0.45627340E+03</pdfrwt>
<pdfrwt beam="2">  1       -2 0.67068762E-01 0.45627340E+03</pdfrwt>
<totfact> 0.42273524E+01</totfact>
</mgrwt>
</event>
<event>
 4    1  0.5387657E-008  0.3256312E+03  0.7818608E-02  0.1073086E+00
         -2   -1    0    0    0  501 -0.00000000000E+00  0.00000000000E+00  0.48966904050E+03  0.48966904050E+03  0.25500000000E-02 0.  1.
          2   -1    0    0  501    0  0.00000000000E+00 -0.00000000000E+00 -0.88545280254E+03  0.88545280254E+03  0.25500000000E-02 0. -1.
    8880022    1    1    2    0    0 -0.12235541449E+03  0.26014062809E+03  0.39970927944E+03  0.51556100989E+03  0.15294330000E+03 0.  0.
    8880022    1    1    2    0    0  0.12235541449E+03 -0.26014062809E+03 -0.79549304148E+03  0.85956083315E+03  0.15294330000E+03 0.  0.
<mgrwt>
<rscale>  0 0.32563115E+03</rscale>
<asrwt>0</asrwt>
<pdfrwt beam="1">  1        2 0.13622351E+00 0.32563115E+03</pdfrwt>
<pdfrwt beam="2">  1       -2 0.75333699E-01 0.32563115E+03</pdfrwt>
<totfact> 0.50672921E+01</totfact>
</mgrwt>
</event>
<event>
 4    1  0.5387657E-008  0.4668698E+03  0.7818608E-02  0.1022807E+00
          2   -1    0    0  501    0  0.00000000000E+00  0.00000000000E+00  0.93090624719E+03  0.93090624719E+03  0.25500000000E-02 0. -1.
         -2   -1    0    0    0  501 -0.00000000000E+00 -0.00000000000E+00 -0.79751549023E+03  0.79751549023E+03  0.25500000000E-02 0.  1.
    8880022    1    1    2    0    0  0.13692351027E+03  0.41931815315E+03  0.79304724017E+03  0.92026699353E+03  0.15294330000E+03 0.  0.
    8880022    1    1    2    0    0 -0.13692351027E+03 -0.41931815315E+03 -0.65965648321E+03  0.80815474389E+03  0.15294330000E+03 0.  0.
<mgrwt>
<rscale>  0 0.46686980E+03</rscale>
<asrwt>0</asrwt>
<pdfrwt beam="1">  1        2 0.14321635E+00 0.46686980E+03</pdfrwt>
<pdfrwt beam="2">  1       -2 0.12269469E+00 0.46686980E+03</pdfrwt>
<totfact> 0.14837677E+01</totfact>
</mgrwt>
</event>
<event>
 4    1  0.5387657E-008  0.4804982E+03  0.7818608E-02  0.1018998E+00
          2   -1    0    0  501    0  0.00000000000E+00  0.00000000000E+00  0.31026148193E+04  0.31026148193E+04  0.25500000000E-02 0. -1.
         -2   -1    0    0    0  501 -0.00000000000E+00 -0.00000000000E+00 -0.79652448787E+03  0.79652448787E+03  0.25500000000E-02 0.  1.
    8880022    1    1    2    0    0 -0.21132819119E+02 -0.45501677081E+03  0.30093143923E+04  0.30474336124E+04  0.15294330000E+03 0. -1.
    8880022    1    1    2    0    0  0.21132819119E+02  0.45501677081E+03 -0.70322406081E+03  0.85170569476E+03  0.15294330000E+03 0.  0.
<mgrwt>
<rscale>  0 0.48049819E+03</rscale>
<asrwt>0</asrwt>
<pdfrwt beam="1">  1        2 0.47732535E+00 0.48049819E+03</pdfrwt>
<pdfrwt beam="2">  1       -2 0.12254223E+00 0.48049819E+03</pdfrwt>
<totfact> 0.87646952E-01</totfact>
</mgrwt>
</event>
<event>
 4    1  0.5387657E-008  0.4899716E+03  0.7818608E-02  0.1016430E+00
         -2   -1    0    0    0  501 -0.00000000000E+00  0.00000000000E+00  0.22646369108E+04  0.22646369108E+04  0.25500000000E-02 0.  1.
          2   -1    0    0  501    0  0.00000000000E+00 -0.00000000000E+00 -0.12878244703E+04  0.12878244703E+04  0.25500000000E-02 0. -1.
    8880022    1    1    2    0    0 -0.30391665757E+03 -0.35258363530E+03  0.21899606390E+04  0.22441033417E+04  0.15294330000E+03 0.  0.
    8880022    1    1    2    0    0  0.30391665757E+03  0.35258363530E+03 -0.12131481985E+04  0.13083580394E+04  0.15294330000E+03 0.  0.
<mgrwt>
<rscale>  0 0.48997164E+03</rscale>
<asrwt>0</asrwt>
<pdfrwt beam="1">  1        2 0.19812684E+00 0.48997164E+03</pdfrwt>
<pdfrwt beam="2">  1       -2 0.34840567E+00 0.48997164E+03</pdfrwt>
<totfact> 0.30677534E-01</totfact>
</mgrwt>
</event>
<event>
 4    1  0.5387657E-008  0.5635400E+03  0.7818608E-02  0.9984076E-01
         -2   -1    0    0    0  501 -0.00000000000E+00  0.00000000000E+00  0.28280675099E+03  0.28280675100E+03  0.25500000000E-02 0.  1.
          2   -1    0    0  501    0  0.00000000000E+00 -0.00000000000E+00 -0.21941311444E+04  0.21941311444E+04  0.25500000000E-02 0. -1.
    8880022    1    1    2    0    0 -0.71237812724E+02  0.53769029072E+03 -0.18209999637E+04  0.19062051819E+04  0.15294330000E+03 0.  0.
    8880022    1    1    2    0    0  0.71237812724E+02 -0.53769029072E+03 -0.90324429775E+02  0.57073271356E+03  0.15294330000E+03 0.  0.
<mgrwt>
<rscale>  0 0.56354000E+03</rscale>
<asrwt>0</asrwt>
<pdfrwt beam="1">  1        2 0.33755863E+00 0.56354000E+03</pdfrwt>
<pdfrwt beam="2">  1       -2 0.43508732E-01 0.56354000E+03</pdfrwt>
<totfact> 0.27847394E+01</totfact>
</mgrwt>
</event>
<event>
 4    1  0.5387657E-008  0.5120851E+03  0.7818608E-02  0.1010672E+00
          2   -1    0    0  501    0  0.00000000000E+00  0.00000000000E+00  0.13024694798E+04  0.13024694798E+04  0.25500000000E-02 0. -1.
         -2   -1    0    0    0  501 -0.00000000000E+00 -0.00000000000E+00 -0.32083761438E+03  0.32083761439E+03  0.25500000000E-02 0.  1.
    8880022    1    1    2    0    0  0.33409136798E+02  0.48756882914E+03 -0.45416965911E+01  0.51210527588E+03  0.15294330000E+03 0.  1.
    8880022    1    1    2    0    0 -0.33409136798E+02 -0.48756882914E+03  0.98617356197E+03  0.11112018183E+04  0.15294330000E+03 0.  0.
<mgrwt>
<rscale>  0 0.51208514E+03</rscale>
<asrwt>0</asrwt>
<pdfrwt beam="1">  1        2 0.20037992E+00 0.51208514E+03</pdfrwt>
<pdfrwt beam="2">  1       -2 0.49359634E-01 0.51208514E+03</pdfrwt>
<totfact> 0.66922510E+01</totfact>
</mgrwt>
</event>
<event>
 4    1  0.5387657E-008  0.3160910E+03  0.7818608E-02  0.1077463E+00
         -2   -1    0    0    0  501 -0.00000000000E+00  0.00000000000E+00  0.25051520863E+03  0.25051520864E+03  0.25500000000E-02 0.  1.
          2   -1    0    0  501    0  0.00000000000E+00 -0.00000000000E+00 -0.88899277632E+03  0.88899277633E+03  0.25500000000E-02 0. -1.
    8880022    1    1    2    0    0 -0.20191693746E+03  0.18908047444E+03 -0.74230413276E+03  0.80680168194E+03  0.15294330000E+03 0.  0.
    8880022    1    1    2    0    0  0.20191693746E+03 -0.18908047444E+03  0.10382656506E+03  0.33270630303E+03  0.15294330000E+03 0.  0.
<mgrwt>
<rscale>  0 0.31609101E+03</rscale>
<asrwt>0</asrwt>
<pdfrwt beam="1">  1        2 0.13676812E+00 0.31609101E+03</pdfrwt>
<pdfrwt beam="2">  1       -2 0.38540802E-01 0.31609101E+03</pdfrwt>
<totfact> 0.19844324E+02</totfact>
</mgrwt>
</event>
<event>
 4    1  0.5387657E-008  0.6211107E+03  0.7818608E-02  0.9862551E-01
         -2   -1    0    0    0  501 -0.00000000000E+00  0.00000000000E+00  0.52849870400E+03  0.52849870401E+03  0.25500000000E-02 0.  1.
          2   -1    0    0  501    0  0.00000000000E+00 -0.00000000000E+00 -0.91357375284E+03  0.91357375285E+03  0.25500000000E-02 0. -1.
    8880022    1    1    2    0    0  0.36548208825E+03  0.47834060048E+03  0.13071927659E+03  0.63471731439E+03  0.15294330000E+03 0.  0.
    8880022    1    1    2    0    0 -0.36548208825E+03 -0.47834060048E+03 -0.51579432543E+03  0.80735514246E+03  0.15294330000E+03 0.  0.
<mgrwt>
<rscale>  0 0.62111073E+03</rscale>
<asrwt>0</asrwt>
<pdfrwt beam="1">  1        2 0.14054981E+00 0.62111073E+03</pdfrwt>
<pdfrwt beam="2">  1       -2 0.81307493E-01 0.62111073E+03</pdfrwt>
<totfact> 0.39320805E+01</totfact>
</mgrwt>
</event>
<event>
 4    1  0.5387657E-008  0.8988306E+03  0.7818608E-02  0.9427044E-01
          2   -1    0    0  501    0  0.00000000000E+00  0.00000000000E+00  0.46875397483E+03  0.46875397483E+03  0.25500000000E-02 0. -1.
         -2   -1    0    0    0  501 -0.00000000000E+00 -0.00000000000E+00 -0.26706074426E+04  0.26706074426E+04  0.25500000000E-02 0.  1.
    8880022    1    1    2    0    0 -0.86121395625E+03 -0.20691880772E+03 -0.20357002151E+04  0.22253026514E+04  0.15294330000E+03 0.  0.
    8880022    1    1    2    0    0  0.86121395625E+03  0.20691880772E+03 -0.16615325267E+03  0.91405876606E+03  0.15294330000E+03 0.  0.
<mgrwt>
<rscale>  0 0.89883064E+03</rscale>
<asrwt>0</asrwt>
<pdfrwt beam="1">  1        2 0.72115998E-01 0.89883064E+03</pdfrwt>
<pdfrwt beam="2">  1       -2 0.41086268E+00 0.89883064E+03</pdfrwt>
<totfact> 0.43351603E-01</totfact>
</mgrwt>
</event>
<event>
 4    1  0.5387657E-008  0.1005383E+04  0.7818608E-02  0.9302661E-01
          2   -1    0    0  501    0  0.00000000000E+00  0.00000000000E+00  0.10429560645E+04  0.10429560645E+04  0.25500000000E-02 0. -1.
         -2   -1    0    0    0  501 -0.00000000000E+00 -0.00000000000E+00 -0.24847027343E+04  0.24847027343E+04  0.25500000000E-02 0.  1.
    8880022    1    1    2    0    0  0.37011014497E+03  0.92218283607E+03 -0.20984095708E+04  0.23268255376E+04  0.15294330000E+03 0.  0.
    8880022    1    1    2    0    0 -0.37011014497E+03 -0.92218283607E+03  0.65666290107E+03  0.12008332612E+04  0.15294330000E+03 0.  0.
<mgrwt>
<rscale>  0 0.10053827E+04</rscale>
<asrwt>0</asrwt>
<pdfrwt beam="1">  1        2 0.16045478E+00 0.10053827E+04</pdfrwt>
<pdfrwt beam="2">  1       -2 0.38226196E+00 0.10053827E+04</pdfrwt>
<totfact> 0.23224152E-01</totfact>
</mgrwt>
</event>
<event>
 4    1  0.5387657E-008  0.4781357E+03  0.7818608E-02  0.1019649E+00
          2   -1    0    0  501    0  0.00000000000E+00  0.00000000000E+00  0.51005671331E+04  0.51005671331E+04  0.25500000000E-02 0. -1.
         -2   -1    0    0    0  501 -0.00000000000E+00 -0.00000000000E+00 -0.66303103810E+02  0.66303103859E+02  0.25500000000E-02 0.  1.
    8880022    1    1    2    0    0  0.15360172161E+03  0.42617912107E+03  0.10466269431E+04  0.11506701278E+04  0.15294330000E+03 0.  1.
    8880022    1    1    2    0    0 -0.15360172161E+03 -0.42617912107E+03  0.39876370862E+04  0.40162001091E+04  0.15294330000E+03 0.  0.
<mgrwt>
<rscale>  0 0.47813574E+03</rscale>
<asrwt>0</asrwt>
<pdfrwt beam="1">  1        2 0.78470276E+00 0.47813574E+03</pdfrwt>
<pdfrwt beam="2">  1       -2 0.10200476E-01 0.47813574E+03</pdfrwt>
<totfact> 0.21798802E+00</totfact>
</mgrwt>
</event>
<event>
 4    1  0.5387657E-008  0.1964156E+03  0.7818608E-02  0.1152799E+00
         -2   -1    0    0    0  501 -0.00000000000E+00  0.00000000000E+00  0.16100406342E+03  0.16100406344E+03  0.25500000000E-02 0.  1.
          2   -1    0    0  501    0  0.00000000000E+00 -0.00000000000E+00 -0.89793609533E+03  0.89793609533E+03  0.25500000000E-02 0. -1.
    8880022    1    1    2    0    0  0.63891931042E+02  0.10538155338E+03 -0.82181991836E+03  0.84496572823E+03  0.15294330000E+03 0.  0.
    8880022    1    1    2    0    0 -0.63891931042E+02 -0.10538155338E+03  0.84887886449E+02  0.21397443054E+03  0.15294330000E+03 0.  1.
<mgrwt>
<rscale>  0 0.19641564E+03</rscale>
<asrwt>0</asrwt>
<pdfrwt beam="1">  1        2 0.13814401E+00 0.19641564E+03</pdfrwt>
<pdfrwt beam="2">  1       -2 0.24769856E-01 0.19641564E+03</pdfrwt>
<totfact> 0.44620792E+02</totfact>
</mgrwt>
</event>
<event>
 4    1  0.5387657E-008  0.6472194E+03  0.7818608E-02  0.9812011E-01
          2   -1    0    0  501    0  0.00000000000E+00  0.00000000000E+00  0.27327003592E+04  0.27327003592E+04  0.25500000000E-02 0. -1.
         -2   -1    0    0    0  501 -0.00000000000E+00 -0.00000000000E+00 -0.37507904678E+03  0.37507904679E+03  0.25500000000E-02 0.  1.
    8880022    1    1    2    0    0  0.27341192509E+03 -0.56634551082E+03  0.23737057820E+04  0.24603601588E+04  0.15294330000E+03 0.  0.
    8880022    1    1    2    0    0 -0.27341192509E+03  0.56634551082E+03 -0.16084469646E+02  0.64741924715E+03  0.15294330000E+03 0.  0.
<mgrwt>
<rscale>  0 0.64721942E+03</rscale>
<asrwt>0</asrwt>
<pdfrwt beam="1">  1        2 0.42041544E+00 0.64721942E+03</pdfrwt>
<pdfrwt beam="2">  1       -2 0.57704469E-01 0.64721942E+03</pdfrwt>
<totfact> 0.76907693E+00</totfact>
</mgrwt>
</event>
<event>
 4    1  0.5387657E-008  0.3548000E+03  0.7818608E-02  0.1060662E+00
          2   -1    0    0  501    0  0.00000000000E+00  0.00000000000E+00  0.13098195421E+03  0.13098195423E+03  0.25500000000E-02 0. -1.
         -2   -1    0    0    0  501 -0.00000000000E+00 -0.00000000000E+00 -0.10141619314E+04  0.10141619314E+04  0.25500000000E-02 0.  1.
    8880022    1    1    2    0    0  0.20763462814E+03  0.24367855520E+03 -0.31058605886E+03  0.47153656278E+03  0.15294330000E+03 0. -1.
    8880022    1    1    2    0    0 -0.20763462814E+03 -0.24367855520E+03 -0.57259391828E+03  0.67360732280E+03  0.15294330000E+03 0.  1.
<mgrwt>
<rscale>  0 0.35479999E+03</rscale>
<asrwt>0</asrwt>
<pdfrwt beam="1">  1        2 0.20151071E-01 0.35479999E+03</pdfrwt>
<pdfrwt beam="2">  1       -2 0.15602491E+00 0.35479999E+03</pdfrwt>
<totfact> 0.78562101E+01</totfact>
</mgrwt>
</event>
<event>
 4    1  0.5387657E-008  0.3629881E+03  0.7818608E-02  0.1057407E+00
          2   -1    0    0  501    0  0.00000000000E+00  0.00000000000E+00  0.11735315873E+04  0.11735315873E+04  0.25500000000E-02 0. -1.
         -2   -1    0    0    0  501 -0.00000000000E+00 -0.00000000000E+00 -0.34055960878E+03  0.34055960879E+03  0.25500000000E-02 0.  1.
    8880022    1    1    2    0    0  0.32916386202E+03 -0.44562317981E+01 -0.20332901182E+03  0.41605654198E+03  0.15294330000E+03 0.  0.
    8880022    1    1    2    0    0 -0.32916386202E+03  0.44562317981E+01  0.10363009904E+04  0.10980346541E+04  0.15294330000E+03 0.  0.
<mgrwt>
<rscale>  0 0.36298810E+03</rscale>
<asrwt>0</asrwt>
<pdfrwt beam="1">  1        2 0.18054332E+00 0.36298810E+03</pdfrwt>
<pdfrwt beam="2">  1       -2 0.52393785E-01 0.36298810E+03</pdfrwt>
<totfact> 0.71983004E+01</totfact>
</mgrwt>
</event>
<event>
 4    1  0.5387657E-008  0.1050508E+04  0.7818608E-02  0.9254820E-01
          2   -1    0    0  501    0  0.00000000000E+00  0.00000000000E+00  0.11929206947E+04  0.11929206947E+04  0.25500000000E-02 0. -1.
         -2   -1    0    0    0  501 -0.00000000000E+00 -0.00000000000E+00 -0.14910908754E+04  0.14910908754E+04  0.25500000000E-02 0.  1.
    8880022    1    1    2    0    0  0.10271227826E+04  0.15872592169E+03  0.67772997680E+03  0.12501538718E+04  0.15294330000E+03 0.  0.
    8880022    1    1    2    0    0 -0.10271227826E+04 -0.15872592169E+03 -0.97590015751E+03  0.14338576984E+04  0.15294330000E+03 0.  0.
<mgrwt>
<rscale>  0 0.10505079E+04</rscale>
<asrwt>0</asrwt>
<pdfrwt beam="1">  1        2 0.18352626E+00 0.10505079E+04</pdfrwt>
<pdfrwt beam="2">  1       -2 0.22939860E+00 0.10505079E+04</pdfrwt>
<totfact> 0.16302430E+00</totfact>
</mgrwt>
</event>
<event>
 4    1  0.5387657E-008  0.5265397E+03  0.7818608E-02  0.1007075E+00
         -2   -1    0    0    0  501 -0.00000000000E+00  0.00000000000E+00  0.14046442579E+03  0.14046442581E+03  0.25500000000E-02 0.  1.
          2   -1    0    0  501    0  0.00000000000E+00 -0.00000000000E+00 -0.24862207919E+04  0.24862207919E+04  0.25500000000E-02 0. -1.
    8880022    1    1    2    0    0 -0.11726716400E+02  0.50370121132E+03 -0.17691378727E+04  0.18458312197E+04  0.15294330000E+03 0.  1.
    8880022    1    1    2    0    0  0.11726716400E+02 -0.50370121132E+03 -0.57661849341E+03  0.78085399795E+03  0.15294330000E+03 0.  0.
<mgrwt>
<rscale>  0 0.52653972E+03</rscale>
<asrwt>0</asrwt>
<pdfrwt beam="1">  1        2 0.38249547E+00 0.52653972E+03</pdfrwt>
<pdfrwt beam="2">  1       -2 0.21609914E-01 0.52653972E+03</pdfrwt>
<totfact> 0.70917923E+01</totfact>
</mgrwt>
</event>
<event>
 4    1  0.5387657E-008  0.4577481E+03  0.7818608E-02  0.1025436E+00
         -2   -1    0    0    0  501 -0.00000000000E+00  0.00000000000E+00  0.52761563017E+03  0.52761563018E+03  0.25500000000E-02 0.  1.
          2   -1    0    0  501    0  0.00000000000E+00 -0.00000000000E+00 -0.64179882619E+03  0.64179882619E+03  0.25500000000E-02 0. -1.
    8880022    1    1    2    0    0  0.35143732088E+03  0.25026689469E+03  0.30392404734E+03  0.54945717636E+03  0.15294330000E+03 0.  0.
    8880022    1    1    2    0    0 -0.35143732088E+03 -0.25026689469E+03 -0.41810724336E+03  0.61995728002E+03  0.15294330000E+03 0.  0.
<mgrwt>
<rscale>  0 0.45774814E+03</rscale>
<asrwt>0</asrwt>
<pdfrwt beam="1">  1        2 0.98738281E-01 0.45774814E+03</pdfrwt>
<pdfrwt beam="2">  1       -2 0.81171636E-01 0.45774814E+03</pdfrwt>
<totfact> 0.63428333E+01</totfact>
</mgrwt>
</event>
<event>
 4    1  0.5387657E-008  0.4954871E+03  0.7818608E-02  0.1014964E+00
         -2   -1    0    0    0  501 -0.00000000000E+00  0.00000000000E+00  0.26263261665E+03  0.26263261667E+03  0.25500000000E-02 0.  1.
          2   -1    0    0  501    0  0.00000000000E+00 -0.00000000000E+00 -0.12445048791E+04  0.12445048791E+04  0.25500000000E-02 0. -1.
    8880022    1    1    2    0    0  0.47121766888E+03 -0.83501785594E+01 -0.86686234068E+03  0.99847773518E+03  0.15294330000E+03 0.  0.
    8880022    1    1    2    0    0 -0.47121766888E+03  0.83501785594E+01 -0.11500992179E+03  0.50865976061E+03  0.15294330000E+03 0.  0.
<mgrwt>
<rscale>  0 0.49548710E+03</rscale>
<asrwt>0</asrwt>
<pdfrwt beam="1">  1        2 0.19146229E+00 0.49548710E+03</pdfrwt>
<pdfrwt beam="2">  1       -2 0.40405019E-01 0.49548710E+03</pdfrwt>
<totfact> 0.10757812E+02</totfact>
</mgrwt>
</event>
<event>
 4    1  0.5387657E-008  0.4000414E+03  0.7818608E-02  0.1043765E+00
         -2   -1    0    0    0  501 -0.00000000000E+00  0.00000000000E+00  0.49663442947E+03  0.49663442948E+03  0.25500000000E-02 0.  1.
          2   -1    0    0  501    0  0.00000000000E+00 -0.00000000000E+00 -0.10925100418E+04  0.10925100419E+04  0.25500000000E-02 0. -1.
    8880022    1    1    2    0    0  0.26254528751E+02  0.36871694496E+03  0.36924293061E+03  0.54440194764E+03  0.15294330000E+03 0.  0.
    8880022    1    1    2    0    0 -0.26254528751E+02 -0.36871694496E+03 -0.96511854298E+03  0.10447425237E+04  0.15294330000E+03 0.  0.
<mgrwt>
<rscale>  0 0.40004142E+03</rscale>
<asrwt>0</asrwt>
<pdfrwt beam="1">  1        2 0.16807847E+00 0.40004142E+03</pdfrwt>
<pdfrwt beam="2">  1       -2 0.76405297E-01 0.40004142E+03</pdfrwt>
<totfact> 0.35934735E+01</totfact>
</mgrwt>
</event>
<event>
 4    1  0.5387657E-008  0.1681673E+03  0.7818608E-02  0.1179773E+00
          2   -1    0    0  501    0  0.00000000000E+00  0.00000000000E+00  0.76297930980E+03  0.76297930980E+03  0.25500000000E-02 0. -1.
         -2   -1    0    0    0  501 -0.00000000000E+00 -0.00000000000E+00 -0.14492838589E+03  0.14492838591E+03  0.25500000000E-02 0.  1.
    8880022    1    1    2    0    0  0.50620733208E+02  0.48230110859E+02  0.70065087997E+03  0.72054972822E+03  0.15294330000E+03 0.  0.
    8880022    1    1    2    0    0 -0.50620733208E+02 -0.48230110859E+02 -0.82599956060E+02  0.18735796748E+03  0.15294330000E+03 0.  0.
<mgrwt>
<rscale>  0 0.16816734E+03</rscale>
<asrwt>0</asrwt>
<pdfrwt beam="1">  1        2 0.11738143E+00 0.16816734E+03</pdfrwt>
<pdfrwt beam="2">  1       -2 0.22296675E-01 0.16816734E+03</pdfrwt>
<totfact> 0.66124681E+02</totfact>
</mgrwt>
</event>
<event>
 4    1  0.5387657E-008  0.1009753E+04  0.7818608E-02  0.9297912E-01
         -2   -1    0    0    0  501 -0.00000000000E+00  0.00000000000E+00  0.55789877750E+03  0.55789877750E+03  0.25500000000E-02 0.  1.
          2   -1    0    0  501    0  0.00000000000E+00 -0.00000000000E+00 -0.23159428150E+04  0.23159428150E+04  0.25500000000E-02 0. -1.
    8880022    1    1    2    0    0  0.92697428353E+03 -0.37003853091E+03 -0.15388682273E+04  0.18405751576E+04  0.15294330000E+03 0.  0.
    8880022    1    1    2    0    0 -0.92697428353E+03  0.37003853091E+03 -0.21917581016E+03  0.10332664349E+04  0.15294330000E+03 0.  0.
<mgrwt>
<rscale>  0 0.10097532E+04</rscale>
<asrwt>0</asrwt>
<pdfrwt beam="1">  1        2 0.35629889E+00 0.10097532E+04</pdfrwt>
<pdfrwt beam="2">  1       -2 0.85830582E-01 0.10097532E+04</pdfrwt>
<totfact> 0.52596123E+00</totfact>
</mgrwt>
</event>
<event>
 4    1  0.5387657E-008  0.1223341E+04  0.7818608E-02  0.9092668E-01
         -2   -1    0    0    0  501 -0.00000000000E+00  0.00000000000E+00  0.70296564894E+03  0.70296564894E+03  0.25500000000E-02 0.  1.
          2   -1    0    0  501    0  0.00000000000E+00 -0.00000000000E+00 -0.38884574653E+04  0.38884574653E+04  0.25500000000E-02 0. -1.
    8880022    1    1    2    0    0  0.98947309083E+03  0.70293215053E+03 -0.31370296199E+04  0.33671229700E+04  0.15294330000E+03 0.  0.
    8880022    1    1    2    0    0 -0.98947309083E+03 -0.70293215053E+03 -0.48462196439E+02  0.12243001443E+04  0.15294330000E+03 0.  0.
<mgrwt>
<rscale>  0 0.12233406E+04</rscale>
<asrwt>0</asrwt>
<pdfrwt beam="1">  1        2 0.59822421E+00 0.12233406E+04</pdfrwt>
<pdfrwt beam="2">  1       -2 0.10814856E+00 0.12233406E+04</pdfrwt>
<totfact> 0.28887970E-01</totfact>
</mgrwt>
</event>
<event>
 4    1  0.5387657E-008  0.3899437E+03  0.7818608E-02  0.1047319E+00
         -2   -1    0    0    0  501 -0.00000000000E+00  0.00000000000E+00  0.21484083764E+03  0.21484083765E+03  0.25500000000E-02 0.  1.
          2   -1    0    0  501    0  0.00000000000E+00 -0.00000000000E+00 -0.32569519494E+04  0.32569519494E+04  0.25500000000E-02 0. -1.
    8880022    1    1    2    0    0 -0.32436310853E+03 -0.15314362901E+03  0.14690030116E+02  0.39022025484E+03  0.15294330000E+03 0.  0.
    8880022    1    1    2    0    0  0.32436310853E+03  0.15314362901E+03 -0.30568011419E+04  0.30815725322E+04  0.15294330000E+03 0. -1.
<mgrwt>
<rscale>  0 0.38994365E+03</rscale>
<asrwt>0</asrwt>
<pdfrwt beam="1">  1        2 0.50106950E+00 0.38994365E+03</pdfrwt>
<pdfrwt beam="2">  1       -2 0.33052439E-01 0.38994365E+03</pdfrwt>
<totfact> 0.11934146E+01</totfact>
</mgrwt>
</event>
<event>
 4    1  0.5387657E-008  0.6238057E+03  0.7818608E-02  0.9857212E-01
          2   -1    0    0  501    0  0.00000000000E+00  0.00000000000E+00  0.76452809564E+03  0.76452809564E+03  0.25500000000E-02 0. -1.
         -2   -1    0    0    0  501 -0.00000000000E+00 -0.00000000000E+00 -0.68996906104E+03  0.68996906104E+03  0.25500000000E-02 0.  1.
    8880022    1    1    2    0    0 -0.37110156372E+03  0.47752016380E+03  0.40974662515E+03  0.74634162906E+03  0.15294330000E+03 0.  0.
    8880022    1    1    2    0    0  0.37110156372E+03 -0.47752016380E+03 -0.33518759055E+03  0.70815552763E+03  0.15294330000E+03 0.  0.
<mgrwt>
<rscale>  0 0.62380568E+03</rscale>
<asrwt>0</asrwt>
<pdfrwt beam="1">  1        2 0.11761971E+00 0.62380568E+03</pdfrwt>
<pdfrwt beam="2">  1       -2 0.10614909E+00 0.62380568E+03</pdfrwt>
<totfact> 0.26889484E+01</totfact>
</mgrwt>
</event>
<event>
 4    1  0.5387657E-008  0.1177044E+04  0.7818608E-02  0.9133191E-01
         -2   -1    0    0    0  501 -0.00000000000E+00  0.00000000000E+00  0.24716386074E+04  0.24716386074E+04  0.25500000000E-02 0.  1.
          2   -1    0    0  501    0  0.00000000000E+00 -0.00000000000E+00 -0.14097738558E+04  0.14097738558E+04  0.25500000000E-02 0. -1.
    8880022    1    1    2    0    0  0.86033954696E+03 -0.78857847505E+03  0.20371955043E+04  0.23527850142E+04  0.15294330000E+03 0.  0.
    8880022    1    1    2    0    0 -0.86033954696E+03  0.78857847505E+03 -0.97533075278E+03  0.15286274490E+04  0.15294330000E+03 0.  0.
<mgrwt>
<rscale>  0 0.11770437E+04</rscale>
<asrwt>0</asrwt>
<pdfrwt beam="1">  1        2 0.21688829E+00 0.11770437E+04</pdfrwt>
<pdfrwt beam="2">  1       -2 0.38025209E+00 0.11770437E+04</pdfrwt>
<totfact> 0.14050837E-01</totfact>
</mgrwt>
</event>
<event>
 4    1  0.5387657E-008  0.2715042E+03  0.7818608E-02  0.1100422E+00
          2   -1    0    0  501    0  0.00000000000E+00  0.00000000000E+00  0.15224535520E+04  0.15224535520E+04  0.25500000000E-02 0. -1.
         -2   -1    0    0    0  501 -0.00000000000E+00 -0.00000000000E+00 -0.34969788257E+03  0.34969788258E+03  0.25500000000E-02 0.  1.
    8880022    1    1    2    0    0 -0.19591216646E+03 -0.10927614340E+03 -0.28248131582E+03  0.39180377651E+03  0.15294330000E+03 0.  0.
    8880022    1    1    2    0    0  0.19591216646E+03  0.10927614340E+03  0.14552369852E+04  0.14803476580E+04  0.15294330000E+03 0.  0.
<mgrwt>
<rscale>  0 0.27150415E+03</rscale>
<asrwt>0</asrwt>
<pdfrwt beam="1">  1        2 0.23422362E+00 0.27150415E+03</pdfrwt>
<pdfrwt beam="2">  1       -2 0.53799675E-01 0.27150415E+03</pdfrwt>
<totfact> 0.44636157E+01</totfact>
</mgrwt>
</event>
<event>
 4    1  0.5387657E-008  0.6884102E+03  0.7818608E-02  0.9737260E-01
          2   -1    0    0  501    0  0.00000000000E+00  0.00000000000E+00  0.97901851936E+03  0.97901851937E+03  0.25500000000E-02 0. -1.
         -2   -1    0    0    0  501 -0.00000000000E+00 -0.00000000000E+00 -0.60018585774E+03  0.60018585775E+03  0.25500000000E-02 0.  1.
    8880022    1    1    2    0    0  0.67029397079E+03  0.34969720362E+02  0.53672905361E+03  0.87291844901E+03  0.15294330000E+03 0.  0.
    8880022    1    1    2    0    0 -0.67029397079E+03 -0.34969720362E+02 -0.15789639199E+03  0.70628592811E+03  0.15294330000E+03 0.  0.
<mgrwt>
<rscale>  0 0.68841016E+03</rscale>
<asrwt>0</asrwt>
<pdfrwt beam="1">  1        2 0.15061823E+00 0.68841016E+03</pdfrwt>
<pdfrwt beam="2">  1       -2 0.92336286E-01 0.68841016E+03</pdfrwt>
<totfact> 0.26463201E+01</totfact>
</mgrwt>
</event>
<event>
 4    1  0.5387657E-008  0.3052281E+03  0.7818608E-02  0.1082656E+00
          2   -1    0    0  501    0  0.00000000000E+00  0.00000000000E+00  0.26448577976E+04  0.26448577976E+04  0.25500000000E-02 0. -1.
         -2   -1    0    0    0  501 -0.00000000000E+00 -0.00000000000E+00 -0.47007746861E+02  0.47007746930E+02  0.25500000000E-02 0.  1.
    8880022    1    1    2    0    0  0.68498077861E+02  0.25510890727E+03  0.19727829600E+04  0.19962556954E+04  0.15294330000E+03 0.  0.
    8880022    1    1    2    0    0 -0.68498077861E+02 -0.25510890727E+03  0.62506709076E+03  0.69560984913E+03  0.15294330000E+03 0.  0.
<mgrwt>
<rscale>  0 0.30522810E+03</rscale>
<asrwt>0</asrwt>
<pdfrwt beam="1">  1        2 0.40690127E+00 0.30522810E+03</pdfrwt>
<pdfrwt beam="2">  1       -2 0.72319599E-02 0.30522810E+03</pdfrwt>
<totfact> 0.36675373E+02</totfact>
</mgrwt>
</event>
<event>
 4    1  0.5387657E-008  0.8436272E+03  0.7818608E-02  0.9498930E-01
         -2   -1    0    0    0  501 -0.00000000000E+00  0.00000000000E+00  0.79053326313E+03  0.79053326313E+03  0.25500000000E-02 0.  1.
          2   -1    0    0  501    0  0.00000000000E+00 -0.00000000000E+00 -0.13816587920E+04  0.13816587920E+04  0.25500000000E-02 0. -1.
    8880022    1    1    2    0    0  0.75344939394E+02 -0.82621930693E+03 -0.93663670135E+03  0.12605535159E+04  0.15294330000E+03 0.  0.
    8880022    1    1    2    0    0 -0.75344939394E+02  0.82621930693E+03  0.34551117245E+03  0.91163853930E+03  0.15294330000E+03 0.  1.
<mgrwt>
<rscale>  0 0.84362720E+03</rscale>
<asrwt>0</asrwt>
<pdfrwt beam="1">  1        2 0.21256289E+00 0.84362720E+03</pdfrwt>
<pdfrwt beam="2">  1       -2 0.12162050E+00 0.84362720E+03</pdfrwt>
<totfact> 0.76945020E+00</totfact>
</mgrwt>
</event>
<event>
 4    1  0.5387657E-008  0.6730160E+03  0.7818608E-02  0.9764525E-01
          2   -1    0    0  501    0  0.00000000000E+00  0.00000000000E+00  0.84294320041E+03  0.84294320042E+03  0.25500000000E-02 0. -1.
         -2   -1    0    0    0  501 -0.00000000000E+00 -0.00000000000E+00 -0.25613685321E+04  0.25613685321E+04  0.25500000000E-02 0.  1.
    8880022    1    1    2    0    0 -0.23275131376E+03 -0.61268723782E+03  0.65389968465E+03  0.93836841168E+03  0.15294330000E+03 0. -1.
    8880022    1    1    2    0    0  0.23275131376E+03  0.61268723782E+03 -0.23723250164E+04  0.24659433209E+04  0.15294330000E+03 0.  0.
<mgrwt>
<rscale>  0 0.67301596E+03</rscale>
<asrwt>0</asrwt>
<pdfrwt beam="1">  1        2 0.12968357E+00 0.67301596E+03</pdfrwt>
<pdfrwt beam="2">  1       -2 0.39405669E+00 0.67301596E+03</pdfrwt>
<totfact> 0.28279844E-01</totfact>
</mgrwt>
</event>
<event>
 4    1  0.5387657E-008  0.9881783E+03  0.7818608E-02  0.9321606E-01
         -2   -1    0    0    0  501 -0.00000000000E+00  0.00000000000E+00  0.39177056575E+03  0.39177056576E+03  0.25500000000E-02 0.  1.
          2   -1    0    0  501    0  0.00000000000E+00 -0.00000000000E+00 -0.33456681580E+04  0.33456681580E+04  0.25500000000E-02 0. -1.
    8880022    1    1    2    0    0 -0.80875617336E+02  0.97291515995E+03 -0.53329088300E+03  0.11228960739E+04  0.15294330000E+03 0.  0.
    8880022    1    1    2    0    0  0.80875617336E+02 -0.97291515995E+03 -0.24206067092E+04  0.26145426498E+04  0.15294330000E+03 0.  0.
<mgrwt>
<rscale>  0 0.98817834E+03</rscale>
<asrwt>0</asrwt>
<pdfrwt beam="1">  1        2 0.51471816E+00 0.98817834E+03</pdfrwt>
<pdfrwt beam="2">  1       -2 0.60272397E-01 0.98817834E+03</pdfrwt>
<totfact> 0.27530754E+00</totfact>
</mgrwt>
</event>
<event>
 4    1  0.5387657E-008  0.3447050E+03  0.7818608E-02  0.1064810E+00
         -2   -1    0    0    0  501 -0.00000000000E+00  0.00000000000E+00  0.15766709119E+03  0.15766709121E+03  0.25500000000E-02 0.  1.
          2   -1    0    0  501    0  0.00000000000E+00 -0.00000000000E+00 -0.12760564593E+04  0.12760564593E+04  0.25500000000E-02 0. -1.
    8880022    1    1    2    0    0  0.29557599642E+03 -0.89803596957E+02 -0.10050806690E+03  0.35905902052E+03  0.15294330000E+03 0.  1.
    8880022    1    1    2    0    0 -0.29557599642E+03  0.89803596957E+02 -0.10178813012E+04  0.10746645300E+04  0.15294330000E+03 0.  0.
<mgrwt>
<rscale>  0 0.34470496E+03</rscale>
<asrwt>0</asrwt>
<pdfrwt beam="1">  1        2 0.19631637E+00 0.34470496E+03</pdfrwt>
<pdfrwt beam="2">  1       -2 0.24256476E-01 0.34470496E+03</pdfrwt>
<totfact> 0.27071423E+02</totfact>
</mgrwt>
</event>
<event>
 4    1  0.5387657E-008  0.2329562E+03  0.7818608E-02  0.1124576E+00
          2   -1    0    0  501    0  0.00000000000E+00  0.00000000000E+00  0.19049646803E+04  0.19049646803E+04  0.25500000000E-02 0. -1.
         -2   -1    0    0    0  501 -0.00000000000E+00 -0.00000000000E+00 -0.85386729025E+02  0.85386729063E+02  0.25500000000E-02 0.  1.
    8880022    1    1    2    0    0 -0.15108551483E+03 -0.89722503623E+02  0.97415191434E+02  0.25250412469E+03  0.15294330000E+03 0.  0.
    8880022    1    1    2    0    0  0.15108551483E+03  0.89722503623E+02  0.17221627599E+04  0.17378472847E+04  0.15294330000E+03 0. -1.
<mgrwt>
<rscale>  0 0.23295625E+03</rscale>
<asrwt>0</asrwt>
<pdfrwt beam="1">  1        2 0.29307146E+00 0.23295625E+03</pdfrwt>
<pdfrwt beam="2">  1       -2 0.13136421E-01 0.23295625E+03</pdfrwt>
<totfact> 0.35951571E+02</totfact>
</mgrwt>
</event>
<event>
 4    1  0.5387657E-008  0.1000237E+04  0.7818608E-02  0.9308285E-01
          2   -1    0    0  501    0  0.00000000000E+00  0.00000000000E+00  0.13348064378E+04  0.13348064378E+04  0.25500000000E-02 0. -1.
         -2   -1    0    0    0  501 -0.00000000000E+00 -0.00000000000E+00 -0.21219170964E+04  0.21219170964E+04  0.25500000000E-02 0.  1.
    8880022    1    1    2    0    0  0.22071443637E+03  0.96351797857E+03  0.99642687129E+03  0.14118569050E+04  0.15294330000E+03 0.  0.
    8880022    1    1    2    0    0 -0.22071443637E+03 -0.96351797857E+03 -0.17835375299E+04  0.20448666292E+04  0.15294330000E+03 0.  0.
<mgrwt>
<rscale>  0 0.10002367E+04</rscale>
<asrwt>0</asrwt>
<pdfrwt beam="1">  1        2 0.20535484E+00 0.10002367E+04</pdfrwt>
<pdfrwt beam="2">  1       -2 0.32644878E+00 0.10002367E+04</pdfrwt>
<totfact> 0.34750053E-01</totfact>
</mgrwt>
</event>
<event>
 4    1  0.5387657E-008  0.3173650E+03  0.7818608E-02  0.1076868E+00
          2   -1    0    0  501    0  0.00000000000E+00  0.00000000000E+00  0.28941127026E+04  0.28941127026E+04  0.25500000000E-02 0. -1.
         -2   -1    0    0    0  501 -0.00000000000E+00 -0.00000000000E+00 -0.10697018429E+03  0.10697018432E+03  0.25500000000E-02 0.  1.
    8880022    1    1    2    0    0 -0.83428205171E+02 -0.26527087415E+03  0.16106287742E+03  0.35589577911E+03  0.15294330000E+03 0.  1.
    8880022    1    1    2    0    0  0.83428205171E+02  0.26527087415E+03  0.26260796408E+04  0.26451871078E+04  0.15294330000E+03 0.  0.
<mgrwt>
<rscale>  0 0.31736502E+03</rscale>
<asrwt>0</asrwt>
<pdfrwt beam="1">  1        2 0.44524811E+00 0.31736502E+03</pdfrwt>
<pdfrwt beam="2">  1       -2 0.16456951E-01 0.31736502E+03</pdfrwt>
<totfact> 0.69697526E+01</totfact>
</mgrwt>
</event>
<event>
 4    1  0.5387657E-008  0.1054644E+04  0.7818608E-02  0.9250562E-01
          2   -1    0    0  501    0  0.00000000000E+00  0.00000000000E+00  0.16798833801E+04  0.16798833801E+04  0.25500000000E-02 0. -1.
         -2   -1    0    0    0  501 -0.00000000000E+00 -0.00000000000E+00 -0.74206594920E+03  0.74206594920E+03  0.25500000000E-02 0.  1.
    8880022    1    1    2    0    0  0.11581568992E+03  0.10370484486E+04  0.71416928632E+02  0.10570595014E+04  0.15294330000E+03 0.  0.
    8880022    1    1    2    0    0 -0.11581568992E+03 -0.10370484486E+04  0.86640050227E+03  0.13648898279E+04  0.15294330000E+03 0.  0.
<mgrwt>
<rscale>  0 0.10546442E+04</rscale>
<asrwt>0</asrwt>
<pdfrwt beam="1">  1        2 0.25844359E+00 0.10546442E+04</pdfrwt>
<pdfrwt beam="2">  1       -2 0.11416399E+00 0.10546442E+04</pdfrwt>
<totfact> 0.59794857E+00</totfact>
</mgrwt>
</event>
<event>
 4    1  0.5387657E-008  0.6430181E+03  0.7818608E-02  0.9819969E-01
          2   -1    0    0  501    0  0.00000000000E+00  0.00000000000E+00  0.96117877018E+03  0.96117877019E+03  0.25500000000E-02 0. -1.
         -2   -1    0    0    0  501 -0.00000000000E+00 -0.00000000000E+00 -0.53417866651E+03  0.53417866652E+03  0.25500000000E-02 0.  1.
    8880022    1    1    2    0    0  0.60853792607E+03  0.14057796864E+03  0.54341520919E+03  0.84188616531E+03  0.15294330000E+03 0.  0.
    8880022    1    1    2    0    0 -0.60853792607E+03 -0.14057796864E+03 -0.11641510552E+03  0.65347127140E+03  0.15294330000E+03 0.  0.
<mgrwt>
<rscale>  0 0.64301806E+03</rscale>
<asrwt>0</asrwt>
<pdfrwt beam="1">  1        2 0.14787366E+00 0.64301806E+03</pdfrwt>
<pdfrwt beam="2">  1       -2 0.82181333E-01 0.64301806E+03</pdfrwt>
<totfact> 0.35641664E+01</totfact>
</mgrwt>
</event>
<event>
 4    1  0.5387657E-008  0.7795870E+03  0.7818608E-02  0.9590043E-01
         -2   -1    0    0    0  501 -0.00000000000E+00  0.00000000000E+00  0.97369761137E+03  0.97369761137E+03  0.25500000000E-02 0.  1.
          2   -1    0    0  501    0  0.00000000000E+00 -0.00000000000E+00 -0.76896980912E+03  0.76896980912E+03  0.25500000000E-02 0. -1.
    8880022    1    1    2    0    0  0.72113527749E+03 -0.25363003818E+03  0.48046600383E+03  0.91575297901E+03  0.15294330000E+03 0. -1.
    8880022    1    1    2    0    0 -0.72113527749E+03  0.25363003818E+03 -0.27573820158E+03  0.82691444148E+03  0.15294330000E+03 0.  0.
<mgrwt>
<rscale>  0 0.77958703E+03</rscale>
<asrwt>0</asrwt>
<pdfrwt beam="1">  1        2 0.11830305E+00 0.77958703E+03</pdfrwt>
<pdfrwt beam="2">  1       -2 0.14979963E+00 0.77958703E+03</pdfrwt>
<totfact> 0.11051709E+01</totfact>
</mgrwt>
</event>
<event>
 4    1  0.5387657E-008  0.3073134E+03  0.7818608E-02  0.1081641E+00
         -2   -1    0    0    0  501 -0.00000000000E+00  0.00000000000E+00  0.64001309313E+03  0.64001309313E+03  0.25500000000E-02 0.  1.
          2   -1    0    0  501    0  0.00000000000E+00 -0.00000000000E+00 -0.16839517973E+04  0.16839517973E+04  0.25500000000E-02 0. -1.
    8880022    1    1    2    0    0 -0.64435895735E+02 -0.25864620426E+03  0.58793478907E+03  0.66340697377E+03  0.15294330000E+03 0.  0.
    8880022    1    1    2    0    0  0.64435895735E+02  0.25864620426E+03 -0.16318734932E+04  0.16605579166E+04  0.15294330000E+03 0.  0.
<mgrwt>
<rscale>  0 0.30731335E+03</rscale>
<asrwt>0</asrwt>
<pdfrwt beam="1">  1        2 0.25906951E+00 0.30731335E+03</pdfrwt>
<pdfrwt beam="2">  1       -2 0.98463553E-01 0.30731335E+03</pdfrwt>
<totfact> 0.97325885E+00</totfact>
</mgrwt>
</event>
<event>
 4    1  0.5387657E-008  0.5709070E+03  0.7818608E-02  0.9967673E-01
         -2   -1    0    0    0  501 -0.00000000000E+00  0.00000000000E+00  0.54796375925E+03  0.54796375925E+03  0.25500000000E-02 0.  1.
          2   -1    0    0  501    0  0.00000000000E+00 -0.00000000000E+00 -0.14936675458E+04  0.14936675458E+04  0.25500000000E-02 0. -1.
    8880022    1    1    2    0    0 -0.52155395383E+03  0.17471311142E+03 -0.12647431538E+04  0.13876275063E+04  0.15294330000E+03 0. -1.
    8880022    1    1    2    0    0  0.52155395383E+03 -0.17471311142E+03  0.31903936720E+03  0.65400379883E+03  0.15294330000E+03 0.  0.
<mgrwt>
<rscale>  0 0.57090704E+03</rscale>
<asrwt>0</asrwt>
<pdfrwt beam="1">  1        2 0.22979501E+00 0.57090704E+03</pdfrwt>
<pdfrwt beam="2">  1       -2 0.84302117E-01 0.57090704E+03</pdfrwt>
<totfact> 0.16515683E+01</totfact>
</mgrwt>
</event>
<event>
 4    1  0.5387657E-008  0.6144611E+03  0.7818608E-02  0.9875850E-01
          2   -1    0    0  501    0  0.00000000000E+00  0.00000000000E+00  0.10499764211E+04  0.10499764211E+04  0.25500000000E-02 0. -1.
         -2   -1    0    0    0  501 -0.00000000000E+00 -0.00000000000E+00 -0.45106036109E+03  0.45106036109E+03  0.25500000000E-02 0.  1.
    8880022    1    1    2    0    0  0.94931454306E+02  0.58750213004E+03 -0.38514277226E+02  0.61566690375E+03  0.15294330000E+03 0.  0.
    8880022    1    1    2    0    0 -0.94931454306E+02 -0.58750213004E+03  0.63743033726E+03  0.88536987846E+03  0.15294330000E+03 0.  0.
<mgrwt>
<rscale>  0 0.61446105E+03</rscale>
<asrwt>0</asrwt>
<pdfrwt beam="1">  1        2 0.16153483E+00 0.61446105E+03</pdfrwt>
<pdfrwt beam="2">  1       -2 0.69393903E-01 0.61446105E+03</pdfrwt>
<totfact> 0.45683890E+01</totfact>
</mgrwt>
</event>
<event>
 4    1  0.5387657E-008  0.8701290E+03  0.7818608E-02  0.9463712E-01
         -2   -1    0    0    0  501 -0.00000000000E+00  0.00000000000E+00  0.59614140977E+03  0.59614140977E+03  0.25500000000E-02 0.  1.
          2   -1    0    0  501    0  0.00000000000E+00 -0.00000000000E+00 -0.15041679606E+04  0.15041679606E+04  0.25500000000E-02 0. -1.
    8880022    1    1    2    0    0 -0.29389885994E+03  0.80458454405E+03 -0.39698785599E+02  0.87103414111E+03  0.15294330000E+03 0.  0.
    8880022    1    1    2    0    0  0.29389885994E+03 -0.80458454405E+03 -0.86832776525E+03  0.12292752293E+04  0.15294330000E+03 0.  0.
<mgrwt>
<rscale>  0 0.87012900E+03</rscale>
<asrwt>0</asrwt>
<pdfrwt beam="1">  1        2 0.23141045E+00 0.87012900E+03</pdfrwt>
<pdfrwt beam="2">  1       -2 0.91714063E-01 0.87012900E+03</pdfrwt>
<totfact> 0.12896295E+01</totfact>
</mgrwt>
</event>
<event>
 4    1  0.5387657E-008  0.5553899E+03  0.7818608E-02  0.1000254E+00
          2   -1    0    0  501    0  0.00000000000E+00  0.00000000000E+00  0.81909212054E+03  0.81909212054E+03  0.25500000000E-02 0. -1.
         -2   -1    0    0    0  501 -0.00000000000E+00 -0.00000000000E+00 -0.40076441505E+03  0.40076441506E+03  0.25500000000E-02 0.  1.
    8880022    1    1    2    0    0 -0.91283075541E+02  0.52605478538E+03  0.59348555370E+02  0.55855182494E+03  0.15294330000E+03 0.  0.
    8880022    1    1    2    0    0  0.91283075541E+02 -0.52605478538E+03  0.35897915012E+03  0.66130471066E+03  0.15294330000E+03 0.  0.
<mgrwt>
<rscale>  0 0.55538985E+03</rscale>
<asrwt>0</asrwt>
<pdfrwt beam="1">  1        2 0.12601417E+00 0.55538985E+03</pdfrwt>
<pdfrwt beam="2">  1       -2 0.61656065E-01 0.55538985E+03</pdfrwt>
<totfact> 0.83951386E+01</totfact>
</mgrwt>
</event>
<event>
 4    1  0.5387657E-008  0.7675461E+03  0.7818608E-02  0.9608218E-01
          2   -1    0    0  501    0  0.00000000000E+00  0.00000000000E+00  0.12263474626E+04  0.12263474626E+04  0.25500000000E-02 0. -1.
         -2   -1    0    0    0  501 -0.00000000000E+00 -0.00000000000E+00 -0.50933236816E+03  0.50933236817E+03  0.25500000000E-02 0.  1.
    8880022    1    1    2    0    0  0.35007130762E+03  0.66572177619E+03  0.56537577007E+03  0.95329786432E+03  0.15294330000E+03 0.  0.
    8880022    1    1    2    0    0 -0.35007130762E+03 -0.66572177619E+03  0.15163932436E+03  0.78238196645E+03  0.15294330000E+03 0.  0.
<mgrwt>
<rscale>  0 0.76754613E+03</rscale>
<asrwt>0</asrwt>
<pdfrwt beam="1">  1        2 0.18866884E+00 0.76754613E+03</pdfrwt>
<pdfrwt beam="2">  1       -2 0.78358825E-01 0.76754613E+03</pdfrwt>
<totfact> 0.26912308E+01</totfact>
</mgrwt>
</event>
<event>
 4    1  0.5387657E-008  0.1706991E+03  0.7818608E-02  0.1177121E+00
          2   -1    0    0  501    0  0.00000000000E+00  0.00000000000E+00  0.62158691373E+03  0.62158691373E+03  0.25500000000E-02 0. -1.
         -2   -1    0    0    0  501 -0.00000000000E+00 -0.00000000000E+00 -0.75822786544E+02  0.75822786587E+02  0.25500000000E-02 0.  1.
    8880022    1    1    2    0    0  0.64282488535E+02 -0.40178198653E+02  0.57430226781E+02  0.18010111033E+03  0.15294330000E+03 0.  1.
    8880022    1    1    2    0    0 -0.64282488535E+02  0.40178198653E+02  0.48833390040E+03  0.51730858999E+03  0.15294330000E+03 0.  0.
<mgrwt>
<rscale>  0 0.17069909E+03</rscale>
<asrwt>0</asrwt>
<pdfrwt beam="1">  1        2 0.95628752E-01 0.17069909E+03</pdfrwt>
<pdfrwt beam="2">  1       -2 0.11665045E-01 0.17069909E+03</pdfrwt>
<totfact> 0.24728201E+03</totfact>
</mgrwt>
</event>
<event>
 4    1  0.5387657E-008  0.7697388E+03  0.7818608E-02  0.9604882E-01
          2   -1    0    0  501    0  0.00000000000E+00  0.00000000000E+00  0.92096117802E+03  0.92096117802E+03  0.25500000000E-02 0. -1.
         -2   -1    0    0    0  501 -0.00000000000E+00 -0.00000000000E+00 -0.10483670512E+04  0.10483670512E+04  0.25500000000E-02 0.  1.
    8880022    1    1    2    0    0  0.16591095767E+03 -0.73592102230E+03  0.54832261230E+03  0.94506906473E+03  0.15294330000E+03 0.  0.
    8880022    1    1    2    0    0 -0.16591095767E+03  0.73592102230E+03 -0.67572848547E+03  0.10242591645E+04  0.15294330000E+03 0.  0.
<mgrwt>
<rscale>  0 0.76973882E+03</rscale>
<asrwt>0</asrwt>
<pdfrwt beam="1">  1        2 0.14168634E+00 0.76973882E+03</pdfrwt>
<pdfrwt beam="2">  1       -2 0.16128724E+00 0.76973882E+03</pdfrwt>
<totfact> 0.71062641E+00</totfact>
</mgrwt>
</event>
<event>
 4    1  0.5387657E-008  0.6860152E+03  0.7818608E-02  0.9741451E-01
         -2   -1    0    0    0  501 -0.00000000000E+00  0.00000000000E+00  0.57211980014E+03  0.57211980015E+03  0.25500000000E-02 0.  1.
          2   -1    0    0  501    0  0.00000000000E+00 -0.00000000000E+00 -0.88770335997E+03  0.88770335997E+03  0.25500000000E-02 0. -1.
    8880022    1    1    2    0    0 -0.66043607782E+03  0.10511618476E+03  0.39900507003E+02  0.68717459838E+03  0.15294330000E+03 0.  0.
    8880022    1    1    2    0    0  0.66043607782E+03 -0.10511618476E+03 -0.35548406683E+03  0.77264856175E+03  0.15294330000E+03 0.  0.
<mgrwt>
<rscale>  0 0.68601522E+03</rscale>
<asrwt>0</asrwt>
<pdfrwt beam="1">  1        2 0.13656975E+00 0.68601522E+03</pdfrwt>
<pdfrwt beam="2">  1       -2 0.88018431E-01 0.68601522E+03</pdfrwt>
<totfact> 0.33950106E+01</totfact>
</mgrwt>
</event>
<event>
 4    1  0.5387657E-008  0.4920459E+03  0.7818608E-02  0.1015876E+00
         -2   -1    0    0    0  501 -0.00000000000E+00  0.00000000000E+00  0.25826999080E+03  0.25826999081E+03  0.25500000000E-02 0.  1.
          2   -1    0    0  501    0  0.00000000000E+00 -0.00000000000E+00 -0.29637742574E+04  0.29637742574E+04  0.25500000000E-02 0. -1.
    8880022    1    1    2    0    0  0.45282123004E+03 -0.11692063697E+03 -0.26848493629E+04  0.27295650306E+04  0.15294330000E+03 0.  0.
    8880022    1    1    2    0    0 -0.45282123004E+03  0.11692063697E+03 -0.20654903703E+02  0.49247921762E+03  0.15294330000E+03 0.  0.
<mgrwt>
<rscale>  0 0.49204589E+03</rscale>
<asrwt>0</asrwt>
<pdfrwt beam="1">  1        2 0.45596525E+00 0.49204589E+03</pdfrwt>
<pdfrwt beam="2">  1       -2 0.39733847E-01 0.49204589E+03</pdfrwt>
<totfact> 0.12338658E+01</totfact>
</mgrwt>
</event>
<event>
 4    1  0.5387657E-008  0.9152392E+03  0.7818608E-02  0.9406730E-01
         -2   -1    0    0    0  501 -0.00000000000E+00  0.00000000000E+00  0.87654328391E+03  0.87654328392E+03  0.25500000000E-02 0.  1.
          2   -1    0    0  501    0  0.00000000000E+00 -0.00000000000E+00 -0.21067935888E+04  0.21067935888E+04  0.25500000000E-02 0. -1.
    8880022    1    1    2    0    0 -0.88299334943E+03 -0.18599445291E+03 -0.17177487734E+04  0.19463616553E+04  0.15294330000E+03 0.  0.
    8880022    1    1    2    0    0  0.88299334943E+03  0.18599445291E+03  0.48749846854E+03  0.10369752174E+04  0.15294330000E+03 0.  0.
<mgrwt>
<rscale>  0 0.91523923E+03</rscale>
<asrwt>0</asrwt>
<pdfrwt beam="1">  1        2 0.32412209E+00 0.91523923E+03</pdfrwt>
<pdfrwt beam="2">  1       -2 0.13485281E+00 0.91523923E+03</pdfrwt>
<totfact> 0.23316148E+00</totfact>
</mgrwt>
</event>
<event>
 4    1  0.5387657E-008  0.3749286E+03  0.7818608E-02  0.1052824E+00
         -2   -1    0    0    0  501 -0.00000000000E+00  0.00000000000E+00  0.29183266184E+03  0.29183266185E+03  0.25500000000E-02 0.  1.
          2   -1    0    0  501    0  0.00000000000E+00 -0.00000000000E+00 -0.25685644735E+04  0.25685644735E+04  0.25500000000E-02 0. -1.
    8880022    1    1    2    0    0  0.22657940549E+03 -0.25659607241E+03 -0.24275050140E+04  0.24562882602E+04  0.15294330000E+03 0.  0.
    8880022    1    1    2    0    0 -0.22657940549E+03  0.25659607241E+03  0.15077320237E+03  0.40410887510E+03  0.15294330000E+03 0.  1.
<mgrwt>
<rscale>  0 0.37492856E+03</rscale>
<asrwt>0</asrwt>
<pdfrwt beam="1">  1        2 0.39516375E+00 0.37492856E+03</pdfrwt>
<pdfrwt beam="2">  1       -2 0.44897334E-01 0.37492856E+03</pdfrwt>
<totfact> 0.17045102E+01</totfact>
</mgrwt>
</event>
<event>
 4    1  0.5387657E-008  0.9902776E+03  0.7818608E-02  0.9319273E-01
          2   -1    0    0  501    0  0.00000000000E+00  0.00000000000E+00  0.18268618126E+04  0.18268618126E+04  0.25500000000E-02 0. -1.
         -2   -1    0    0    0  501 -0.00000000000E+00 -0.00000000000E+00 -0.82805106267E+03  0.82805106267E+03  0.25500000000E-02 0.  1.
    8880022    1    1    2    0    0  0.14651609387E+03  0.96736300081E+03  0.12866857157E+04  0.16236409471E+04  0.15294330000E+03 0.  0.
    8880022    1    1    2    0    0 -0.14651609387E+03 -0.96736300081E+03 -0.28787496569E+03  0.10312719282E+04  0.15294330000E+03 0.  0.
<mgrwt>
<rscale>  0 0.99027763E+03</rscale>
<asrwt>0</asrwt>
<pdfrwt beam="1">  1        2 0.28105566E+00 0.99027763E+03</pdfrwt>
<pdfrwt beam="2">  1       -2 0.12739247E+00 0.99027763E+03</pdfrwt>
<totfact> 0.38026245E+00</totfact>
</mgrwt>
</event>
<event>
 4    1  0.5387657E-008  0.4356910E+03  0.7818608E-02  0.1032077E+00
          2   -1    0    0  501    0  0.00000000000E+00  0.00000000000E+00  0.14454276863E+04  0.14454276863E+04  0.25500000000E-02 0. -1.
         -2   -1    0    0    0  501 -0.00000000000E+00 -0.00000000000E+00 -0.24729205421E+03  0.24729205423E+03  0.25500000000E-02 0.  1.
    8880022    1    1    2    0    0 -0.40741734892E+03 -0.21121176086E+02  0.19492740733E+02  0.43612683962E+03  0.15294330000E+03 0.  0.
    8880022    1    1    2    0    0  0.40741734892E+03  0.21121176086E+02  0.11786428914E+04  0.12565929009E+04  0.15294330000E+03 0. -1.
<mgrwt>
<rscale>  0 0.43569101E+03</rscale>
<asrwt>0</asrwt>
<pdfrwt beam="1">  1        2 0.22237349E+00 0.43569101E+03</pdfrwt>
<pdfrwt beam="2">  1       -2 0.38044931E-01 0.43569101E+03</pdfrwt>
<totfact> 0.93923682E+01</totfact>
</mgrwt>
</event>
<event>
 4    1  0.5387657E-008  0.6001986E+03  0.7818608E-02  0.9904994E-01
          2   -1    0    0  501    0  0.00000000000E+00  0.00000000000E+00  0.30666724628E+04  0.30666724628E+04  0.25500000000E-02 0. -1.
         -2   -1    0    0    0  501 -0.00000000000E+00 -0.00000000000E+00 -0.17142871116E+03  0.17142871117E+03  0.25500000000E-02 0.  1.
    8880022    1    1    2    0    0 -0.33837047258E+03 -0.47154230399E+03  0.53926982940E+03  0.80687689463E+03  0.15294330000E+03 0.  0.
    8880022    1    1    2    0    0  0.33837047258E+03  0.47154230399E+03  0.23559739223E+04  0.24312242794E+04  0.15294330000E+03 0. -1.
<mgrwt>
<rscale>  0 0.60019861E+03</rscale>
<asrwt>0</asrwt>
<pdfrwt beam="1">  1        2 0.47179575E+00 0.60019861E+03</pdfrwt>
<pdfrwt beam="2">  1       -2 0.26373649E-01 0.60019861E+03</pdfrwt>
<totfact> 0.22413601E+01</totfact>
</mgrwt>
</event>
<event>
 4    1  0.5387657E-008  0.4500034E+03  0.7818608E-02  0.1027721E+00
          2   -1    0    0  501    0  0.00000000000E+00  0.00000000000E+00  0.11525324726E+04  0.11525324726E+04  0.25500000000E-02 0. -1.
         -2   -1    0    0    0  501 -0.00000000000E+00 -0.00000000000E+00 -0.50563758557E+03  0.50563758558E+03  0.25500000000E-02 0.  1.
    8880022    1    1    2    0    0  0.40737383555E+03 -0.11470818908E+03 -0.34627294386E+03  0.56780984070E+03  0.15294330000E+03 0.  0.
    8880022    1    1    2    0    0 -0.40737383555E+03  0.11470818908E+03  0.99316783087E+03  0.10903602175E+04  0.15294330000E+03 0. -1.
<mgrwt>
<rscale>  0 0.45000340E+03</rscale>
<asrwt>0</asrwt>
<pdfrwt beam="1">  1        2 0.17731269E+00 0.45000340E+03</pdfrwt>
<pdfrwt beam="2">  1       -2 0.77790399E-01 0.45000340E+03</pdfrwt>
<totfact> 0.31529356E+01</totfact>
</mgrwt>
</event>
<event>
 4    1  0.5387657E-008  0.9575271E+03  0.7818608E-02  0.9356396E-01
          2   -1    0    0  501    0  0.00000000000E+00  0.00000000000E+00  0.18204641476E+04  0.18204641476E+04  0.25500000000E-02 0. -1.
         -2   -1    0    0    0  501 -0.00000000000E+00 -0.00000000000E+00 -0.77185876931E+03  0.77185876931E+03  0.25500000000E-02 0.  1.
    8880022    1    1    2    0    0  0.53130294217E+03  0.78178240870E+03  0.12883758147E+04  0.16052322087E+04  0.15294330000E+03 0. -1.
    8880022    1    1    2    0    0 -0.53130294217E+03 -0.78178240870E+03 -0.23977043647E+03  0.98709070816E+03  0.15294330000E+03 0.  0.
<mgrwt>
<rscale>  0 0.95752713E+03</rscale>
<asrwt>0</asrwt>
<pdfrwt beam="1">  1        2 0.28007141E+00 0.95752713E+03</pdfrwt>
<pdfrwt beam="2">  1       -2 0.11874750E+00 0.95752713E+03</pdfrwt>
<totfact> 0.45912660E+00</totfact>
</mgrwt>
</event>
<event>
 4    1  0.5387657E-008  0.6045557E+03  0.7818608E-02  0.9895999E-01
          2   -1    0    0  501    0  0.00000000000E+00  0.00000000000E+00  0.20713862637E+04  0.20713862637E+04  0.25500000000E-02 0. -1.
         -2   -1    0    0    0  501 -0.00000000000E+00 -0.00000000000E+00 -0.57677908828E+03  0.57677908828E+03  0.25500000000E-02 0.  1.
    8880022    1    1    2    0    0  0.53533625824E+03  0.23560773174E+03 -0.35581235307E+03  0.70149126599E+03  0.15294330000E+03 0.  0.
    8880022    1    1    2    0    0 -0.53533625824E+03 -0.23560773174E+03  0.18504195285E+04  0.19466740860E+04  0.15294330000E+03 0.  0.
<mgrwt>
<rscale>  0 0.60455568E+03</rscale>
<asrwt>0</asrwt>
<pdfrwt beam="1">  1        2 0.31867481E+00 0.60455568E+03</pdfrwt>
<pdfrwt beam="2">  1       -2 0.88735245E-01 0.60455568E+03</pdfrwt>
<totfact> 0.70892685E+00</totfact>
</mgrwt>
</event>
<event>
 4    1  0.5387657E-008  0.5439005E+03  0.7818608E-02  0.1002916E+00
          2   -1    0    0  501    0  0.00000000000E+00  0.00000000000E+00  0.17937291574E+04  0.17937291574E+04  0.25500000000E-02 0. -1.
         -2   -1    0    0    0  501 -0.00000000000E+00 -0.00000000000E+00 -0.38908595215E+03  0.38908595216E+03  0.25500000000E-02 0.  1.
    8880022    1    1    2    0    0 -0.20473361943E+02 -0.52155242035E+03 -0.12608929748E+03  0.55832450213E+03  0.15294330000E+03 0.  0.
    8880022    1    1    2    0    0  0.20473361943E+02  0.52155242035E+03  0.15307325028E+04  0.16244906075E+04  0.15294330000E+03 0.  0.
<mgrwt>
<rscale>  0 0.54390049E+03</rscale>
<asrwt>0</asrwt>
<pdfrwt beam="1">  1        2 0.27595834E+00 0.54390049E+03</pdfrwt>
<pdfrwt beam="2">  1       -2 0.59859376E-01 0.54390049E+03</pdfrwt>
<totfact> 0.24043262E+01</totfact>
</mgrwt>
</event>
<event>
 4    1  0.5387657E-008  0.5403007E+03  0.7818608E-02  0.1003764E+00
         -2   -1    0    0    0  501 -0.00000000000E+00  0.00000000000E+00  0.51075608560E+03  0.51075608561E+03  0.25500000000E-02 0.  1.
          2   -1    0    0  501    0  0.00000000000E+00 -0.00000000000E+00 -0.94923153337E+03  0.94923153337E+03  0.25500000000E-02 0. -1.
    8880022    1    1    2    0    0  0.34581454564E+03  0.38593460290E+03  0.24122392440E+03  0.59170419334E+03  0.15294330000E+03 0.  0.
    8880022    1    1    2    0    0 -0.34581454564E+03 -0.38593460290E+03 -0.67969937217E+03  0.86828342564E+03  0.15294330000E+03 0.  0.
<mgrwt>
<rscale>  0 0.54030072E+03</rscale>
<asrwt>0</asrwt>
<pdfrwt beam="1">  1        2 0.14603562E+00 0.54030072E+03</pdfrwt>
<pdfrwt beam="2">  1       -2 0.78577859E-01 0.54030072E+03</pdfrwt>
<totfact> 0.40598707E+01</totfact>
</mgrwt>
</event>
<event>
 4    1  0.5387657E-008  0.1800205E+03  0.7818608E-02  0.1167783E+00
          2   -1    0    0  501    0  0.00000000000E+00  0.00000000000E+00  0.33435011539E+03  0.33435011540E+03  0.25500000000E-02 0. -1.
         -2   -1    0    0    0  501 -0.00000000000E+00 -0.00000000000E+00 -0.18190207382E+03  0.18190207384E+03  0.25500000000E-02 0.  1.
    8880022    1    1    2    0    0  0.13425537167E+02  0.93997276735E+02  0.25264902695E+03  0.31022397863E+03  0.15294330000E+03 0.  0.
    8880022    1    1    2    0    0 -0.13425537167E+02 -0.93997276735E+02 -0.10020098538E+03  0.20602821061E+03  0.15294330000E+03 0.  1.
<mgrwt>
<rscale>  0 0.18002052E+03</rscale>
<asrwt>0</asrwt>
<pdfrwt beam="1">  1        2 0.51438480E-01 0.18002052E+03</pdfrwt>
<pdfrwt beam="2">  1       -2 0.27984934E-01 0.18002052E+03</pdfrwt>
<totfact> 0.11216098E+03</totfact>
</mgrwt>
</event>
<event>
 4    1  0.5387657E-008  0.7671251E+03  0.7818608E-02  0.9608860E-01
          2   -1    0    0  501    0  0.00000000000E+00  0.00000000000E+00  0.25656853898E+04  0.25656853898E+04  0.25500000000E-02 0. -1.
         -2   -1    0    0    0  501 -0.00000000000E+00 -0.00000000000E+00 -0.39116396227E+03  0.39116396228E+03  0.25500000000E-02 0.  1.
    8880022    1    1    2    0    0 -0.46134905985E+03 -0.59350339334E+03  0.13642307413E+03  0.77916117787E+03  0.15294330000E+03 0.  0.
    8880022    1    1    2    0    0  0.46134905985E+03  0.59350339334E+03  0.20380983534E+04  0.21776881742E+04  0.15294330000E+03 0.  0.
<mgrwt>
<rscale>  0 0.76712508E+03</rscale>
<asrwt>0</asrwt>
<pdfrwt beam="1">  1        2 0.39472084E+00 0.76712508E+03</pdfrwt>
<pdfrwt beam="2">  1       -2 0.60179069E-01 0.76712508E+03</pdfrwt>
<totfact> 0.85957523E+00</totfact>
</mgrwt>
</event>
<event>
 4    1  0.5387657E-008  0.4176603E+03  0.7818608E-02  0.1037830E+00
          2   -1    0    0  501    0  0.00000000000E+00  0.00000000000E+00  0.45276679693E+04  0.45276679693E+04  0.25500000000E-02 0. -1.
         -2   -1    0    0    0  501 -0.00000000000E+00 -0.00000000000E+00 -0.62511923963E+02  0.62511924015E+02  0.25500000000E-02 0.  1.
    8880022    1    1    2    0    0 -0.34061976761E+03 -0.18715416341E+03  0.36541932273E+04  0.36779842716E+04  0.15294330000E+03 0.  0.
    8880022    1    1    2    0    0  0.34061976761E+03  0.18715416341E+03  0.81096281810E+03  0.91219562174E+03  0.15294330000E+03 0.  0.
<mgrwt>
<rscale>  0 0.41766034E+03</rscale>
<asrwt>0</asrwt>
<pdfrwt beam="1">  1        2 0.69656442E+00 0.41766034E+03</pdfrwt>
<pdfrwt beam="2">  1       -2 0.96172174E-02 0.41766034E+03</pdfrwt>
<totfact> 0.10541140E+01</totfact>
</mgrwt>
</event>
<event>
 4    1  0.5387657E-008  0.4093343E+03  0.7818608E-02  0.1040595E+00
         -2   -1    0    0    0  501 -0.00000000000E+00  0.00000000000E+00  0.62125962874E+03  0.62125962875E+03  0.25500000000E-02 0.  1.
          2   -1    0    0  501    0  0.00000000000E+00 -0.00000000000E+00 -0.37661488122E+03  0.37661488123E+03  0.25500000000E-02 0. -1.
    8880022    1    1    2    0    0  0.33763028508E+03  0.17369135291E+03  0.38815823795E+03  0.56411112928E+03  0.15294330000E+03 0.  0.
    8880022    1    1    2    0    0 -0.33763028508E+03 -0.17369135291E+03 -0.14351349043E+03  0.43376338069E+03  0.15294330000E+03 0.  0.
<mgrwt>
<rscale>  0 0.40933427E+03</rscale>
<asrwt>0</asrwt>
<pdfrwt beam="1">  1        2 0.57940752E-01 0.40933427E+03</pdfrwt>
<pdfrwt beam="2">  1       -2 0.95578403E-01 0.40933427E+03</pdfrwt>
<totfact> 0.80875495E+01</totfact>
</mgrwt>
</event>
<event>
 4    1  0.5387657E-008  0.5604506E+03  0.7818608E-02  0.9991036E-01
         -2   -1    0    0    0  501 -0.00000000000E+00  0.00000000000E+00  0.16200568760E+03  0.16200568762E+03  0.25500000000E-02 0.  1.
          2   -1    0    0  501    0  0.00000000000E+00 -0.00000000000E+00 -0.29416309481E+04  0.29416309481E+04  0.25500000000E-02 0. -1.
    8880022    1    1    2    0    0  0.45942038478E+03  0.28221637841E+03 -0.48376780405E+03  0.74036215155E+03  0.15294330000E+03 0.  0.
    8880022    1    1    2    0    0 -0.45942038478E+03 -0.28221637841E+03 -0.22958574565E+04  0.23632744842E+04  0.15294330000E+03 0.  0.
<mgrwt>
<rscale>  0 0.56045056E+03</rscale>
<asrwt>0</asrwt>
<pdfrwt beam="1">  1        2 0.45255857E+00 0.56045056E+03</pdfrwt>
<pdfrwt beam="2">  1       -2 0.24923954E-01 0.56045056E+03</pdfrwt>
<totfact> 0.29814949E+01</totfact>
</mgrwt>
</event>
<event>
 4    1  0.5387657E-008  0.1727769E+04  0.7818608E-02  0.8745683E-01
         -2   -1    0    0    0  501 -0.00000000000E+00  0.00000000000E+00  0.24702221437E+04  0.24702221437E+04  0.25500000000E-02 0.  1.
          2   -1    0    0  501    0  0.00000000000E+00 -0.00000000000E+00 -0.29372408272E+04  0.29372408272E+04  0.25500000000E-02 0. -1.
    8880022    1    1    2    0    0  0.14252243550E+04  0.96463985983E+03  0.18407480897E+04  0.25245870364E+04  0.15294330000E+03 0.  0.
    8880022    1    1    2    0    0 -0.14252243550E+04 -0.96463985983E+03 -0.23077667732E+04  0.28828759345E+04  0.15294330000E+03 0.  0.
<mgrwt>
<rscale>  0 0.17277691E+04</rscale>
<asrwt>0</asrwt>
<pdfrwt beam="1">  1        2 0.45188320E+00 0.17277691E+04</pdfrwt>
<pdfrwt beam="2">  1       -2 0.38003418E+00 0.17277691E+04</pdfrwt>
<totfact> 0.17381547E-02</totfact>
</mgrwt>
</event>
<event>
 4    1  0.5387657E-008  0.8203046E+03  0.7818608E-02  0.9531083E-01
         -2   -1    0    0    0  501 -0.00000000000E+00  0.00000000000E+00  0.29329338700E+03  0.29329338701E+03  0.25500000000E-02 0.  1.
          2   -1    0    0  501    0  0.00000000000E+00 -0.00000000000E+00 -0.35228832298E+04  0.35228832298E+04  0.25500000000E-02 0. -1.
    8880022    1    1    2    0    0 -0.38614029702E+03 -0.70739217503E+03 -0.27416126065E+04  0.28617021780E+04  0.15294330000E+03 0.  0.
    8880022    1    1    2    0    0  0.38614029702E+03  0.70739217503E+03 -0.48797723632E+03  0.95447443887E+03  0.15294330000E+03 0.  0.
<mgrwt>
<rscale>  0 0.82030462E+03</rscale>
<asrwt>0</asrwt>
<pdfrwt beam="1">  1        2 0.54198200E+00 0.82030462E+03</pdfrwt>
<pdfrwt beam="2">  1       -2 0.45122062E-01 0.82030462E+03</pdfrwt>
<totfact> 0.39068831E+00</totfact>
</mgrwt>
</event>
<event>
 4    1  0.5387657E-008  0.3288729E+03  0.7818608E-02  0.1071637E+00
          2   -1    0    0  501    0  0.00000000000E+00  0.00000000000E+00  0.37783982233E+04  0.37783982233E+04  0.25500000000E-02 0. -1.
         -2   -1    0    0    0  501 -0.00000000000E+00 -0.00000000000E+00 -0.15567924234E+03  0.15567924237E+03  0.25500000000E-02 0.  1.
    8880022    1    1    2    0    0  0.24021590130E+03 -0.16450546846E+03  0.35883774259E+04  0.36034164250E+04  0.15294330000E+03 0. -1.
    8880022    1    1    2    0    0 -0.24021590130E+03  0.16450546846E+03  0.34341555071E+02  0.33066104066E+03  0.15294330000E+03 0.  0.
<mgrwt>
<rscale>  0 0.32887290E+03</rscale>
<asrwt>0</asrwt>
<pdfrwt beam="1">  1        2 0.58129199E+00 0.32887290E+03</pdfrwt>
<pdfrwt beam="2">  1       -2 0.23950654E-01 0.32887290E+03</pdfrwt>
<totfact> 0.97964818E+00</totfact>
</mgrwt>
</event>
<event>
 4    1  0.5387657E-008  0.2591341E+03  0.7818608E-02  0.1107665E+00
          2   -1    0    0  501    0  0.00000000000E+00  0.00000000000E+00  0.21834001873E+03  0.21834001874E+03  0.25500000000E-02 0. -1.
         -2   -1    0    0    0  501 -0.00000000000E+00 -0.00000000000E+00 -0.60110863081E+03  0.60110863081E+03  0.25500000000E-02 0.  1.
    8880022    1    1    2    0    0 -0.20450861637E+03 -0.43989383140E+02  0.94942905924E+02  0.27597943474E+03  0.15294330000E+03 0.  0.
    8880022    1    1    2    0    0  0.20450861637E+03  0.43989383140E+02 -0.47771151800E+03  0.54346921481E+03  0.15294330000E+03 0. -1.
<mgrwt>
<rscale>  0 0.25913412E+03</rscale>
<asrwt>0</asrwt>
<pdfrwt beam="1">  1        2 0.33590772E-01 0.25913412E+03</pdfrwt>
<pdfrwt beam="2">  1       -2 0.92478251E-01 0.25913412E+03</pdfrwt>
<totfact> 0.16017403E+02</totfact>
</mgrwt>
</event>
<event>
 4    1  0.5387657E-008  0.4084183E+03  0.7818608E-02  0.1040903E+00
         -2   -1    0    0    0  501 -0.00000000000E+00  0.00000000000E+00  0.17901775136E+03  0.17901775138E+03  0.25500000000E-02 0.  1.
          2   -1    0    0  501    0  0.00000000000E+00 -0.00000000000E+00 -0.12910127709E+04  0.12910127709E+04  0.25500000000E-02 0. -1.
    8880022    1    1    2    0    0  0.26901364078E+03 -0.26654369068E+03 -0.94371715791E+03  0.10283032652E+04  0.15294330000E+03 0.  1.
    8880022    1    1    2    0    0 -0.26901364078E+03  0.26654369068E+03 -0.16827786163E+03  0.44172725713E+03  0.15294330000E+03 0.  0.
<mgrwt>
<rscale>  0 0.40841833E+03</rscale>
<asrwt>0</asrwt>
<pdfrwt beam="1">  1        2 0.19861734E+00 0.40841833E+03</pdfrwt>
<pdfrwt beam="2">  1       -2 0.27541193E-01 0.40841833E+03</pdfrwt>
<totfact> 0.20978887E+02</totfact>
</mgrwt>
</event>
<event>
 4    1  0.5387657E-008  0.2306158E+03  0.7818608E-02  0.1126207E+00
         -2   -1    0    0    0  501 -0.00000000000E+00  0.00000000000E+00  0.41750021995E+03  0.41750021996E+03  0.25500000000E-02 0.  1.
          2   -1    0    0  501    0  0.00000000000E+00 -0.00000000000E+00 -0.85617373084E+03  0.85617373084E+03  0.25500000000E-02 0. -1.
    8880022    1    1    2    0    0 -0.29305967456E+02  0.17009752539E+03  0.36821734818E+03  0.43447402269E+03  0.15294330000E+03 0.  0.
    8880022    1    1    2    0    0  0.29305967456E+02 -0.17009752539E+03 -0.80689085907E+03  0.83919992811E+03  0.15294330000E+03 0. -1.
<mgrwt>
<rscale>  0 0.23061583E+03</rscale>
<asrwt>0</asrwt>
<pdfrwt beam="1">  1        2 0.13171903E+00 0.23061583E+03</pdfrwt>
<pdfrwt beam="2">  1       -2 0.64230803E-01 0.23061583E+03</pdfrwt>
<totfact> 0.76104280E+01</totfact>
</mgrwt>
</event>
<event>
 4    1  0.5387657E-008  0.5654893E+03  0.7818608E-02  0.9979710E-01
         -2   -1    0    0    0  501 -0.00000000000E+00  0.00000000000E+00  0.51930532989E+03  0.51930532990E+03  0.25500000000E-02 0.  1.
          2   -1    0    0  501    0  0.00000000000E+00 -0.00000000000E+00 -0.14712154647E+04  0.14712154647E+04  0.25500000000E-02 0. -1.
    8880022    1    1    2    0    0 -0.52832438804E+03  0.13137681746E+03  0.28295801609E+03  0.63233173181E+03  0.15294330000E+03 0.  0.
    8880022    1    1    2    0    0  0.52832438804E+03 -0.13137681746E+03 -0.12348681509E+04  0.13581890628E+04  0.15294330000E+03 0.  0.
<mgrwt>
<rscale>  0 0.56548933E+03</rscale>
<asrwt>0</asrwt>
<pdfrwt beam="1">  1        2 0.22634084E+00 0.56548933E+03</pdfrwt>
<pdfrwt beam="2">  1       -2 0.79893128E-01 0.56548933E+03</pdfrwt>
<totfact> 0.19196886E+01</totfact>
</mgrwt>
</event>
<event>
 4    1  0.5387657E-008  0.4853177E+03  0.7818608E-02  0.1017684E+00
          2   -1    0    0  501    0  0.00000000000E+00  0.00000000000E+00  0.11008966457E+04  0.11008966458E+04  0.25500000000E-02 0. -1.
         -2   -1    0    0    0  501 -0.00000000000E+00 -0.00000000000E+00 -0.31339332251E+03  0.31339332252E+03  0.25500000000E-02 0.  1.
    8880022    1    1    2    0    0  0.26851164674E+03 -0.37422329248E+03  0.79209592193E+03  0.92895057975E+03  0.15294330000E+03 0.  0.
    8880022    1    1    2    0    0 -0.26851164674E+03  0.37422329248E+03 -0.45925986905E+01  0.48533938851E+03  0.15294330000E+03 0.  0.
<mgrwt>
<rscale>  0 0.48531766E+03</rscale>
<asrwt>0</asrwt>
<pdfrwt beam="1">  1        2 0.16936871E+00 0.48531766E+03</pdfrwt>
<pdfrwt beam="2">  1       -2 0.48214359E-01 0.48531766E+03</pdfrwt>
<totfact> 0.92320432E+01</totfact>
</mgrwt>
</event>
<event>
 4    1  0.5387657E-008  0.1732815E+03  0.7818608E-02  0.1174468E+00
          2   -1    0    0  501    0  0.00000000000E+00  0.00000000000E+00  0.20253227995E+04  0.20253227995E+04  0.25500000000E-02 0. -1.
         -2   -1    0    0    0  501 -0.00000000000E+00 -0.00000000000E+00 -0.35051686801E+02  0.35051686894E+02  0.25500000000E-02 0.  1.
    8880022    1    1    2    0    0 -0.78927996193E+02  0.20129647732E+02  0.17776968970E+04  0.17861222640E+04  0.15294330000E+03 0. -1.
    8880022    1    1    2    0    0  0.78927996193E+02 -0.20129647732E+02  0.21257421571E+03  0.27425222242E+03  0.15294330000E+03 0.  1.
<mgrwt>
<rscale>  0 0.17328152E+03</rscale>
<asrwt>0</asrwt>
<pdfrwt beam="1">  1        2 0.31158811E+00 0.17328152E+03</pdfrwt>
<pdfrwt beam="2">  1       -2 0.53925674E-02 0.17328152E+03</pdfrwt>
<totfact> 0.12712729E+03</totfact>
</mgrwt>
</event>
<event>
 4    1  0.5387657E-008  0.2535915E+03  0.7818608E-02  0.1111056E+00
          2   -1    0    0  501    0  0.00000000000E+00  0.00000000000E+00  0.92030805056E+03  0.92030805057E+03  0.25500000000E-02 0. -1.
         -2   -1    0    0    0  501 -0.00000000000E+00 -0.00000000000E+00 -0.12592740526E+03  0.12592740529E+03  0.25500000000E-02 0.  1.
    8880022    1    1    2    0    0 -0.20068801011E+03  0.25323787893E+02  0.48188577255E+02  0.25812935445E+03  0.15294330000E+03 0.  0.
    8880022    1    1    2    0    0  0.20068801011E+03 -0.25323787893E+02  0.74619206805E+03  0.78810610140E+03  0.15294330000E+03 0. -1.
<mgrwt>
<rscale>  0 0.25359145E+03</rscale>
<asrwt>0</asrwt>
<pdfrwt beam="1">  1        2 0.14158585E+00 0.25359145E+03</pdfrwt>
<pdfrwt beam="2">  1       -2 0.19373448E-01 0.25359145E+03</pdfrwt>
<totfact> 0.65771650E+02</totfact>
</mgrwt>
</event>
<event>
 4    1  0.5387657E-008  0.3224070E+03  0.7818608E-02  0.1074547E+00
          2   -1    0    0  501    0  0.00000000000E+00  0.00000000000E+00  0.24938540758E+03  0.24938540759E+03  0.25500000000E-02 0. -1.
         -2   -1    0    0    0  501 -0.00000000000E+00 -0.00000000000E+00 -0.74566939349E+03  0.74566939349E+03  0.25500000000E-02 0.  1.
    8880022    1    1    2    0    0  0.27089828849E+03  0.84668397553E+02  0.82264920248E+02  0.33273681848E+03  0.15294330000E+03 0.  0.
    8880022    1    1    2    0    0 -0.27089828849E+03 -0.84668397553E+02 -0.57854890616E+03  0.66231798261E+03  0.15294330000E+03 0.  0.
<mgrwt>
<rscale>  0 0.32240700E+03</rscale>
<asrwt>0</asrwt>
<pdfrwt beam="1">  1        2 0.38366986E-01 0.32240700E+03</pdfrwt>
<pdfrwt beam="2">  1       -2 0.11471837E+00 0.32240700E+03</pdfrwt>
<totfact> 0.83060829E+01</totfact>
</mgrwt>
</event>
<event>
 4    1  0.5387657E-008  0.1998791E+03  0.7818608E-02  0.1149841E+00
          2   -1    0    0  501    0  0.00000000000E+00  0.00000000000E+00  0.55106447936E+03  0.55106447937E+03  0.25500000000E-02 0. -1.
         -2   -1    0    0    0  501 -0.00000000000E+00 -0.00000000000E+00 -0.12419823333E+04  0.12419823333E+04  0.25500000000E-02 0.  1.
    8880022    1    1    2    0    0  0.77733019396E+02  0.10255525956E+03  0.52450437069E+03  0.56129893235E+03  0.15294330000E+03 0.  0.
    8880022    1    1    2    0    0 -0.77733019396E+02 -0.10255525956E+03 -0.12154222246E+04  0.12317478803E+04  0.15294330000E+03 0.  1.
<mgrwt>
<rscale>  0 0.19987910E+03</rscale>
<asrwt>0</asrwt>
<pdfrwt beam="1">  1        2 0.84779151E-01 0.19987910E+03</pdfrwt>
<pdfrwt beam="2">  1       -2 0.19107420E+00 0.19987910E+03</pdfrwt>
<totfact> 0.95253574E+00</totfact>
</mgrwt>
</event>
<event>
 4    1  0.5387657E-008  0.3996978E+03  0.7818608E-02  0.1043884E+00
         -2   -1    0    0    0  501 -0.00000000000E+00  0.00000000000E+00  0.27363489212E+03  0.27363489213E+03  0.25500000000E-02 0.  1.
          2   -1    0    0  501    0  0.00000000000E+00 -0.00000000000E+00 -0.15880605919E+04  0.15880605919E+04  0.25500000000E-02 0. -1.
    8880022    1    1    2    0    0 -0.20743119704E+03 -0.30551427029E+03  0.83006113872E+02  0.40822584290E+03  0.15294330000E+03 0.  0.
    8880022    1    1    2    0    0  0.20743119704E+03  0.30551427029E+03 -0.13974318137E+04  0.14534696411E+04  0.15294330000E+03 0. -1.
<mgrwt>
<rscale>  0 0.39969779E+03</rscale>
<asrwt>0</asrwt>
<pdfrwt beam="1">  1        2 0.24431701E+00 0.39969779E+03</pdfrwt>
<pdfrwt beam="2">  1       -2 0.42097677E-01 0.39969779E+03</pdfrwt>
<totfact> 0.64996736E+01</totfact>
</mgrwt>
</event>
<event>
 4    1  0.5387657E-008  0.2064043E+03  0.7818608E-02  0.1144445E+00
         -2   -1    0    0    0  501 -0.00000000000E+00  0.00000000000E+00  0.14454008444E+03  0.14454008446E+03  0.25500000000E-02 0.  1.
          2   -1    0    0  501    0  0.00000000000E+00 -0.00000000000E+00 -0.69984484595E+03  0.69984484596E+03  0.25500000000E-02 0. -1.
    8880022    1    1    2    0    0  0.13496891578E+03  0.31535427783E+02  0.43558024098E+02  0.21095033992E+03  0.15294330000E+03 0.  1.
    8880022    1    1    2    0    0 -0.13496891578E+03 -0.31535427783E+02 -0.59886278562E+03  0.63343459050E+03  0.15294330000E+03 0.  0.
<mgrwt>
<rscale>  0 0.20640432E+03</rscale>
<asrwt>0</asrwt>
<pdfrwt beam="1">  1        2 0.10766844E+00 0.20640432E+03</pdfrwt>
<pdfrwt beam="2">  1       -2 0.22236937E-01 0.20640432E+03</pdfrwt>
<totfact> 0.73722895E+02</totfact>
</mgrwt>
</event>
<event>
 4    1  0.5387657E-008  0.3790198E+03  0.7818608E-02  0.1051297E+00
         -2   -1    0    0    0  501 -0.00000000000E+00  0.00000000000E+00  0.25072459019E+03  0.25072459020E+03  0.25500000000E-02 0.  1.
          2   -1    0    0  501    0  0.00000000000E+00 -0.00000000000E+00 -0.10694676386E+04  0.10694676386E+04  0.25500000000E-02 0. -1.
    8880022    1    1    2    0    0 -0.34129897915E+03 -0.61476749355E+02 -0.85913562925E+03  0.93902612655E+03  0.15294330000E+03 0.  0.
    8880022    1    1    2    0    0  0.34129897915E+03  0.61476749355E+02  0.40392580868E+02  0.38116610223E+03  0.15294330000E+03 0.  1.
<mgrwt>
<rscale>  0 0.37901984E+03</rscale>
<asrwt>0</asrwt>
<pdfrwt beam="1">  1        2 0.16453348E+00 0.37901984E+03</pdfrwt>
<pdfrwt beam="2">  1       -2 0.38573014E-01 0.37901984E+03</pdfrwt>
<totfact> 0.15138000E+02</totfact>
</mgrwt>
</event>
<event>
 4    1  0.5387657E-008  0.7560185E+03  0.7818608E-02  0.9625955E-01
          2   -1    0    0  501    0  0.00000000000E+00  0.00000000000E+00  0.10451542542E+04  0.10451542543E+04  0.25500000000E-02 0. -1.
         -2   -1    0    0    0  501 -0.00000000000E+00 -0.00000000000E+00 -0.11881485914E+04  0.11881485914E+04  0.25500000000E-02 0.  1.
    8880022    1    1    2    0    0 -0.20590535546E+03  0.71117883409E+03 -0.89185901743E+03  0.11691777065E+04  0.15294330000E+03 0.  0.
    8880022    1    1    2    0    0  0.20590535546E+03 -0.71117883409E+03  0.74886468025E+03  0.10641251392E+04  0.15294330000E+03 0.  0.
<mgrwt>
<rscale>  0 0.75601852E+03</rscale>
<asrwt>0</asrwt>
<pdfrwt beam="1">  1        2 0.16079296E+00 0.75601852E+03</pdfrwt>
<pdfrwt beam="2">  1       -2 0.18279209E+00 0.75601852E+03</pdfrwt>
<totfact> 0.41771624E+00</totfact>
</mgrwt>
</event>
<event>
 4    1  0.5387657E-008  0.1471934E+04  0.7818608E-02  0.8903334E-01
          2   -1    0    0  501    0  0.00000000000E+00  0.00000000000E+00  0.23365634112E+04  0.23365634112E+04  0.25500000000E-02 0. -1.
         -2   -1    0    0    0  501 -0.00000000000E+00 -0.00000000000E+00 -0.12800130950E+04  0.12800130950E+04  0.25500000000E-02 0.  1.
    8880022    1    1    2    0    0 -0.14244352271E+04  0.33790777066E+03  0.14775658714E+04  0.20856150017E+04  0.15294330000E+03 0.  0.
    8880022    1    1    2    0    0  0.14244352271E+04 -0.33790777066E+03 -0.42101555519E+03  0.15309615046E+04  0.15294330000E+03 0.  0.
<mgrwt>
<rscale>  0 0.14719338E+04</rscale>
<asrwt>0</asrwt>
<pdfrwt beam="1">  1        2 0.35947129E+00 0.14719338E+04</pdfrwt>
<pdfrwt beam="2">  1       -2 0.19692509E+00 0.14719338E+04</pdfrwt>
<totfact> 0.56754615E-01</totfact>
</mgrwt>
</event>
<event>
 4    1  0.5387657E-008  0.2254666E+03  0.7818608E-02  0.1129872E+00
          2   -1    0    0  501    0  0.00000000000E+00  0.00000000000E+00  0.77582692653E+03  0.77582692654E+03  0.25500000000E-02 0. -1.
         -2   -1    0    0    0  501 -0.00000000000E+00 -0.00000000000E+00 -0.65766797276E+03  0.65766797277E+03  0.25500000000E-02 0.  1.
    8880022    1    1    2    0    0 -0.18576349035E+02 -0.16461611292E+03  0.73918532077E+03  0.77280666200E+03  0.15294330000E+03 0. -1.
    8880022    1    1    2    0    0  0.18576349035E+02  0.16461611292E+03 -0.62102636701E+03  0.66068823730E+03  0.15294330000E+03 0.  0.
<mgrwt>
<rscale>  0 0.22546662E+03</rscale>
<asrwt>0</asrwt>
<pdfrwt beam="1">  1        2 0.11935799E+00 0.22546662E+03</pdfrwt>
<pdfrwt beam="2">  1       -2 0.10117969E+00 0.22546662E+03</pdfrwt>
<totfact> 0.31635888E+01</totfact>
</mgrwt>
</event>
<event>
 4    1  0.5741002E-008  0.6640620E+03  0.7818608E-02  0.9780745E-01
          2   -1    0    0  501    0  0.00000000000E+00  0.00000000000E+00  0.21136637271E+04  0.21136637271E+04  0.25500000000E-02 0. -1.
         -2   -1    0    0    0  501 -0.00000000000E+00 -0.00000000000E+00 -0.75332646587E+03  0.75332646587E+03  0.25500000000E-02 0.  1.
    8880022    1    1    2    0    0 -0.60856029896E+03 -0.21734999606E+03  0.18991049042E+04  0.20118592765E+04  0.15294330000E+03 0.  0.
    8880022    1    1    2    0    0  0.60856029896E+03  0.21734999606E+03 -0.53876764294E+03  0.85513091650E+03  0.15294330000E+03 0.  1.
<mgrwt>
<rscale>  0 0.66406198E+03</rscale>
<asrwt>0</asrwt>
<pdfrwt beam="1">  1        2 0.32517902E+00 0.66406198E+03</pdfrwt>
<pdfrwt beam="2">  1       -2 0.11589638E+00 0.66406198E+03</pdfrwt>
<totfact> 0.35281240E+00</totfact>
</mgrwt>
</event>
<event>
 4    1  0.5387657E-008  0.3640131E+03  0.7818608E-02  0.1057006E+00
          2   -1    0    0  501    0  0.00000000000E+00  0.00000000000E+00  0.18995174299E+04  0.18995174299E+04  0.25500000000E-02 0. -1.
         -2   -1    0    0    0  501 -0.00000000000E+00 -0.00000000000E+00 -0.63611633419E+03  0.63611633420E+03  0.25500000000E-02 0.  1.
    8880022    1    1    2    0    0  0.92665838672E+02 -0.31705983975E+03  0.18279840218E+04  0.18638753007E+04  0.15294330000E+03 0.  0.
    8880022    1    1    2    0    0 -0.92665838672E+02  0.31705983975E+03 -0.56458292611E+03  0.67175846337E+03  0.15294330000E+03 0.  0.
<mgrwt>
<rscale>  0 0.36401312E+03</rscale>
<asrwt>0</asrwt>
<pdfrwt beam="1">  1        2 0.29223345E+00 0.36401312E+03</pdfrwt>
<pdfrwt beam="2">  1       -2 0.97864053E-01 0.36401312E+03</pdfrwt>
<totfact> 0.74387061E+00</totfact>
</mgrwt>
</event>
<event>
 4    1  0.5387657E-008  0.4067029E+03  0.7818608E-02  0.1041483E+00
          2   -1    0    0  501    0  0.00000000000E+00  0.00000000000E+00  0.55015219527E+03  0.55015219528E+03  0.25500000000E-02 0. -1.
         -2   -1    0    0    0  501 -0.00000000000E+00 -0.00000000000E+00 -0.78816641852E+03  0.78816641852E+03  0.25500000000E-02 0.  1.
    8880022    1    1    2    0    0 -0.29332931623E+03 -0.23658714771E+03 -0.64528118456E+03  0.76275489273E+03  0.15294330000E+03 0.  0.
    8880022    1    1    2    0    0  0.29332931623E+03  0.23658714771E+03  0.40726696132E+03  0.57556372107E+03  0.15294330000E+03 0.  0.
<mgrwt>
<rscale>  0 0.40670286E+03</rscale>
<asrwt>0</asrwt>
<pdfrwt beam="1">  1        2 0.84638800E-01 0.40670286E+03</pdfrwt>
<pdfrwt beam="2">  1       -2 0.12125637E+00 0.40670286E+03</pdfrwt>
<totfact> 0.29906613E+01</totfact>
</mgrwt>
</event>
<event>
 4    1  0.5387657E-008  0.7456144E+03  0.7818608E-02  0.9642256E-01
         -2   -1    0    0    0  501 -0.00000000000E+00  0.00000000000E+00  0.45574113810E+03  0.45574113811E+03  0.25500000000E-02 0.  1.
          2   -1    0    0  501    0  0.00000000000E+00 -0.00000000000E+00 -0.17082867880E+04  0.17082867880E+04  0.25500000000E-02 0. -1.
    8880022    1    1    2    0    0 -0.69973010389E+03  0.20718813841E+03 -0.47708287430E+02  0.74713912807E+03  0.15294330000E+03 0.  0.
    8880022    1    1    2    0    0  0.69973010389E+03 -0.20718813841E+03 -0.12048373625E+04  0.14168887980E+04  0.15294330000E+03 0.  0.
<mgrwt>
<rscale>  0 0.74561437E+03</rscale>
<asrwt>0</asrwt>
<pdfrwt beam="1">  1        2 0.26281335E+00 0.74561437E+03</pdfrwt>
<pdfrwt beam="2">  1       -2 0.70114022E-01 0.74561437E+03</pdfrwt>
<totfact> 0.18488278E+01</totfact>
</mgrwt>
</event>
<event>
 4    1  0.5387657E-008  0.3071506E+03  0.7818608E-02  0.1081720E+00
         -2   -1    0    0    0  501 -0.00000000000E+00  0.00000000000E+00  0.48717797820E+03  0.48717797821E+03  0.25500000000E-02 0.  1.
          2   -1    0    0  501    0  0.00000000000E+00 -0.00000000000E+00 -0.17714147256E+04  0.17714147256E+04  0.25500000000E-02 0. -1.
    8880022    1    1    2    0    0  0.19423602364E+03  0.18226961511E+03  0.42366530951E+03  0.52329130795E+03  0.15294330000E+03 0.  1.
    8880022    1    1    2    0    0 -0.19423602364E+03 -0.18226961511E+03 -0.17079020569E+04  0.17353013958E+04  0.15294330000E+03 0.  0.
<mgrwt>
<rscale>  0 0.30715061E+03</rscale>
<asrwt>0</asrwt>
<pdfrwt beam="1">  1        2 0.27252534E+00 0.30715061E+03</pdfrwt>
<pdfrwt beam="2">  1       -2 0.74950459E-01 0.30715061E+03</pdfrwt>
<totfact> 0.16180744E+01</totfact>
</mgrwt>
</event>
<event>
 4    1  0.5387657E-008  0.6052651E+03  0.7818608E-02  0.9894542E-01
          2   -1    0    0  501    0  0.00000000000E+00  0.00000000000E+00  0.95465412031E+03  0.95465412032E+03  0.25500000000E-02 0. -1.
         -2   -1    0    0    0  501 -0.00000000000E+00 -0.00000000000E+00 -0.61582199504E+03  0.61582199505E+03  0.25500000000E-02 0.  1.
    8880022    1    1    2    0    0 -0.57629791385E+03 -0.10409112232E+03 -0.31262904137E+03  0.68123624227E+03  0.15294330000E+03 0.  1.
    8880022    1    1    2    0    0  0.57629791385E+03  0.10409112232E+03  0.65146116664E+03  0.88923987310E+03  0.15294330000E+03 0.  0.
<mgrwt>
<rscale>  0 0.60526515E+03</rscale>
<asrwt>0</asrwt>
<pdfrwt beam="1">  1        2 0.14686986E+00 0.60526515E+03</pdfrwt>
<pdfrwt beam="2">  1       -2 0.94741846E-01 0.60526515E+03</pdfrwt>
<totfact> 0.26093805E+01</totfact>
</mgrwt>
</event>
<event>
 4    1  0.5387657E-008  0.2997613E+03  0.7818608E-02  0.1085360E+00
          2   -1    0    0  501    0  0.00000000000E+00  0.00000000000E+00  0.30867579859E+04  0.30867579859E+04  0.25500000000E-02 0. -1.
         -2   -1    0    0    0  501 -0.00000000000E+00 -0.00000000000E+00 -0.60825944014E+02  0.60825944067E+02  0.25500000000E-02 0.  1.
    8880022    1    1    2    0    0  0.20590186481E+03 -0.15514391437E+03  0.26493856945E+04  0.26662898236E+04  0.15294330000E+03 0. -1.
    8880022    1    1    2    0    0 -0.20590186481E+03  0.15514391437E+03  0.37654634739E+03  0.48129410639E+03  0.15294330000E+03 0.  0.
<mgrwt>
<rscale>  0 0.29976135E+03</rscale>
<asrwt>0</asrwt>
<pdfrwt beam="1">  1        2 0.47488580E+00 0.29976135E+03</pdfrwt>
<pdfrwt beam="2">  1       -2 0.93578383E-02 0.29976135E+03</pdfrwt>
<totfact> 0.13540116E+02</totfact>
</mgrwt>
</event>
<event>
 4    1  0.5387657E-008  0.5549488E+03  0.7818608E-02  0.1000355E+00
         -2   -1    0    0    0  501 -0.00000000000E+00  0.00000000000E+00  0.32778545671E+03  0.32778545672E+03  0.25500000000E-02 0.  1.
          2   -1    0    0  501    0  0.00000000000E+00 -0.00000000000E+00 -0.99416532459E+03  0.99416532459E+03  0.25500000000E-02 0. -1.
    8880022    1    1    2    0    0 -0.53201270330E+03 -0.39230296486E+02 -0.17825645720E+03  0.58287524410E+03  0.15294330000E+03 0.  0.
    8880022    1    1    2    0    0  0.53201270330E+03  0.39230296486E+02 -0.48812341068E+03  0.73907553721E+03  0.15294330000E+03 0.  0.
<mgrwt>
<rscale>  0 0.55494881E+03</rscale>
<asrwt>0</asrwt>
<pdfrwt beam="1">  1        2 0.15294851E+00 0.55494881E+03</pdfrwt>
<pdfrwt beam="2">  1       -2 0.50428532E-01 0.55494881E+03</pdfrwt>
<totfact> 0.97384576E+01</totfact>
</mgrwt>
</event>
<event>
 4    1  0.5387657E-008  0.6454310E+03  0.7818608E-02  0.9815391E-01
          2   -1    0    0  501    0  0.00000000000E+00  0.00000000000E+00  0.20332831712E+04  0.20332831712E+04  0.25500000000E-02 0. -1.
         -2   -1    0    0    0  501 -0.00000000000E+00 -0.00000000000E+00 -0.25222904620E+03  0.25222904622E+03  0.25500000000E-02 0.  1.
    8880022    1    1    2    0    0  0.56109770818E+03 -0.27992658772E+03  0.13856428983E+04  0.15285900128E+04  0.15294330000E+03 0.  0.
    8880022    1    1    2    0    0 -0.56109770818E+03  0.27992658772E+03  0.39541122672E+03  0.75692220463E+03  0.15294330000E+03 0.  0.
<mgrwt>
<rscale>  0 0.64543101E+03</rscale>
<asrwt>0</asrwt>
<pdfrwt beam="1">  1        2 0.31281280E+00 0.64543101E+03</pdfrwt>
<pdfrwt beam="2">  1       -2 0.38804468E-01 0.64543101E+03</pdfrwt>
<totfact> 0.42034222E+01</totfact>
</mgrwt>
</event>
<event>
 4    1  0.5387657E-008  0.5464329E+03  0.7818608E-02  0.1002323E+00
          2   -1    0    0  501    0  0.00000000000E+00  0.00000000000E+00  0.42727378819E+03  0.42727378819E+03  0.25500000000E-02 0. -1.
         -2   -1    0    0    0  501 -0.00000000000E+00 -0.00000000000E+00 -0.14581215410E+04  0.14581215410E+04  0.25500000000E-02 0.  1.
    8880022    1    1    2    0    0  0.39748257482E+03  0.34235199728E+03 -0.11956945106E+04  0.13146384686E+04  0.15294330000E+03 0.  0.
    8880022    1    1    2    0    0 -0.39748257482E+03 -0.34235199728E+03  0.16484675783E+03  0.57075686059E+03  0.15294330000E+03 0.  0.
<mgrwt>
<rscale>  0 0.54643292E+03</rscale>
<asrwt>0</asrwt>
<pdfrwt beam="1">  1        2 0.65734430E-01 0.54643292E+03</pdfrwt>
<pdfrwt beam="2">  1       -2 0.22432639E+00 0.54643292E+03</pdfrwt>
<totfact> 0.72011368E+00</totfact>
</mgrwt>
</event>
<event>
 4    1  0.5387657E-008  0.3875401E+03  0.7818608E-02  0.1048182E+00
         -2   -1    0    0    0  501 -0.00000000000E+00  0.00000000000E+00  0.88556320213E+02  0.88556320250E+02  0.25500000000E-02 0.  1.
          2   -1    0    0  501    0  0.00000000000E+00 -0.00000000000E+00 -0.23798731544E+04  0.23798731544E+04  0.25500000000E-02 0. -1.
    8880022    1    1    2    0    0  0.22639619939E+03  0.27484619026E+03 -0.18072906503E+04  0.18483741004E+04  0.15294330000E+03 0.  0.
    8880022    1    1    2    0    0 -0.22639619939E+03 -0.27484619026E+03 -0.48402618383E+03  0.62005537418E+03  0.15294330000E+03 0.  0.
<mgrwt>
<rscale>  0 0.38754009E+03</rscale>
<asrwt>0</asrwt>
<pdfrwt beam="1">  1        2 0.36613428E+00 0.38754009E+03</pdfrwt>
<pdfrwt beam="2">  1       -2 0.13624051E-01 0.38754009E+03</pdfrwt>
<totfact> 0.18292273E+02</totfact>
</mgrwt>
</event>
<event>
 4    1  0.5387657E-008  0.8941063E+03  0.7818608E-02  0.9432979E-01
          2   -1    0    0  501    0  0.00000000000E+00  0.00000000000E+00  0.25694359964E+04  0.25694359964E+04  0.25500000000E-02 0. -1.
         -2   -1    0    0    0  501 -0.00000000000E+00 -0.00000000000E+00 -0.11972014245E+04  0.11972014245E+04  0.25500000000E-02 0.  1.
    8880022    1    1    2    0    0  0.35099238757E+03  0.80798434836E+03 -0.93410582456E+03  0.12930505434E+04  0.15294330000E+03 0.  0.
    8880022    1    1    2    0    0 -0.35099238757E+03 -0.80798434836E+03  0.23063403964E+04  0.24735868775E+04  0.15294330000E+03 0.  0.
<mgrwt>
<rscale>  0 0.89410627E+03</rscale>
<asrwt>0</asrwt>
<pdfrwt beam="1">  1        2 0.39529784E+00 0.89410627E+03</pdfrwt>
<pdfrwt beam="2">  1       -2 0.18418484E+00 0.89410627E+03</pdfrwt>
<totfact> 0.55260055E-01</totfact>
</mgrwt>
</event>
<event>
 4    1  0.5387657E-008  0.2665705E+03  0.7818608E-02  0.1103259E+00
          2   -1    0    0  501    0  0.00000000000E+00  0.00000000000E+00  0.53525166241E+03  0.53525166241E+03  0.25500000000E-02 0. -1.
         -2   -1    0    0    0  501 -0.00000000000E+00 -0.00000000000E+00 -0.33626588301E+03  0.33626588302E+03  0.25500000000E-02 0.  1.
    8880022    1    1    2    0    0 -0.85197089612E+02 -0.20102149855E+03  0.43848809864E+03  0.51315850634E+03  0.15294330000E+03 0.  0.
    8880022    1    1    2    0    0  0.85197089612E+02  0.20102149855E+03 -0.23950231924E+03  0.35835903909E+03  0.15294330000E+03 0.  1.
<mgrwt>
<rscale>  0 0.26657052E+03</rscale>
<asrwt>0</asrwt>
<pdfrwt beam="1">  1        2 0.82346410E-01 0.26657052E+03</pdfrwt>
<pdfrwt beam="2">  1       -2 0.51733212E-01 0.26657052E+03</pdfrwt>
<totfact> 0.20854993E+02</totfact>
</mgrwt>
</event>
<event>
 4    1  0.5387657E-008  0.2258889E+03  0.7818608E-02  0.1129567E+00
         -2   -1    0    0    0  501 -0.00000000000E+00  0.00000000000E+00  0.10109275300E+04  0.10109275300E+04  0.25500000000E-02 0.  1.
          2   -1    0    0  501    0  0.00000000000E+00 -0.00000000000E+00 -0.33957508337E+03  0.33957508338E+03  0.25500000000E-02 0. -1.
    8880022    1    1    2    0    0  0.13463123494E+03 -0.97511852045E+02 -0.28737279455E+03  0.36552552137E+03  0.15294330000E+03 0. -1.
    8880022    1    1    2    0    0 -0.13463123494E+03  0.97511852045E+02  0.95872524113E+03  0.98497709197E+03  0.15294330000E+03 0.  0.
<mgrwt>
<rscale>  0 0.22588887E+03</rscale>
<asrwt>0</asrwt>
<pdfrwt beam="1">  1        2 0.52242321E-01 0.22588887E+03</pdfrwt>
<pdfrwt beam="2">  1       -2 0.15552731E+00 0.22588887E+03</pdfrwt>
<totfact> 0.28121770E+01</totfact>
</mgrwt>
</event>
<event>
 4    1  0.5387657E-008  0.5963419E+03  0.7818608E-02  0.9913025E-01
          2   -1    0    0  501    0  0.00000000000E+00  0.00000000000E+00  0.77951676433E+03  0.77951676434E+03  0.25500000000E-02 0. -1.
         -2   -1    0    0    0  501 -0.00000000000E+00 -0.00000000000E+00 -0.59560669375E+03  0.59560669376E+03  0.25500000000E-02 0.  1.
    8880022    1    1    2    0    0  0.37755444818E+03  0.43552798947E+03  0.42458207090E+03  0.73204752502E+03  0.15294330000E+03 0.  0.
    8880022    1    1    2    0    0 -0.37755444818E+03 -0.43552798947E+03 -0.24067200032E+03  0.64307593307E+03  0.15294330000E+03 0.  0.
<mgrwt>
<rscale>  0 0.59634189E+03</rscale>
<asrwt>0</asrwt>
<pdfrwt beam="1">  1        2 0.11992566E+00 0.59634189E+03</pdfrwt>
<pdfrwt beam="2">  1       -2 0.91631799E-01 0.59634189E+03</pdfrwt>
<totfact> 0.37176094E+01</totfact>
</mgrwt>
</event>
<event>
 4    1  0.5387657E-008  0.3838923E+03  0.7818608E-02  0.1049504E+00
         -2   -1    0    0    0  501 -0.00000000000E+00  0.00000000000E+00  0.23414986624E+03  0.23414986626E+03  0.25500000000E-02 0.  1.
          2   -1    0    0  501    0  0.00000000000E+00 -0.00000000000E+00 -0.15710065823E+04  0.15710065823E+04  0.25500000000E-02 0. -1.
    8880022    1    1    2    0    0  0.63528485338E+02 -0.34633193805E+03  0.30336694025E+02  0.38508914264E+03  0.15294330000E+03 0.  0.
    8880022    1    1    2    0    0 -0.63528485338E+02  0.34633193805E+03 -0.13671934101E+04  0.14200673059E+04  0.15294330000E+03 0.  0.
<mgrwt>
<rscale>  0 0.38389235E+03</rscale>
<asrwt>0</asrwt>
<pdfrwt beam="1">  1        2 0.24169331E+00 0.38389235E+03</pdfrwt>
<pdfrwt beam="2">  1       -2 0.36023057E-01 0.38389235E+03</pdfrwt>
<totfact> 0.89822658E+01</totfact>
</mgrwt>
</event>
<event>
 4    1  0.5387657E-008  0.3022308E+03  0.7818608E-02  0.1084131E+00
         -2   -1    0    0    0  501 -0.00000000000E+00  0.00000000000E+00  0.92696184916E+02  0.92696184951E+02  0.25500000000E-02 0.  1.
          2   -1    0    0  501    0  0.00000000000E+00 -0.00000000000E+00 -0.13410277244E+04  0.13410277244E+04  0.25500000000E-02 0. -1.
    8880022    1    1    2    0    0  0.23263478050E+03  0.11761330107E+03 -0.99332191132E+03  0.10382831513E+04  0.15294330000E+03 0. -1.
    8880022    1    1    2    0    0 -0.23263478050E+03 -0.11761330107E+03 -0.25500962818E+03  0.39544075810E+03  0.15294330000E+03 0.  0.
<mgrwt>
<rscale>  0 0.30223084E+03</rscale>
<asrwt>0</asrwt>
<pdfrwt beam="1">  1        2 0.20631194E+00 0.30223084E+03</pdfrwt>
<pdfrwt beam="2">  1       -2 0.14260953E-01 0.30223084E+03</pdfrwt>
<totfact> 0.62032871E+02</totfact>
</mgrwt>
</event>
<event>
 4    1  0.5387657E-008  0.2399989E+03  0.7818608E-02  0.1119794E+00
         -2   -1    0    0    0  501 -0.00000000000E+00  0.00000000000E+00  0.28076215564E+03  0.28076215565E+03  0.25500000000E-02 0.  1.
          2   -1    0    0  501    0  0.00000000000E+00 -0.00000000000E+00 -0.28136180701E+04  0.28136180701E+04  0.25500000000E-02 0. -1.
    8880022    1    1    2    0    0  0.25560381055E+02 -0.18317885557E+03 -0.27561441509E+04  0.27665737040E+04  0.15294330000E+03 0. -1.
    8880022    1    1    2    0    0 -0.25560381055E+02  0.18317885557E+03  0.22328823638E+03  0.32780652179E+03  0.15294330000E+03 0.  0.
<mgrwt>
<rscale>  0 0.23999892E+03</rscale>
<asrwt>0</asrwt>
<pdfrwt beam="1">  1        2 0.43286430E+00 0.23999892E+03</pdfrwt>
<pdfrwt beam="2">  1       -2 0.43194180E-01 0.23999892E+03</pdfrwt>
<totfact> 0.14165461E+01</totfact>
</mgrwt>
</event>
<event>
 4    1  0.5387657E-008  0.5984081E+03  0.7818608E-02  0.9908714E-01
          2   -1    0    0  501    0  0.00000000000E+00  0.00000000000E+00  0.81662067280E+03  0.81662067280E+03  0.25500000000E-02 0. -1.
         -2   -1    0    0    0  501 -0.00000000000E+00 -0.00000000000E+00 -0.64064094933E+03  0.64064094933E+03  0.25500000000E-02 0.  1.
    8880022    1    1    2    0    0 -0.30425068675E+03  0.49206917716E+03  0.49727126876E+03  0.77805586127E+03  0.15294330000E+03 0.  0.
    8880022    1    1    2    0    0  0.30425068675E+03 -0.49206917716E+03 -0.32129154529E+03  0.67920576086E+03  0.15294330000E+03 0.  0.
<mgrwt>
<rscale>  0 0.59840806E+03</rscale>
<asrwt>0</asrwt>
<pdfrwt beam="1">  1        2 0.12563395E+00 0.59840806E+03</pdfrwt>
<pdfrwt beam="2">  1       -2 0.98560146E-01 0.59840806E+03</pdfrwt>
<totfact> 0.29504346E+01</totfact>
</mgrwt>
</event>
<event>
 4    1  0.5387657E-008  0.1229528E+04  0.7818608E-02  0.9087396E-01
          2   -1    0    0  501    0  0.00000000000E+00  0.00000000000E+00  0.16117883439E+04  0.16117883439E+04  0.25500000000E-02 0. -1.
         -2   -1    0    0    0  501 -0.00000000000E+00 -0.00000000000E+00 -0.10473227192E+04  0.10473227192E+04  0.25500000000E-02 0.  1.
    8880022    1    1    2    0    0  0.93549456789E+03  0.78306928314E+03 -0.14746889336E+03  0.12383401456E+04  0.15294330000E+03 0.  0.
    8880022    1    1    2    0    0 -0.93549456789E+03 -0.78306928314E+03  0.71193451810E+03  0.14207709174E+04  0.15294330000E+03 0.  0.
<mgrwt>
<rscale>  0 0.12295281E+04</rscale>
<asrwt>0</asrwt>
<pdfrwt beam="1">  1        2 0.24796744E+00 0.12295281E+04</pdfrwt>
<pdfrwt beam="2">  1       -2 0.16112657E+00 0.12295281E+04</pdfrwt>
<totfact> 0.26283447E+00</totfact>
</mgrwt>
</event>
<event>
 4    1  0.5387657E-008  0.1081443E+04  0.7818608E-02  0.9223470E-01
         -2   -1    0    0    0  501 -0.00000000000E+00  0.00000000000E+00  0.10382130030E+04  0.10382130030E+04  0.25500000000E-02 0.  1.
          2   -1    0    0  501    0  0.00000000000E+00 -0.00000000000E+00 -0.16282695854E+04  0.16282695854E+04  0.25500000000E-02 0. -1.
    8880022    1    1    2    0    0 -0.10110192156E+04 -0.35208861788E+03  0.44510488991E+03  0.11694598177E+04  0.15294330000E+03 0.  0.
    8880022    1    1    2    0    0  0.10110192156E+04  0.35208861788E+03 -0.10351614723E+04  0.14970227707E+04  0.15294330000E+03 0.  0.
<mgrwt>
<rscale>  0 0.10814425E+04</rscale>
<asrwt>0</asrwt>
<pdfrwt beam="1">  1        2 0.25050301E+00 0.10814425E+04</pdfrwt>
<pdfrwt beam="2">  1       -2 0.15972508E+00 0.10814425E+04</pdfrwt>
<totfact> 0.26775996E+00</totfact>
</mgrwt>
</event>
<event>
 4    1  0.5387657E-008  0.5008099E+03  0.7818608E-02  0.1013568E+00
         -2   -1    0    0    0  501 -0.00000000000E+00  0.00000000000E+00  0.49066687818E+03  0.49066687819E+03  0.25500000000E-02 0.  1.
          2   -1    0    0  501    0  0.00000000000E+00 -0.00000000000E+00 -0.78332238016E+03  0.78332238017E+03  0.25500000000E-02 0. -1.
    8880022    1    1    2    0    0  0.21928717938E+03  0.42347610886E+03 -0.52179971318E+03  0.72324648323E+03  0.15294330000E+03 0.  0.
    8880022    1    1    2    0    0 -0.21928717938E+03 -0.42347610886E+03  0.22914421120E+03  0.55074277513E+03  0.15294330000E+03 0.  0.
<mgrwt>
<rscale>  0 0.50080988E+03</rscale>
<asrwt>0</asrwt>
<pdfrwt beam="1">  1        2 0.12051114E+00 0.50080988E+03</pdfrwt>
<pdfrwt beam="2">  1       -2 0.75487212E-01 0.50080988E+03</pdfrwt>
<totfact> 0.57814200E+01</totfact>
</mgrwt>
</event>
<event>
 4    1  0.5387657E-008  0.1647503E+03  0.7818608E-02  0.1183436E+00
          2   -1    0    0  501    0  0.00000000000E+00  0.00000000000E+00  0.17384381429E+04  0.17384381429E+04  0.25500000000E-02 0. -1.
         -2   -1    0    0    0  501 -0.00000000000E+00 -0.00000000000E+00 -0.14481025616E+03  0.14481025619E+03  0.25500000000E-02 0.  1.
    8880022    1    1    2    0    0 -0.77691581339E+01 -0.60750820536E+02  0.16862283706E+04  0.16942575934E+04  0.15294330000E+03 0. -1.
    8880022    1    1    2    0    0  0.77691581339E+01  0.60750820536E+02 -0.92600483843E+02  0.18899080569E+03  0.15294330000E+03 0.  0.
<mgrwt>
<rscale>  0 0.16475034E+03</rscale>
<asrwt>0</asrwt>
<pdfrwt beam="1">  1        2 0.26745203E+00 0.16475034E+03</pdfrwt>
<pdfrwt beam="2">  1       -2 0.22278500E-01 0.16475034E+03</pdfrwt>
<totfact> 0.18474322E+02</totfact>
</mgrwt>
</event>
<event>
 4    1  0.5387657E-008  0.5352471E+03  0.7818608E-02  0.1004967E+00
          2   -1    0    0  501    0  0.00000000000E+00  0.00000000000E+00  0.16341969982E+04  0.16341969982E+04  0.25500000000E-02 0. -1.
         -2   -1    0    0    0  501 -0.00000000000E+00 -0.00000000000E+00 -0.70578921316E+03  0.70578921317E+03  0.25500000000E-02 0.  1.
    8880022    1    1    2    0    0  0.22502558092E+03  0.46093529177E+03 -0.55012868101E+03  0.76754874370E+03  0.15294330000E+03 0.  0.
    8880022    1    1    2    0    0 -0.22502558092E+03 -0.46093529177E+03  0.14785364660E+04  0.15724374676E+04  0.15294330000E+03 0.  0.
<mgrwt>
<rscale>  0 0.53524715E+03</rscale>
<asrwt>0</asrwt>
<pdfrwt beam="1">  1        2 0.25141492E+00 0.53524715E+03</pdfrwt>
<pdfrwt beam="2">  1       -2 0.10858296E+00 0.53524715E+03</pdfrwt>
<totfact> 0.77166006E+00</totfact>
</mgrwt>
</event>
<event>
 4    1  0.5387657E-008  0.5882634E+03  0.7818608E-02  0.9930059E-01
          2   -1    0    0  501    0  0.00000000000E+00  0.00000000000E+00  0.19618556345E+04  0.19618556345E+04  0.25500000000E-02 0. -1.
         -2   -1    0    0    0  501 -0.00000000000E+00 -0.00000000000E+00 -0.50437701619E+03  0.50437701620E+03  0.25500000000E-02 0.  1.
    8880022    1    1    2    0    0 -0.40336941079E+03 -0.39994415638E+03  0.17231230274E+04  0.18207709440E+04  0.15294330000E+03 0.  0.
    8880022    1    1    2    0    0  0.40336941079E+03  0.39994415638E+03 -0.26564440908E+03  0.64546170675E+03  0.15294330000E+03 0.  0.
<mgrwt>
<rscale>  0 0.58826343E+03</rscale>
<asrwt>0</asrwt>
<pdfrwt beam="1">  1        2 0.30182394E+00 0.58826343E+03</pdfrwt>
<pdfrwt beam="2">  1       -2 0.77596464E-01 0.58826343E+03</pdfrwt>
<totfact> 0.11039265E+01</totfact>
</mgrwt>
</event>
<event>
 4    1  0.5387657E-008  0.2285197E+03  0.7818608E-02  0.1127686E+00
         -2   -1    0    0    0  501 -0.00000000000E+00  0.00000000000E+00  0.59763261908E+03  0.59763261909E+03  0.25500000000E-02 0.  1.
          2   -1    0    0  501    0  0.00000000000E+00 -0.00000000000E+00 -0.21133550475E+03  0.21133550476E+03  0.25500000000E-02 0. -1.
    8880022    1    1    2    0    0 -0.63383925011E+02 -0.15751848936E+03 -0.11662744024E+03  0.25656034236E+03  0.15294330000E+03 0.  0.
    8880022    1    1    2    0    0  0.63383925011E+02  0.15751848936E+03  0.50292455457E+03  0.55240778149E+03  0.15294330000E+03 0.  1.
<mgrwt>
<rscale>  0 0.22851969E+03</rscale>
<asrwt>0</asrwt>
<pdfrwt beam="1">  1        2 0.32513155E-01 0.22851969E+03</pdfrwt>
<pdfrwt beam="2">  1       -2 0.91943480E-01 0.22851969E+03</pdfrwt>
<totfact> 0.16851401E+02</totfact>
</mgrwt>
</event>
<event>
 4    1  0.5387657E-008  0.2337470E+03  0.7818608E-02  0.1124030E+00
          2   -1    0    0  501    0  0.00000000000E+00  0.00000000000E+00  0.24455358130E+04  0.24455358130E+04  0.25500000000E-02 0. -1.
         -2   -1    0    0    0  501 -0.00000000000E+00 -0.00000000000E+00 -0.78275565476E+03  0.78275565477E+03  0.25500000000E-02 0.  1.
    8880022    1    1    2    0    0 -0.15907245722E+03 -0.77084068495E+02 -0.75955302498E+03  0.79470651881E+03  0.15294330000E+03 0.  0.
    8880022    1    1    2    0    0  0.15907245722E+03  0.77084068495E+02  0.24223331833E+04  0.24335849490E+04  0.15294330000E+03 0. -1.
<mgrwt>
<rscale>  0 0.23374699E+03</rscale>
<asrwt>0</asrwt>
<pdfrwt beam="1">  1        2 0.37623628E+00 0.23374699E+03</pdfrwt>
<pdfrwt beam="2">  1       -2 0.12042395E+00 0.23374699E+03</pdfrwt>
<totfact> 0.24683398E+00</totfact>
</mgrwt>
</event>
<event>
 4    1  0.5387657E-008  0.1083221E+04  0.7818608E-02  0.9221702E-01
         -2   -1    0    0    0  501 -0.00000000000E+00  0.00000000000E+00  0.75162346827E+03  0.75162346828E+03  0.25500000000E-02 0.  1.
          2   -1    0    0  501    0  0.00000000000E+00 -0.00000000000E+00 -0.15715072629E+04  0.15715072629E+04  0.25500000000E-02 0. -1.
    8880022    1    1    2    0    0 -0.13103986642E+03  0.10643327210E+04 -0.31546277354E+03  0.11282216103E+04  0.15294330000E+03 0.  1.
    8880022    1    1    2    0    0  0.13103986642E+03 -0.10643327210E+04 -0.50442102110E+03  0.11949091208E+04  0.15294330000E+03 0. -1.
<mgrwt>
<rscale>  0 0.10832208E+04</rscale>
<asrwt>0</asrwt>
<pdfrwt beam="1">  1        2 0.24177035E+00 0.10832208E+04</pdfrwt>
<pdfrwt beam="2">  1       -2 0.11563438E+00 0.10832208E+04</pdfrwt>
<totfact> 0.66386142E+00</totfact>
</mgrwt>
</event>
<event>
 4    1  0.5387657E-008  0.1072061E+04  0.7818608E-02  0.9232859E-01
          2   -1    0    0  501    0  0.00000000000E+00  0.00000000000E+00  0.13215839600E+04  0.13215839600E+04  0.25500000000E-02 0. -1.
         -2   -1    0    0    0  501 -0.00000000000E+00 -0.00000000000E+00 -0.13980776804E+04  0.13980776804E+04  0.25500000000E-02 0.  1.
    8880022    1    1    2    0    0  0.84027597752E+03  0.64796605830E+03 -0.87425795592E+03  0.13833446272E+04  0.15294330000E+03 0.  0.
    8880022    1    1    2    0    0 -0.84027597752E+03 -0.64796605830E+03  0.79776423558E+03  0.13363170132E+04  0.15294330000E+03 0.  0.
<mgrwt>
<rscale>  0 0.10720613E+04</rscale>
<asrwt>0</asrwt>
<pdfrwt beam="1">  1        2 0.20332061E+00 0.10720613E+04</pdfrwt>
<pdfrwt beam="2">  1       -2 0.21508887E+00 0.10720613E+04</pdfrwt>
<totfact> 0.16797687E+00</totfact>
</mgrwt>
</event>
<event>
 4    1  0.5387657E-008  0.1598476E+03  0.7818608E-02  0.1188869E+00
          2   -1    0    0  501    0  0.00000000000E+00  0.00000000000E+00  0.14165547240E+04  0.14165547240E+04  0.25500000000E-02 0. -1.
         -2   -1    0    0    0  501 -0.00000000000E+00 -0.00000000000E+00 -0.22552563547E+03  0.22552563549E+03  0.25500000000E-02 0.  1.
    8880022    1    1    2    0    0 -0.36631242371E+02  0.28596138599E+02  0.13830370760E+04  0.13922437982E+04  0.15294330000E+03 0. -1.
    8880022    1    1    2    0    0  0.36631242371E+02 -0.28596138599E+02 -0.19200798750E+03  0.24983656125E+03  0.15294330000E+03 0.  0.
<mgrwt>
<rscale>  0 0.15984755E+03</rscale>
<asrwt>0</asrwt>
<pdfrwt beam="1">  1        2 0.21793150E+00 0.15984755E+03</pdfrwt>
<pdfrwt beam="2">  1       -2 0.34696252E-01 0.15984755E+03</pdfrwt>
<totfact> 0.12359909E+02</totfact>
</mgrwt>
</event>
<event>
 4    1  0.5387657E-008  0.5286331E+03  0.7818608E-02  0.1006564E+00
          2   -1    0    0  501    0  0.00000000000E+00  0.00000000000E+00  0.86764138511E+03  0.86764138511E+03  0.25500000000E-02 0. -1.
         -2   -1    0    0    0  501 -0.00000000000E+00 -0.00000000000E+00 -0.44540088224E+03  0.44540088225E+03  0.25500000000E-02 0.  1.
    8880022    1    1    2    0    0  0.36999402723E+03  0.34520389367E+03 -0.13432986906E+03  0.54543329118E+03  0.15294330000E+03 0.  1.
    8880022    1    1    2    0    0 -0.36999402723E+03 -0.34520389367E+03  0.55657037192E+03  0.76760897618E+03  0.15294330000E+03 0.  0.
<mgrwt>
<rscale>  0 0.52863311E+03</rscale>
<asrwt>0</asrwt>
<pdfrwt beam="1">  1        2 0.13348329E+00 0.52863311E+03</pdfrwt>
<pdfrwt beam="2">  1       -2 0.68523213E-01 0.52863311E+03</pdfrwt>
<totfact> 0.62180806E+01</totfact>
</mgrwt>
</event>
<event>
 4    1  0.5387657E-008  0.6275198E+03  0.7818608E-02  0.9849901E-01
          2   -1    0    0  501    0  0.00000000000E+00  0.00000000000E+00  0.76105485613E+03  0.76105485613E+03  0.25500000000E-02 0. -1.
         -2   -1    0    0    0  501 -0.00000000000E+00 -0.00000000000E+00 -0.63349216847E+03  0.63349216847E+03  0.25500000000E-02 0.  1.
    8880022    1    1    2    0    0 -0.59254694420E+03 -0.13884375766E+03  0.36225508579E+03  0.72457564844E+03  0.15294330000E+03 0.  0.
    8880022    1    1    2    0    0  0.59254694420E+03  0.13884375766E+03 -0.23469239813E+03  0.66997137616E+03  0.15294330000E+03 0.  0.
<mgrwt>
<rscale>  0 0.62751982E+03</rscale>
<asrwt>0</asrwt>
<pdfrwt beam="1">  1        2 0.11708536E+00 0.62751982E+03</pdfrwt>
<pdfrwt beam="2">  1       -2 0.97460334E-01 0.62751982E+03</pdfrwt>
<totfact> 0.33115714E+01</totfact>
</mgrwt>
</event>
<event>
 4    1  0.5387657E-008  0.4857647E+03  0.7818608E-02  0.1017563E+00
         -2   -1    0    0    0  501 -0.00000000000E+00  0.00000000000E+00  0.10999664919E+04  0.10999664919E+04  0.25500000000E-02 0.  1.
          2   -1    0    0  501    0  0.00000000000E+00 -0.00000000000E+00 -0.27312136251E+03  0.27312136252E+03  0.25500000000E-02 0. -1.
    8880022    1    1    2    0    0  0.41549985070E+02  0.45918325488E+03  0.95416123849E+02  0.49504702052E+03  0.15294330000E+03 0.  0.
    8880022    1    1    2    0    0 -0.41549985070E+02 -0.45918325488E+03  0.73142900550E+03  0.87804083386E+03  0.15294330000E+03 0.  0.
<mgrwt>
<rscale>  0 0.48576467E+03</rscale>
<asrwt>0</asrwt>
<pdfrwt beam="1">  1        2 0.42018672E-01 0.48576467E+03</pdfrwt>
<pdfrwt beam="2">  1       -2 0.16922561E+00 0.48576467E+03</pdfrwt>
<totfact> 0.27298780E+01</totfact>
</mgrwt>
</event>
<event>
 4    1  0.5387657E-008  0.8298932E+03  0.7818608E-02  0.9517728E-01
         -2   -1    0    0    0  501 -0.00000000000E+00  0.00000000000E+00  0.12851943719E+04  0.12851943719E+04  0.25500000000E-02 0.  1.
          2   -1    0    0  501    0  0.00000000000E+00 -0.00000000000E+00 -0.96043776541E+03  0.96043776542E+03  0.25500000000E-02 0. -1.
    8880022    1    1    2    0    0 -0.29102556917E+03  0.76199421962E+03  0.90889120669E+03  0.12307745331E+04  0.15294330000E+03 0.  0.
    8880022    1    1    2    0    0  0.29102556917E+03 -0.76199421962E+03 -0.58413460023E+03  0.10148576042E+04  0.15294330000E+03 0.  0.
<mgrwt>
<rscale>  0 0.82989320E+03</rscale>
<asrwt>0</asrwt>
<pdfrwt beam="1">  1        2 0.14775966E+00 0.82989320E+03</pdfrwt>
<pdfrwt beam="2">  1       -2 0.19772221E+00 0.82989320E+03</pdfrwt>
<totfact> 0.37242050E+00</totfact>
</mgrwt>
</event>
<event>
 4    1  0.5387657E-008  0.3715612E+03  0.7818608E-02  0.1054098E+00
         -2   -1    0    0    0  501 -0.00000000000E+00  0.00000000000E+00  0.96660080261E+03  0.96660080261E+03  0.25500000000E-02 0.  1.
          2   -1    0    0  501    0  0.00000000000E+00 -0.00000000000E+00 -0.10261833425E+04  0.10261833425E+04  0.25500000000E-02 0. -1.
    8880022    1    1    2    0    0 -0.33388711207E+03 -0.56439814359E+02  0.89466312301E+03  0.96875167765E+03  0.15294330000E+03 0.  0.
    8880022    1    1    2    0    0  0.33388711207E+03  0.56439814359E+02 -0.95424566294E+03  0.10240324675E+04  0.15294330000E+03 0.  0.
<mgrwt>
<rscale>  0 0.37156118E+03</rscale>
<asrwt>0</asrwt>
<pdfrwt beam="1">  1        2 0.15787436E+00 0.37156118E+03</pdfrwt>
<pdfrwt beam="2">  1       -2 0.14870782E+00 0.37156118E+03</pdfrwt>
<totfact> 0.80975340E+00</totfact>
</mgrwt>
</event>
<event>
 4    1  0.5387657E-008  0.3636544E+03  0.7818608E-02  0.1057146E+00
         -2   -1    0    0    0  501 -0.00000000000E+00  0.00000000000E+00  0.13625309306E+04  0.13625309306E+04  0.25500000000E-02 0.  1.
          2   -1    0    0  501    0  0.00000000000E+00 -0.00000000000E+00 -0.34074806879E+03  0.34074806880E+03  0.25500000000E-02 0. -1.
    8880022    1    1    2    0    0  0.29782755229E+03  0.14195650048E+03 -0.20931665603E+03  0.41959267682E+03  0.15294330000E+03 0.  0.
    8880022    1    1    2    0    0 -0.29782755229E+03 -0.14195650048E+03  0.12310995179E+04  0.12836863226E+04  0.15294330000E+03 0.  0.
<mgrwt>
<rscale>  0 0.36365444E+03</rscale>
<asrwt>0</asrwt>
<pdfrwt beam="1">  1        2 0.52422779E-01 0.36365444E+03</pdfrwt>
<pdfrwt beam="2">  1       -2 0.20962014E+00 0.36365444E+03</pdfrwt>
<totfact> 0.11799819E+01</totfact>
</mgrwt>
</event>
<event>
 4    1  0.5387657E-008  0.6820878E+03  0.7818608E-02  0.9748364E-01
         -2   -1    0    0    0  501 -0.00000000000E+00  0.00000000000E+00  0.29062873823E+03  0.29062873825E+03  0.25500000000E-02 0.  1.
          2   -1    0    0  501    0  0.00000000000E+00 -0.00000000000E+00 -0.43770999357E+04  0.43770999357E+04  0.25500000000E-02 0. -1.
    8880022    1    1    2    0    0 -0.23336239247E+03  0.62240993511E+03 -0.18451487503E+03  0.70660422138E+03  0.15294330000E+03 0.  0.
    8880022    1    1    2    0    0  0.23336239247E+03 -0.62240993511E+03 -0.39019563225E+04  0.39611244526E+04  0.15294330000E+03 0.  0.
<mgrwt>
<rscale>  0 0.68208781E+03</rscale>
<asrwt>0</asrwt>
<pdfrwt beam="1">  1        2 0.67339994E+00 0.68208781E+03</pdfrwt>
<pdfrwt beam="2">  1       -2 0.44712117E-01 0.68208781E+03</pdfrwt>
<totfact> 0.88288636E-01</totfact>
</mgrwt>
</event>
<event>
 4    1  0.5387657E-008  0.3428131E+03  0.7818608E-02  0.1065604E+00
         -2   -1    0    0    0  501 -0.00000000000E+00  0.00000000000E+00  0.27607996230E+03  0.27607996232E+03  0.25500000000E-02 0.  1.
          2   -1    0    0  501    0  0.00000000000E+00 -0.00000000000E+00 -0.10317084851E+04  0.10317084851E+04  0.25500000000E-02 0. -1.
    8880022    1    1    2    0    0  0.71496952787E+02 -0.29835778001E+03 -0.87897457099E+03  0.94346018921E+03  0.15294330000E+03 0.  0.
    8880022    1    1    2    0    0 -0.71496952787E+02  0.29835778001E+03  0.12334604816E+03  0.36432825825E+03  0.15294330000E+03 0.  1.
<mgrwt>
<rscale>  0 0.34281312E+03</rscale>
<asrwt>0</asrwt>
<pdfrwt beam="1">  1        2 0.15872438E+00 0.34281312E+03</pdfrwt>
<pdfrwt beam="2">  1       -2 0.42473841E-01 0.34281312E+03</pdfrwt>
<totfact> 0.13316520E+02</totfact>
</mgrwt>
</event>
<event>
 4    1  0.5387657E-008  0.3641184E+03  0.7818608E-02  0.1056965E+00
          2   -1    0    0  501    0  0.00000000000E+00  0.00000000000E+00  0.89577558267E+03  0.89577558268E+03  0.25500000000E-02 0. -1.
         -2   -1    0    0    0  501 -0.00000000000E+00 -0.00000000000E+00 -0.60183261408E+03  0.60183261409E+03  0.25500000000E-02 0.  1.
    8880022    1    1    2    0    0 -0.28110931928E+03 -0.17368961865E+03  0.79721233776E+03  0.87643008706E+03  0.15294330000E+03 0.  0.
    8880022    1    1    2    0    0  0.28110931928E+03  0.17368961865E+03 -0.50326936917E+03  0.62117810970E+03  0.15294330000E+03 0.  0.
<mgrwt>
<rscale>  0 0.36411837E+03</rscale>
<asrwt>0</asrwt>
<pdfrwt beam="1">  1        2 0.13781163E+00 0.36411837E+03</pdfrwt>
<pdfrwt beam="2">  1       -2 0.92589633E-01 0.36411837E+03</pdfrwt>
<totfact> 0.31179969E+01</totfact>
</mgrwt>
</event>
<event>
 4    1  0.5387657E-008  0.7797756E+03  0.7818608E-02  0.9589761E-01
         -2   -1    0    0    0  501 -0.00000000000E+00  0.00000000000E+00  0.23444940734E+03  0.23444940736E+03  0.25500000000E-02 0.  1.
          2   -1    0    0  501    0  0.00000000000E+00 -0.00000000000E+00 -0.28212316081E+04  0.28212316081E+04  0.25500000000E-02 0. -1.
    8880022    1    1    2    0    0  0.11355285934E+03 -0.75615080538E+03 -0.85933255271E+03  0.11603888924E+04  0.15294330000E+03 0.  0.
    8880022    1    1    2    0    0 -0.11355285934E+03  0.75615080538E+03 -0.17274496481E+04  0.18952921231E+04  0.15294330000E+03 0.  0.
<mgrwt>
<rscale>  0 0.77977557E+03</rscale>
<asrwt>0</asrwt>
<pdfrwt beam="1">  1        2 0.43403561E+00 0.77977557E+03</pdfrwt>
<pdfrwt beam="2">  1       -2 0.36069142E-01 0.77977557E+03</pdfrwt>
<totfact> 0.17042762E+01</totfact>
</mgrwt>
</event>
<event>
 4    1  0.5387657E-008  0.4850619E+03  0.7818608E-02  0.1017753E+00
         -2   -1    0    0    0  501 -0.00000000000E+00  0.00000000000E+00  0.78999006986E+03  0.78999006987E+03  0.25500000000E-02 0.  1.
          2   -1    0    0  501    0  0.00000000000E+00 -0.00000000000E+00 -0.66425670977E+03  0.66425670978E+03  0.25500000000E-02 0. -1.
    8880022    1    1    2    0    0  0.45963226774E+03  0.25131817849E+02  0.60291416266E+03  0.77381559196E+03  0.15294330000E+03 0.  1.
    8880022    1    1    2    0    0 -0.45963226774E+03 -0.25131817849E+02 -0.47718080257E+03  0.68043118768E+03  0.15294330000E+03 0.  0.
<mgrwt>
<rscale>  0 0.48506194E+03</rscale>
<asrwt>0</asrwt>
<pdfrwt beam="1">  1        2 0.10219334E+00 0.48506194E+03</pdfrwt>
<pdfrwt beam="2">  1       -2 0.12153693E+00 0.48506194E+03</pdfrwt>
<totfact> 0.23494980E+01</totfact>
</mgrwt>
</event>
<event>
 4    1  0.5387657E-008  0.2558198E+03  0.7818608E-02  0.1109681E+00
         -2   -1    0    0    0  501 -0.00000000000E+00  0.00000000000E+00  0.56868013487E+03  0.56868013488E+03  0.25500000000E-02 0.  1.
          2   -1    0    0  501    0  0.00000000000E+00 -0.00000000000E+00 -0.25624984281E+03  0.25624984282E+03  0.25500000000E-02 0. -1.
    8880022    1    1    2    0    0 -0.88132577222E+02 -0.18516152449E+03  0.46235933742E+03  0.52841267134E+03  0.15294330000E+03 0.  0.
    8880022    1    1    2    0    0  0.88132577222E+02  0.18516152449E+03 -0.14992904535E+03  0.29651730636E+03  0.15294330000E+03 0.  0.
<mgrwt>
<rscale>  0 0.25581985E+03</rscale>
<asrwt>0</asrwt>
<pdfrwt beam="1">  1        2 0.39423054E-01 0.25581985E+03</pdfrwt>
<pdfrwt beam="2">  1       -2 0.87489250E-01 0.25581985E+03</pdfrwt>
<totfact> 0.15261375E+02</totfact>
</mgrwt>
</event>
<event>
 4    1  0.5387657E-008  0.4209700E+03  0.7818608E-02  0.1036751E+00
         -2   -1    0    0    0  501 -0.00000000000E+00  0.00000000000E+00  0.34603006821E+03  0.34603006822E+03  0.25500000000E-02 0.  1.
          2   -1    0    0  501    0  0.00000000000E+00 -0.00000000000E+00 -0.11383233546E+04  0.11383233546E+04  0.25500000000E-02 0. -1.
    8880022    1    1    2    0    0 -0.16681519836E+03  0.35496020377E+03 -0.94660616515E+03  0.10359917671E+04  0.15294330000E+03 0.  0.
    8880022    1    1    2    0    0  0.16681519836E+03 -0.35496020377E+03  0.15431287880E+03  0.44836165563E+03  0.15294330000E+03 0.  0.
<mgrwt>
<rscale>  0 0.42096996E+03</rscale>
<asrwt>0</asrwt>
<pdfrwt beam="1">  1        2 0.17512667E+00 0.42096996E+03</pdfrwt>
<pdfrwt beam="2">  1       -2 0.53235396E-01 0.42096996E+03</pdfrwt>
<totfact> 0.72380821E+01</totfact>
</mgrwt>
</event>
<event>
 4    1  0.5387657E-008  0.7655190E+03  0.7818608E-02  0.9611313E-01
         -2   -1    0    0    0  501 -0.00000000000E+00  0.00000000000E+00  0.33988054492E+03  0.33988054493E+03  0.25500000000E-02 0.  1.
          2   -1    0    0  501    0  0.00000000000E+00 -0.00000000000E+00 -0.38287324331E+04  0.38287324331E+04  0.25500000000E-02 0. -1.
    8880022    1    1    2    0    0  0.27371937349E+03 -0.69835904025E+03 -0.32897256244E+04  0.33776195732E+04  0.15294330000E+03 0.  0.
    8880022    1    1    2    0    0 -0.27371937349E+03  0.69835904025E+03 -0.19912626379E+03  0.79099340482E+03  0.15294330000E+03 0.  0.
<mgrwt>
<rscale>  0 0.76551897E+03</rscale>
<asrwt>0</asrwt>
<pdfrwt beam="1">  1        2 0.58903573E+00 0.76551897E+03</pdfrwt>
<pdfrwt beam="2">  1       -2 0.52289317E-01 0.76551897E+03</pdfrwt>
<totfact> 0.17703281E+00</totfact>
</mgrwt>
</event>
<event>
 4    1  0.5387657E-008  0.8294287E+03  0.7818608E-02  0.9518371E-01
          2   -1    0    0  501    0  0.00000000000E+00  0.00000000000E+00  0.10949058090E+04  0.10949058090E+04  0.25500000000E-02 0. -1.
         -2   -1    0    0    0  501 -0.00000000000E+00 -0.00000000000E+00 -0.10368558748E+04  0.10368558748E+04  0.25500000000E-02 0.  1.
    8880022    1    1    2    0    0 -0.54927823706E+03 -0.60237336113E+03 -0.64003374158E+03  0.10476617256E+04  0.15294330000E+03 0.  0.
    8880022    1    1    2    0    0  0.54927823706E+03  0.60237336113E+03  0.69808367579E+03  0.10840999582E+04  0.15294330000E+03 0.  0.
<mgrwt>
<rscale>  0 0.82942866E+03</rscale>
<asrwt>0</asrwt>
<pdfrwt beam="1">  1        2 0.16844705E+00 0.82942866E+03</pdfrwt>
<pdfrwt beam="2">  1       -2 0.15951629E+00 0.82942866E+03</pdfrwt>
<totfact> 0.56296989E+00</totfact>
</mgrwt>
</event>
<event>
 4    1  0.5387657E-008  0.3584835E+03  0.7818608E-02  0.1059186E+00
         -2   -1    0    0    0  501 -0.00000000000E+00  0.00000000000E+00  0.77306022575E+03  0.77306022576E+03  0.25500000000E-02 0.  1.
          2   -1    0    0  501    0  0.00000000000E+00 -0.00000000000E+00 -0.10178195438E+04  0.10178195438E+04  0.25500000000E-02 0. -1.
    8880022    1    1    2    0    0 -0.25857112327E+03 -0.19560095318E+03  0.69667838787E+03  0.78349932215E+03  0.15294330000E+03 0.  0.
    8880022    1    1    2    0    0  0.25857112327E+03  0.19560095318E+03 -0.94143770587E+03  0.10073804474E+04  0.15294330000E+03 0.  0.
<mgrwt>
<rscale>  0 0.35848349E+03</rscale>
<asrwt>0</asrwt>
<pdfrwt beam="1">  1        2 0.15658762E+00 0.35848349E+03</pdfrwt>
<pdfrwt beam="2">  1       -2 0.11893234E+00 0.35848349E+03</pdfrwt>
<totfact> 0.14432635E+01</totfact>
</mgrwt>
</event>
<event>
 4    1  0.5387657E-008  0.4688673E+03  0.7818608E-02  0.1022240E+00
          2   -1    0    0  501    0  0.00000000000E+00  0.00000000000E+00  0.13071533425E+03  0.13071533428E+03  0.25500000000E-02 0. -1.
         -2   -1    0    0    0  501 -0.00000000000E+00 -0.00000000000E+00 -0.17343292614E+04  0.17343292614E+04  0.25500000000E-02 0.  1.
    8880022    1    1    2    0    0  0.44155149662E+02  0.44101608946E+03 -0.63950985382E+03  0.79297501509E+03  0.15294330000E+03 0.  0.
    8880022    1    1    2    0    0 -0.44155149662E+02 -0.44101608946E+03 -0.96410407328E+03  0.10720695805E+04  0.15294330000E+03 0.  0.
<mgrwt>
<rscale>  0 0.46886727E+03</rscale>
<asrwt>0</asrwt>
<pdfrwt beam="1">  1        2 0.20110053E-01 0.46886727E+03</pdfrwt>
<pdfrwt beam="2">  1       -2 0.26681987E+00 0.46886727E+03</pdfrwt>
<totfact> 0.15235456E+01</totfact>
</mgrwt>
</event>
<event>
 4    1  0.5387657E-008  0.6078863E+03  0.7818608E-02  0.9889178E-01
          2   -1    0    0  501    0  0.00000000000E+00  0.00000000000E+00  0.12365161065E+04  0.12365161065E+04  0.25500000000E-02 0. -1.
         -2   -1    0    0    0  501 -0.00000000000E+00 -0.00000000000E+00 -0.68420147071E+03  0.68420147072E+03  0.25500000000E-02 0.  1.
    8880022    1    1    2    0    0  0.40720501393E+03  0.42463885001E+03  0.99688841965E+03  0.11676096311E+04  0.15294330000E+03 0.  0.
    8880022    1    1    2    0    0 -0.40720501393E+03 -0.42463885001E+03 -0.44457378384E+03  0.75310794618E+03  0.15294330000E+03 0.  0.
<mgrwt>
<rscale>  0 0.60788628E+03</rscale>
<asrwt>0</asrwt>
<pdfrwt beam="1">  1        2 0.19023324E+00 0.60788628E+03</pdfrwt>
<pdfrwt beam="2">  1       -2 0.10526177E+00 0.60788628E+03</pdfrwt>
<totfact> 0.13686949E+01</totfact>
</mgrwt>
</event>
<event>
 4    1  0.5387657E-008  0.4869043E+03  0.7818608E-02  0.1017255E+00
          2   -1    0    0  501    0  0.00000000000E+00  0.00000000000E+00  0.42243351357E+03  0.42243351358E+03  0.25500000000E-02 0. -1.
         -2   -1    0    0    0  501 -0.00000000000E+00 -0.00000000000E+00 -0.93201007295E+03  0.93201007295E+03  0.25500000000E-02 0.  1.
    8880022    1    1    2    0    0  0.28734043018E+03  0.36210438179E+03  0.17236915269E+03  0.51651416626E+03  0.15294330000E+03 0.  0.
    8880022    1    1    2    0    0 -0.28734043018E+03 -0.36210438179E+03 -0.68194571207E+03  0.83792942027E+03  0.15294330000E+03 0.  0.
<mgrwt>
<rscale>  0 0.48690426E+03</rscale>
<asrwt>0</asrwt>
<pdfrwt beam="1">  1        2 0.64989772E-01 0.48690426E+03</pdfrwt>
<pdfrwt beam="2">  1       -2 0.14338616E+00 0.48690426E+03</pdfrwt>
<totfact> 0.26195574E+01</totfact>
</mgrwt>
</event>
<event>
 4    1  0.5387657E-008  0.3393105E+03  0.7818608E-02  0.1067090E+00
          2   -1    0    0  501    0  0.00000000000E+00  0.00000000000E+00  0.16397898421E+04  0.16397898421E+04  0.25500000000E-02 0. -1.
         -2   -1    0    0    0  501 -0.00000000000E+00 -0.00000000000E+00 -0.91027544730E+02  0.91027544766E+02  0.25500000000E-02 0.  1.
    8880022    1    1    2    0    0  0.26967819808E+03  0.13788996822E+03  0.11882254545E+04  0.12357230101E+04  0.15294330000E+03 0.  0.
    8880022    1    1    2    0    0 -0.26967819808E+03 -0.13788996822E+03  0.36053684282E+03  0.49509437676E+03  0.15294330000E+03 0.  0.
<mgrwt>
<rscale>  0 0.33931052E+03</rscale>
<asrwt>0</asrwt>
<pdfrwt beam="1">  1        2 0.25227536E+00 0.33931052E+03</pdfrwt>
<pdfrwt beam="2">  1       -2 0.14004237E-01 0.33931052E+03</pdfrwt>
<totfact> 0.43858772E+02</totfact>
</mgrwt>
</event>
<event>
 4    1  0.5387657E-008  0.6578511E+03  0.7818608E-02  0.9792158E-01
         -2   -1    0    0    0  501 -0.00000000000E+00  0.00000000000E+00  0.17715940076E+03  0.17715940078E+03  0.25500000000E-02 0.  1.
          2   -1    0    0  501    0  0.00000000000E+00 -0.00000000000E+00 -0.27417415927E+04  0.27417415927E+04  0.25500000000E-02 0. -1.
    8880022    1    1    2    0    0 -0.11270780416E+03  0.62982006294E+03 -0.80039117152E+03  0.10360473161E+04  0.15294330000E+03 0.  0.
    8880022    1    1    2    0    0  0.11270780416E+03 -0.62982006294E+03 -0.17641910204E+04  0.18828536773E+04  0.15294330000E+03 0.  0.
<mgrwt>
<rscale>  0 0.65785106E+03</rscale>
<asrwt>0</asrwt>
<pdfrwt beam="1">  1        2 0.42180637E+00 0.65785106E+03</pdfrwt>
<pdfrwt beam="2">  1       -2 0.27255294E-01 0.65785106E+03</pdfrwt>
<totfact> 0.32689150E+01</totfact>
</mgrwt>
</event>
<event>
 4    1  0.5387657E-008  0.4300546E+03  0.7818608E-02  0.1033843E+00
         -2   -1    0    0    0  501 -0.00000000000E+00  0.00000000000E+00  0.41763313091E+03  0.41763313092E+03  0.25500000000E-02 0.  1.
          2   -1    0    0  501    0  0.00000000000E+00 -0.00000000000E+00 -0.50803995630E+03  0.50803995631E+03  0.25500000000E-02 0. -1.
    8880022    1    1    2    0    0  0.36771662757E+03  0.16229540559E+03 -0.21100317492E+03  0.47902954994E+03  0.15294330000E+03 0. -1.
    8880022    1    1    2    0    0 -0.36771662757E+03 -0.16229540559E+03  0.12059634953E+03  0.44664353729E+03  0.15294330000E+03 0.  0.
<mgrwt>
<rscale>  0 0.43005461E+03</rscale>
<asrwt>0</asrwt>
<pdfrwt beam="1">  1        2 0.78159993E-01 0.43005461E+03</pdfrwt>
<pdfrwt beam="2">  1       -2 0.64251251E-01 0.43005461E+03</pdfrwt>
<totfact> 0.13937051E+02</totfact>
</mgrwt>
</event>
<event>
 4    1  0.5387657E-008  0.8004257E+03  0.7818608E-02  0.9559401E-01
          2   -1    0    0  501    0  0.00000000000E+00  0.00000000000E+00  0.16113874191E+04  0.16113874191E+04  0.25500000000E-02 0. -1.
         -2   -1    0    0    0  501 -0.00000000000E+00 -0.00000000000E+00 -0.51634419662E+03  0.51634419662E+03  0.25500000000E-02 0.  1.
    8880022    1    1    2    0    0  0.27569178328E+03 -0.73571989010E+03  0.10577099312E+04  0.13264357005E+04  0.15294330000E+03 0.  0.
    8880022    1    1    2    0    0 -0.27569178328E+03  0.73571989010E+03  0.37333291267E+02  0.80129591519E+03  0.15294330000E+03 0.  0.
<mgrwt>
<rscale>  0 0.80042574E+03</rscale>
<asrwt>0</asrwt>
<pdfrwt beam="1">  1        2 0.24790575E+00 0.80042574E+03</pdfrwt>
<pdfrwt beam="2">  1       -2 0.79437570E-01 0.80042574E+03</pdfrwt>
<totfact> 0.15739965E+01</totfact>
</mgrwt>
</event>
<event>
 4    1  0.5387657E-008  0.4790575E+03  0.7818608E-02  0.1019395E+00
          2   -1    0    0  501    0  0.00000000000E+00  0.00000000000E+00  0.24793402202E+04  0.24793402202E+04  0.25500000000E-02 0. -1.
         -2   -1    0    0    0  501 -0.00000000000E+00 -0.00000000000E+00 -0.17293080278E+03  0.17293080280E+03  0.25500000000E-02 0.  1.
    8880022    1    1    2    0    0 -0.16842469618E+03  0.42158935184E+03  0.24915617786E+03  0.53997677158E+03  0.15294330000E+03 0.  0.
    8880022    1    1    2    0    0  0.16842469618E+03 -0.42158935184E+03  0.20572532396E+04  0.21122942514E+04  0.15294330000E+03 0.  0.
<mgrwt>
<rscale>  0 0.47905753E+03</rscale>
<asrwt>0</asrwt>
<pdfrwt beam="1">  1        2 0.38143696E+00 0.47905753E+03</pdfrwt>
<pdfrwt beam="2">  1       -2 0.26604739E-01 0.47905753E+03</pdfrwt>
<totfact> 0.49859924E+01</totfact>
</mgrwt>
</event>
<event>
 4    1  0.5387657E-008  0.6143485E+03  0.7818608E-02  0.9876077E-01
          2   -1    0    0  501    0  0.00000000000E+00  0.00000000000E+00  0.32585405851E+04  0.32585405851E+04  0.25500000000E-02 0. -1.
         -2   -1    0    0    0  501 -0.00000000000E+00 -0.00000000000E+00 -0.28316808251E+03  0.28316808252E+03  0.25500000000E-02 0.  1.
    8880022    1    1    2    0    0 -0.45698520096E+03 -0.38104719529E+03  0.28490153442E+04  0.29145003900E+04  0.15294330000E+03 0.  0.
    8880022    1    1    2    0    0  0.45698520096E+03  0.38104719529E+03  0.12635715833E+03  0.62720827754E+03  0.15294330000E+03 0.  0.
<mgrwt>
<rscale>  0 0.61434851E+03</rscale>
<asrwt>0</asrwt>
<pdfrwt beam="1">  1        2 0.50131392E+00 0.61434851E+03</pdfrwt>
<pdfrwt beam="2">  1       -2 0.43564322E-01 0.61434851E+03</pdfrwt>
<totfact> 0.65581927E+00</totfact>
</mgrwt>
</event>
<event>
 4    1  0.5387657E-008  0.4941820E+03  0.7818608E-02  0.1015309E+00
          2   -1    0    0  501    0  0.00000000000E+00  0.00000000000E+00  0.49122448699E+03  0.49122448700E+03  0.25500000000E-02 0. -1.
         -2   -1    0    0    0  501 -0.00000000000E+00 -0.00000000000E+00 -0.11283708495E+04  0.11283708495E+04  0.25500000000E-02 0.  1.
    8880022    1    1    2    0    0 -0.22817975527E+03 -0.41080192268E+03  0.28710053247E+03  0.57152654282E+03  0.15294330000E+03 0.  0.
    8880022    1    1    2    0    0  0.22817975527E+03  0.41080192268E+03 -0.92424689499E+03  0.10480687937E+04  0.15294330000E+03 0.  1.
<mgrwt>
<rscale>  0 0.49418202E+03</rscale>
<asrwt>0</asrwt>
<pdfrwt beam="1">  1        2 0.75572998E-01 0.49418202E+03</pdfrwt>
<pdfrwt beam="2">  1       -2 0.17359551E+00 0.49418202E+03</pdfrwt>
<totfact> 0.13234176E+01</totfact>
</mgrwt>
</event>
<event>
 4    1  0.5387657E-008  0.5116651E+03  0.7818608E-02  0.1010778E+00
          2   -1    0    0  501    0  0.00000000000E+00  0.00000000000E+00  0.11620050981E+04  0.11620050981E+04  0.25500000000E-02 0. -1.
         -2   -1    0    0    0  501 -0.00000000000E+00 -0.00000000000E+00 -0.36848327989E+03  0.36848327990E+03  0.25500000000E-02 0.  1.
    8880022    1    1    2    0    0 -0.48822388712E+03 -0.68515231782E+01 -0.80257849662E+02  0.51792130944E+03  0.15294330000E+03 0.  0.
    8880022    1    1    2    0    0  0.48822388712E+03  0.68515231782E+01  0.87377966787E+03  0.10125670686E+04  0.15294330000E+03 0.  0.
<mgrwt>
<rscale>  0 0.51166509E+03</rscale>
<asrwt>0</asrwt>
<pdfrwt beam="1">  1        2 0.17877002E+00 0.51166509E+03</pdfrwt>
<pdfrwt beam="2">  1       -2 0.56689735E-01 0.51166509E+03</pdfrwt>
<totfact> 0.60790936E+01</totfact>
</mgrwt>
</event>
<event>
 4    1  0.5387657E-008  0.1369785E+04  0.7818608E-02  0.8975985E-01
         -2   -1    0    0    0  501 -0.00000000000E+00  0.00000000000E+00  0.17695495216E+04  0.17695495216E+04  0.25500000000E-02 0.  1.
          2   -1    0    0  501    0  0.00000000000E+00 -0.00000000000E+00 -0.18796461279E+04  0.18796461279E+04  0.25500000000E-02 0. -1.
    8880022    1    1    2    0    0  0.13442132726E+04 -0.21449903677E+03  0.11495831633E+04  0.17882539701E+04  0.15294330000E+03 0.  0.
    8880022    1    1    2    0    0 -0.13442132726E+04  0.21449903677E+03 -0.12596797696E+04  0.18609416794E+04  0.15294330000E+03 0.  0.
<mgrwt>
<rscale>  0 0.13697850E+04</rscale>
<asrwt>0</asrwt>
<pdfrwt beam="1">  1        2 0.28917633E+00 0.13697850E+04</pdfrwt>
<pdfrwt beam="2">  1       -2 0.27223839E+00 0.13697850E+04</pdfrwt>
<totfact> 0.34860652E-01</totfact>
</mgrwt>
</event>
<event>
 4    1  0.5387657E-008  0.8952930E+03  0.7818608E-02  0.9431485E-01
          2   -1    0    0  501    0  0.00000000000E+00  0.00000000000E+00  0.35344856477E+04  0.35344856477E+04  0.25500000000E-02 0. -1.
         -2   -1    0    0    0  501 -0.00000000000E+00 -0.00000000000E+00 -0.47412375986E+03  0.47412375987E+03  0.25500000000E-02 0.  1.
    8880022    1    1    2    0    0 -0.11660107521E+03  0.87439239287E+03  0.29778478510E+04  0.31095220443E+04  0.15294330000E+03 0.  0.
    8880022    1    1    2    0    0  0.11660107521E+03 -0.87439239287E+03  0.82514036847E+02  0.89908736325E+03  0.15294330000E+03 0.  0.
<mgrwt>
<rscale>  0 0.89529298E+03</rscale>
<asrwt>0</asrwt>
<pdfrwt beam="1">  1        2 0.54376704E+00 0.89529298E+03</pdfrwt>
<pdfrwt beam="2">  1       -2 0.72942115E-01 0.89529298E+03</pdfrwt>
<totfact> 0.13795717E+00</totfact>
</mgrwt>
</event>
<event>
 4    1  0.5387657E-008  0.5912629E+03  0.7818608E-02  0.9923700E-01
         -2   -1    0    0    0  501 -0.00000000000E+00  0.00000000000E+00  0.70332237966E+03  0.70332237967E+03  0.25500000000E-02 0.  1.
          2   -1    0    0  501    0  0.00000000000E+00 -0.00000000000E+00 -0.52268774655E+03  0.52268774656E+03  0.25500000000E-02 0. -1.
    8880022    1    1    2    0    0  0.31051804589E+03 -0.47935237092E+03 -0.45425728812E+02  0.59300531379E+03  0.15294330000E+03 0.  0.
    8880022    1    1    2    0    0 -0.31051804589E+03  0.47935237092E+03  0.22606036192E+03  0.63300481244E+03  0.15294330000E+03 0.  0.
<mgrwt>
<rscale>  0 0.59126289E+03</rscale>
<asrwt>0</asrwt>
<pdfrwt beam="1">  1        2 0.80413500E-01 0.59126289E+03</pdfrwt>
<pdfrwt beam="2">  1       -2 0.10820344E+00 0.59126289E+03</pdfrwt>
<totfact> 0.40977471E+01</totfact>
</mgrwt>
</event>
<event>
 4    1  0.5387657E-008  0.4560760E+03  0.7818608E-02  0.1025925E+00
          2   -1    0    0  501    0  0.00000000000E+00  0.00000000000E+00  0.28693811851E+03  0.28693811852E+03  0.25500000000E-02 0. -1.
         -2   -1    0    0    0  501 -0.00000000000E+00 -0.00000000000E+00 -0.92762524938E+03  0.92762524938E+03  0.25500000000E-02 0.  1.
    8880022    1    1    2    0    0 -0.72527314233E+02  0.42350141687E+03 -0.36457962673E+02  0.45753087050E+03  0.15294330000E+03 0.  0.
    8880022    1    1    2    0    0  0.72527314233E+02 -0.42350141687E+03 -0.60422916820E+03  0.75703249740E+03  0.15294330000E+03 0.  1.
<mgrwt>
<rscale>  0 0.45607600E+03</rscale>
<asrwt>0</asrwt>
<pdfrwt beam="1">  1        2 0.44144326E-01 0.45607600E+03</pdfrwt>
<pdfrwt beam="2">  1       -2 0.14271158E+00 0.45607600E+03</pdfrwt>
<totfact> 0.40794303E+01</totfact>
</mgrwt>
</event>
<event>
 4    1  0.5387657E-008  0.2871514E+03  0.7818608E-02  0.1091846E+00
         -2   -1    0    0    0  501 -0.00000000000E+00  0.00000000000E+00  0.32562657082E+03  0.32562657083E+03  0.25500000000E-02 0.  1.
          2   -1    0    0  501    0  0.00000000000E+00 -0.00000000000E+00 -0.14871774435E+04  0.14871774435E+04  0.25500000000E-02 0. -1.
    8880022    1    1    2    0    0  0.18794929976E+03 -0.15407581640E+03  0.24486152771E+03  0.37737662520E+03  0.15294330000E+03 0.  0.
    8880022    1    1    2    0    0 -0.18794929976E+03  0.15407581640E+03 -0.14064124004E+04  0.14354273891E+04  0.15294330000E+03 0. -1.
<mgrwt>
<rscale>  0 0.28715144E+03</rscale>
<asrwt>0</asrwt>
<pdfrwt beam="1">  1        2 0.22879653E+00 0.28715144E+03</pdfrwt>
<pdfrwt beam="2">  1       -2 0.50096396E-01 0.28715144E+03</pdfrwt>
<totfact> 0.53601845E+01</totfact>
</mgrwt>
</event>
<event>
 4    1  0.5387657E-008  0.6516411E+03  0.7818608E-02  0.9803705E-01
         -2   -1    0    0    0  501 -0.00000000000E+00  0.00000000000E+00  0.10086699607E+04  0.10086699607E+04  0.25500000000E-02 0.  1.
          2   -1    0    0  501    0  0.00000000000E+00 -0.00000000000E+00 -0.15825842594E+04  0.15825842594E+04  0.25500000000E-02 0. -1.
    8880022    1    1    2    0    0  0.62698940719E+03 -0.90159444523E+02  0.82304687128E+03  0.10497820000E+04  0.15294330000E+03 0.  0.
    8880022    1    1    2    0    0 -0.62698940719E+03  0.90159444523E+02 -0.13969611699E+04  0.15414722201E+04  0.15294330000E+03 0.  0.
<mgrwt>
<rscale>  0 0.65164108E+03</rscale>
<asrwt>0</asrwt>
<pdfrwt beam="1">  1        2 0.24347450E+00 0.65164108E+03</pdfrwt>
<pdfrwt beam="2">  1       -2 0.15517999E+00 0.65164108E+03</pdfrwt>
<totfact> 0.32668841E+00</totfact>
</mgrwt>
</event>
<event>
 4    1  0.5387657E-008  0.7679357E+03  0.7818608E-02  0.9607625E-01
         -2   -1    0    0    0  501 -0.00000000000E+00  0.00000000000E+00  0.26939132752E+03  0.26939132754E+03  0.25500000000E-02 0.  1.
          2   -1    0    0  501    0  0.00000000000E+00 -0.00000000000E+00 -0.28267719711E+04  0.28267719711E+04  0.25500000000E-02 0. -1.
    8880022    1    1    2    0    0 -0.16655624729E+03  0.73388870124E+03 -0.54342134120E+03  0.94076140248E+03  0.15294330000E+03 0.  0.
    8880022    1    1    2    0    0  0.16655624729E+03 -0.73388870124E+03 -0.20139593024E+04  0.21554018962E+04  0.15294330000E+03 0.  0.
<mgrwt>
<rscale>  0 0.76793571E+03</rscale>
<asrwt>0</asrwt>
<pdfrwt beam="1">  1        2 0.43488798E+00 0.76793571E+03</pdfrwt>
<pdfrwt beam="2">  1       -2 0.41444822E-01 0.76793571E+03</pdfrwt>
<totfact> 0.12944039E+01</totfact>
</mgrwt>
</event>
<event>
 4    1  0.5387657E-008  0.7415362E+03  0.7818608E-02  0.9648723E-01
          2   -1    0    0  501    0  0.00000000000E+00  0.00000000000E+00  0.69427395474E+03  0.69427395475E+03  0.25500000000E-02 0. -1.
         -2   -1    0    0    0  501 -0.00000000000E+00 -0.00000000000E+00 -0.10105814920E+04  0.10105814920E+04  0.25500000000E-02 0.  1.
    8880022    1    1    2    0    0 -0.54342887531E+03 -0.48080075741E+03 -0.55458043468E+03  0.92597808959E+03  0.15294330000E+03 0.  0.
    8880022    1    1    2    0    0  0.54342887531E+03  0.48080075741E+03  0.23827289742E+03  0.77887735717E+03  0.15294330000E+03 0.  0.
<mgrwt>
<rscale>  0 0.74153622E+03</rscale>
<asrwt>0</asrwt>
<pdfrwt beam="1">  1        2 0.10681138E+00 0.74153622E+03</pdfrwt>
<pdfrwt beam="2">  1       -2 0.15547407E+00 0.74153622E+03</pdfrwt>
<totfact> 0.11459007E+01</totfact>
</mgrwt>
</event>
<event>
 4    1  0.5387657E-008  0.4410834E+03  0.7818608E-02  0.1030415E+00
          2   -1    0    0  501    0  0.00000000000E+00  0.00000000000E+00  0.11102425446E+04  0.11102425446E+04  0.25500000000E-02 0. -1.
         -2   -1    0    0    0  501 -0.00000000000E+00 -0.00000000000E+00 -0.39121334732E+03  0.39121334732E+03  0.25500000000E-02 0.  1.
    8880022    1    1    2    0    0 -0.26527700418E+03 -0.31747604299E+03 -0.19828698928E+03  0.48360346355E+03  0.15294330000E+03 0.  0.
    8880022    1    1    2    0    0  0.26527700418E+03  0.31747604299E+03  0.91731618660E+03  0.10178524284E+04  0.15294330000E+03 0.  0.
<mgrwt>
<rscale>  0 0.44108342E+03</rscale>
<asrwt>0</asrwt>
<pdfrwt beam="1">  1        2 0.17080654E+00 0.44108342E+03</pdfrwt>
<pdfrwt beam="2">  1       -2 0.60186669E-01 0.44108342E+03</pdfrwt>
<totfact> 0.58169041E+01</totfact>
</mgrwt>
</event>
<event>
 4    1  0.5387657E-008  0.3918799E+03  0.7818608E-02  0.1046628E+00
          2   -1    0    0  501    0  0.00000000000E+00  0.00000000000E+00  0.71984615599E+03  0.71984615599E+03  0.25500000000E-02 0. -1.
         -2   -1    0    0    0  501 -0.00000000000E+00 -0.00000000000E+00 -0.70515388027E+03  0.70515388027E+03  0.25500000000E-02 0.  1.
    8880022    1    1    2    0    0  0.12130382925E+03  0.33979927900E+03  0.60238405854E+03  0.71863507847E+03  0.15294330000E+03 0.  0.
    8880022    1    1    2    0    0 -0.12130382925E+03 -0.33979927900E+03 -0.58769178282E+03  0.70636495780E+03  0.15294330000E+03 0.  0.
<mgrwt>
<rscale>  0 0.39187986E+03</rscale>
<asrwt>0</asrwt>
<pdfrwt beam="1">  1        2 0.11074556E+00 0.39187986E+03</pdfrwt>
<pdfrwt beam="2">  1       -2 0.10848521E+00 0.39187986E+03</pdfrwt>
<totfact> 0.28419814E+01</totfact>
</mgrwt>
</event>
<event>
 4    1  0.5387657E-008  0.6414438E+03  0.7818608E-02  0.9822968E-01
         -2   -1    0    0    0  501 -0.00000000000E+00  0.00000000000E+00  0.80309565903E+03  0.80309565903E+03  0.25500000000E-02 0.  1.
          2   -1    0    0  501    0  0.00000000000E+00 -0.00000000000E+00 -0.86918057203E+03  0.86918057203E+03  0.25500000000E-02 0. -1.
    8880022    1    1    2    0    0 -0.35123220807E+03 -0.51448457864E+03 -0.56879734100E+03  0.85731004531E+03  0.15294330000E+03 0.  0.
    8880022    1    1    2    0    0  0.35123220807E+03  0.51448457864E+03  0.50271242800E+03  0.81496618576E+03  0.15294330000E+03 0.  0.
<mgrwt>
<rscale>  0 0.64144376E+03</rscale>
<asrwt>0</asrwt>
<pdfrwt beam="1">  1        2 0.13372009E+00 0.64144376E+03</pdfrwt>
<pdfrwt beam="2">  1       -2 0.12355318E+00 0.64144376E+03</pdfrwt>
<totfact> 0.15623744E+01</totfact>
</mgrwt>
</event>
<event>
 4    1  0.5387657E-008  0.4250456E+03  0.7818608E-02  0.1035437E+00
          2   -1    0    0  501    0  0.00000000000E+00  0.00000000000E+00  0.49671425388E+03  0.49671425389E+03  0.25500000000E-02 0. -1.
         -2   -1    0    0    0  501 -0.00000000000E+00 -0.00000000000E+00 -0.45928417438E+03  0.45928417439E+03  0.25500000000E-02 0.  1.
    8880022    1    1    2    0    0  0.38981756814E+03  0.72899849407E+02  0.23675654506E+03  0.48653616424E+03  0.15294330000E+03 0.  0.
    8880022    1    1    2    0    0 -0.38981756814E+03 -0.72899849407E+02 -0.19932646555E+03  0.46946226404E+03  0.15294330000E+03 0.  0.
<mgrwt>
<rscale>  0 0.42504562E+03</rscale>
<asrwt>0</asrwt>
<pdfrwt beam="1">  1        2 0.76417577E-01 0.42504562E+03</pdfrwt>
<pdfrwt beam="2">  1       -2 0.70659104E-01 0.42504562E+03</pdfrwt>
<totfact> 0.11665445E+02</totfact>
</mgrwt>
</event>
<event>
 4    1  0.5387657E-008  0.2603606E+03  0.7818608E-02  0.1106927E+00
          2   -1    0    0  501    0  0.00000000000E+00  0.00000000000E+00  0.28066054742E+04  0.28066054742E+04  0.25500000000E-02 0. -1.
         -2   -1    0    0    0  501 -0.00000000000E+00 -0.00000000000E+00 -0.50999919935E+02  0.50999919999E+02  0.25500000000E-02 0.  1.
    8880022    1    1    2    0    0 -0.79404653830E+02 -0.19516891772E+03  0.34114463000E+03  0.42914719746E+03  0.15294330000E+03 0.  0.
    8880022    1    1    2    0    0  0.79404653830E+02  0.19516891772E+03  0.24144609243E+04  0.24284581967E+04  0.15294330000E+03 0.  0.
<mgrwt>
<rscale>  0 0.26036063E+03</rscale>
<asrwt>0</asrwt>
<pdfrwt beam="1">  1        2 0.43178550E+00 0.26036063E+03</pdfrwt>
<pdfrwt beam="2">  1       -2 0.78461407E-02 0.26036063E+03</pdfrwt>
<totfact> 0.26443779E+02</totfact>
</mgrwt>
</event>
<event>
 4    1  0.5387657E-008  0.8562217E+03  0.7818608E-02  0.9482024E-01
         -2   -1    0    0    0  501 -0.00000000000E+00  0.00000000000E+00  0.57956643426E+03  0.57956643426E+03  0.25500000000E-02 0.  1.
          2   -1    0    0  501    0  0.00000000000E+00 -0.00000000000E+00 -0.33271325034E+04  0.33271325034E+04  0.25500000000E-02 0. -1.
    8880022    1    1    2    0    0  0.11558650975E+03 -0.83448404680E+03  0.16405192201E+03  0.87179616410E+03  0.15294330000E+03 0.  0.
    8880022    1    1    2    0    0 -0.11558650975E+03  0.83448404680E+03 -0.29116179912E+04  0.30349027736E+04  0.15294330000E+03 0.  0.
<mgrwt>
<rscale>  0 0.85622165E+03</rscale>
<asrwt>0</asrwt>
<pdfrwt beam="1">  1        2 0.51186653E+00 0.85622165E+03</pdfrwt>
<pdfrwt beam="2">  1       -2 0.89164069E-01 0.85622165E+03</pdfrwt>
<totfact> 0.12186934E+00</totfact>
</mgrwt>
</event>
<event>
 4    1  0.5387657E-008  0.2602925E+03  0.7818608E-02  0.1106968E+00
          2   -1    0    0  501    0  0.00000000000E+00  0.00000000000E+00  0.45599878589E+03  0.45599878589E+03  0.25500000000E-02 0. -1.
         -2   -1    0    0    0  501 -0.00000000000E+00 -0.00000000000E+00 -0.66026777103E+03  0.66026777104E+03  0.25500000000E-02 0.  1.
    8880022    1    1    2    0    0 -0.78128327470E+02  0.19559265894E+03 -0.59347265989E+03  0.64804473212E+03  0.15294330000E+03 0.  1.
    8880022    1    1    2    0    0  0.78128327470E+02 -0.19559265894E+03  0.38920367474E+03  0.46822182481E+03  0.15294330000E+03 0.  0.
<mgrwt>
<rscale>  0 0.26029248E+03</rscale>
<asrwt>0</asrwt>
<pdfrwt beam="1">  1        2 0.70153659E-01 0.26029248E+03</pdfrwt>
<pdfrwt beam="2">  1       -2 0.10157966E+00 0.26029248E+03</pdfrwt>
<totfact> 0.57856400E+01</totfact>
</mgrwt>
</event>
<event>
 4    1  0.5387657E-008  0.8122650E+03  0.7818608E-02  0.9542432E-01
         -2   -1    0    0    0  501 -0.00000000000E+00  0.00000000000E+00  0.44493945546E+03  0.44493945547E+03  0.25500000000E-02 0.  1.
          2   -1    0    0  501    0  0.00000000000E+00 -0.00000000000E+00 -0.24594051525E+04  0.24594051525E+04  0.25500000000E-02 0. -1.
    8880022    1    1    2    0    0  0.20177412699E+03 -0.77179658134E+03 -0.92164516653E+02  0.81747704092E+03  0.15294330000E+03 0.  0.
    8880022    1    1    2    0    0 -0.20177412699E+03  0.77179658134E+03 -0.19223011803E+04  0.20868675670E+04  0.15294330000E+03 0.  0.
<mgrwt>
<rscale>  0 0.81226499E+03</rscale>
<asrwt>0</asrwt>
<pdfrwt beam="1">  1        2 0.37837002E+00 0.81226499E+03</pdfrwt>
<pdfrwt beam="2">  1       -2 0.68452225E-01 0.81226499E+03</pdfrwt>
<totfact> 0.74407406E+00</totfact>
</mgrwt>
</event>
<event>
 4    1  0.5387657E-008  0.9872834E+03  0.7818608E-02  0.9322603E-01
         -2   -1    0    0    0  501 -0.00000000000E+00  0.00000000000E+00  0.97902758210E+03  0.97902758210E+03  0.25500000000E-02 0.  1.
          2   -1    0    0  501    0  0.00000000000E+00 -0.00000000000E+00 -0.11653809168E+04  0.11653809168E+04  0.25500000000E-02 0. -1.
    8880022    1    1    2    0    0  0.87646252748E+03 -0.42796068701E+03  0.31606197874E+03  0.10366406027E+04  0.15294330000E+03 0.  0.
    8880022    1    1    2    0    0 -0.87646252748E+03  0.42796068701E+03 -0.50241531345E+03  0.11077678962E+04  0.15294330000E+03 0.  0.
<mgrwt>
<rscale>  0 0.98728343E+03</rscale>
<asrwt>0</asrwt>
<pdfrwt beam="1">  1        2 0.17928937E+00 0.98728343E+03</pdfrwt>
<pdfrwt beam="2">  1       -2 0.15061963E+00 0.98728343E+03</pdfrwt>
<totfact> 0.58453735E+00</totfact>
</mgrwt>
</event>
<event>
 4    1  0.5387657E-008  0.3248602E+03  0.7818608E-02  0.1073434E+00
          2   -1    0    0  501    0  0.00000000000E+00  0.00000000000E+00  0.56682377009E+03  0.56682377009E+03  0.25500000000E-02 0. -1.
         -2   -1    0    0    0  501 -0.00000000000E+00 -0.00000000000E+00 -0.72836784487E+03  0.72836784488E+03  0.25500000000E-02 0.  1.
    8880022    1    1    2    0    0 -0.15991661377E+03  0.23784279594E+03 -0.63950136715E+03  0.71728388420E+03  0.15294330000E+03 0.  0.
    8880022    1    1    2    0    0  0.15991661377E+03 -0.23784279594E+03  0.47795729237E+03  0.57790773077E+03  0.15294330000E+03 0.  0.
<mgrwt>
<rscale>  0 0.32486023E+03</rscale>
<asrwt>0</asrwt>
<pdfrwt beam="1">  1        2 0.87203657E-01 0.32486023E+03</pdfrwt>
<pdfrwt beam="2">  1       -2 0.11205659E+00 0.32486023E+03</pdfrwt>
<totfact> 0.35440491E+01</totfact>
</mgrwt>
</event>
<event>
 4    1  0.5387657E-008  0.1237038E+04  0.7818608E-02  0.9081041E-01
          2   -1    0    0  501    0  0.00000000000E+00  0.00000000000E+00  0.20754672464E+04  0.20754672464E+04  0.25500000000E-02 0. -1.
         -2   -1    0    0    0  501 -0.00000000000E+00 -0.00000000000E+00 -0.94851476576E+03  0.94851476576E+03  0.25500000000E-02 0.  1.
    8880022    1    1    2    0    0  0.66469178586E+03  0.10320161596E+04  0.12769505048E+04  0.17778826645E+04  0.15294330000E+03 0.  0.
    8880022    1    1    2    0    0 -0.66469178586E+03 -0.10320161596E+04 -0.14999802420E+03  0.12460993476E+04  0.15294330000E+03 0.  0.
<mgrwt>
<rscale>  0 0.12370385E+04</rscale>
<asrwt>0</asrwt>
<pdfrwt beam="1">  1        2 0.31930265E+00 0.12370385E+04</pdfrwt>
<pdfrwt beam="2">  1       -2 0.14592535E+00 0.12370385E+04</pdfrwt>
<totfact> 0.18957177E+00</totfact>
</mgrwt>
</event>
<event>
 4    1  0.5387657E-008  0.2899870E+03  0.7818608E-02  0.1090356E+00
          2   -1    0    0  501    0  0.00000000000E+00  0.00000000000E+00  0.10018679607E+03  0.10018679611E+03  0.25500000000E-02 0. -1.
         -2   -1    0    0    0  501 -0.00000000000E+00 -0.00000000000E+00 -0.17078605222E+04  0.17078605222E+04  0.25500000000E-02 0.  1.
    8880022    1    1    2    0    0  0.23567151112E+03  0.71831350144E+02 -0.14485098420E+04  0.14772519147E+04  0.15294330000E+03 0.  0.
    8880022    1    1    2    0    0 -0.23567151112E+03 -0.71831350144E+02 -0.15916388404E+03  0.33079540356E+03  0.15294330000E+03 0.  0.
<mgrwt>
<rscale>  0 0.28998699E+03</rscale>
<asrwt>0</asrwt>
<pdfrwt beam="1">  1        2 0.15413355E-01 0.28998699E+03</pdfrwt>
<pdfrwt beam="2">  1       -2 0.26274775E+00 0.28998699E+03</pdfrwt>
<totfact> 0.22720606E+01</totfact>
</mgrwt>
</event>
<event>
 4    1  0.5387657E-008  0.7193973E+03  0.7818608E-02  0.9684623E-01
          2   -1    0    0  501    0  0.00000000000E+00  0.00000000000E+00  0.91869891216E+03  0.91869891217E+03  0.25500000000E-02 0. -1.
         -2   -1    0    0    0  501 -0.00000000000E+00 -0.00000000000E+00 -0.24156261861E+04  0.24156261861E+04  0.25500000000E-02 0.  1.
    8880022    1    1    2    0    0 -0.69930716993E+03  0.71486652804E+02 -0.22083466696E+04  0.23225691649E+04  0.15294330000E+03 0.  0.
    8880022    1    1    2    0    0  0.69930716993E+03 -0.71486652804E+02  0.71141939560E+03  0.10117559335E+04  0.15294330000E+03 0.  0.
<mgrwt>
<rscale>  0 0.71939733E+03</rscale>
<asrwt>0</asrwt>
<pdfrwt beam="1">  1        2 0.14133830E+00 0.71939733E+03</pdfrwt>
<pdfrwt beam="2">  1       -2 0.37163479E+00 0.71939733E+03</pdfrwt>
<totfact> 0.34538695E-01</totfact>
</mgrwt>
</event>
<event>
 4    1  0.5387657E-008  0.6003199E+03  0.7818608E-02  0.9904743E-01
         -2   -1    0    0    0  501 -0.00000000000E+00  0.00000000000E+00  0.32373609517E+03  0.32373609518E+03  0.25500000000E-02 0.  1.
          2   -1    0    0  501    0  0.00000000000E+00 -0.00000000000E+00 -0.21742024657E+04  0.21742024657E+04  0.25500000000E-02 0. -1.
    8880022    1    1    2    0    0 -0.46868488094E+03  0.34253003030E+03 -0.17977209539E+04  0.18953059437E+04  0.15294330000E+03 0.  0.
    8880022    1    1    2    0    0  0.46868488094E+03 -0.34253003030E+03 -0.52745416658E+02  0.60263261717E+03  0.15294330000E+03 0.  0.
<mgrwt>
<rscale>  0 0.60031991E+03</rscale>
<asrwt>0</asrwt>
<pdfrwt beam="1">  1        2 0.33449268E+00 0.60031991E+03</pdfrwt>
<pdfrwt beam="2">  1       -2 0.49805555E-01 0.60031991E+03</pdfrwt>
<totfact> 0.21645225E+01</totfact>
</mgrwt>
</event>
<event>
 4    1  0.5387657E-008  0.6500478E+03  0.7818608E-02  0.9806689E-01
          2   -1    0    0  501    0  0.00000000000E+00  0.00000000000E+00  0.15455697100E+04  0.15455697100E+04  0.25500000000E-02 0. -1.
         -2   -1    0    0    0  501 -0.00000000000E+00 -0.00000000000E+00 -0.93814331073E+03  0.93814331073E+03  0.25500000000E-02 0.  1.
    8880022    1    1    2    0    0 -0.99918932621E+01  0.63172039447E+03 -0.74164010593E+03  0.98620088950E+03  0.15294330000E+03 0.  0.
    8880022    1    1    2    0    0  0.99918932621E+01 -0.63172039447E+03  0.13490665052E+04  0.14975121312E+04  0.15294330000E+03 0.  0.
<mgrwt>
<rscale>  0 0.65004780E+03</rscale>
<asrwt>0</asrwt>
<pdfrwt beam="1">  1        2 0.23777995E+00 0.65004780E+03</pdfrwt>
<pdfrwt beam="2">  1       -2 0.14432974E+00 0.65004780E+03</pdfrwt>
<totfact> 0.41456013E+00</totfact>
</mgrwt>
</event>
<event>
 4    1  0.5387657E-008  0.3621639E+03  0.7818608E-02  0.1057730E+00
          2   -1    0    0  501    0  0.00000000000E+00  0.00000000000E+00  0.10095750646E+04  0.10095750646E+04  0.25500000000E-02 0. -1.
         -2   -1    0    0    0  501 -0.00000000000E+00 -0.00000000000E+00 -0.24981101333E+03  0.24981101335E+03  0.25500000000E-02 0.  1.
    8880022    1    1    2    0    0  0.12690916323E+03  0.30276249772E+03  0.81611521289E+03  0.89286435670E+03  0.15294330000E+03 0.  0.
    8880022    1    1    2    0    0 -0.12690916323E+03 -0.30276249772E+03 -0.56351161597E+02  0.36652172127E+03  0.15294330000E+03 0.  0.
<mgrwt>
<rscale>  0 0.36216394E+03</rscale>
<asrwt>0</asrwt>
<pdfrwt beam="1">  1        2 0.15531924E+00 0.36216394E+03</pdfrwt>
<pdfrwt beam="2">  1       -2 0.38432464E-01 0.36216394E+03</pdfrwt>
<totfact> 0.16621368E+02</totfact>
</mgrwt>
</event>
<event>
 4    1  0.5387657E-008  0.2640236E+03  0.7818608E-02  0.1104750E+00
         -2   -1    0    0    0  501 -0.00000000000E+00  0.00000000000E+00  0.28913715626E+03  0.28913715628E+03  0.25500000000E-02 0.  1.
          2   -1    0    0  501    0  0.00000000000E+00 -0.00000000000E+00 -0.92487057986E+03  0.92487057986E+03  0.25500000000E-02 0. -1.
    8880022    1    1    2    0    0  0.17574404083E+03  0.12422101019E+03 -0.83979269063E+03  0.88031826262E+03  0.15294330000E+03 0.  0.
    8880022    1    1    2    0    0 -0.17574404083E+03 -0.12422101019E+03  0.20405926703E+03  0.33368947352E+03  0.15294330000E+03 0.  0.
<mgrwt>
<rscale>  0 0.26402364E+03</rscale>
<asrwt>0</asrwt>
<pdfrwt beam="1">  1        2 0.14228778E+00 0.26402364E+03</pdfrwt>
<pdfrwt beam="2">  1       -2 0.44482640E-01 0.26402364E+03</pdfrwt>
<totfact> 0.14366511E+02</totfact>
</mgrwt>
</event>
<event>
 4    1  0.5387657E-008  0.4113702E+03  0.7818608E-02  0.1039912E+00
          2   -1    0    0  501    0  0.00000000000E+00  0.00000000000E+00  0.19740262111E+04  0.19740262111E+04  0.25500000000E-02 0. -1.
         -2   -1    0    0    0  501 -0.00000000000E+00 -0.00000000000E+00 -0.20049758381E+03  0.20049758383E+03  0.25500000000E-02 0.  1.
    8880022    1    1    2    0    0  0.19784599196E+03 -0.32663553352E+03  0.64149174539E+02  0.41634190024E+03  0.15294330000E+03 0.  1.
    8880022    1    1    2    0    0 -0.19784599196E+03  0.32663553352E+03  0.17093794527E+04  0.17581818946E+04  0.15294330000E+03 0.  0.
<mgrwt>
<rscale>  0 0.41137022E+03</rscale>
<asrwt>0</asrwt>
<pdfrwt beam="1">  1        2 0.30369634E+00 0.41137022E+03</pdfrwt>
<pdfrwt beam="2">  1       -2 0.30845782E-01 0.41137022E+03</pdfrwt>
<totfact> 0.72680987E+01</totfact>
</mgrwt>
</event>
<event>
 4    1  0.5387657E-008  0.1550944E+04  0.7818608E-02  0.8851265E-01
         -2   -1    0    0    0  501 -0.00000000000E+00  0.00000000000E+00  0.14662371837E+04  0.14662371837E+04  0.25500000000E-02 0.  1.
          2   -1    0    0  501    0  0.00000000000E+00 -0.00000000000E+00 -0.20751678925E+04  0.20751678925E+04  0.25500000000E-02 0. -1.
    8880022    1    1    2    0    0 -0.75043379609E+03  0.13486603791E+04 -0.11148207662E+04  0.19100399719E+04  0.15294330000E+03 0.  0.
    8880022    1    1    2    0    0  0.75043379609E+03 -0.13486603791E+04  0.50589005745E+03  0.16313651043E+04  0.15294330000E+03 0.  0.
<mgrwt>
<rscale>  0 0.15509440E+04</rscale>
<asrwt>0</asrwt>
<pdfrwt beam="1">  1        2 0.31925660E+00 0.15509440E+04</pdfrwt>
<pdfrwt beam="2">  1       -2 0.22557495E+00 0.15509440E+04</pdfrwt>
<totfact> 0.51585139E-01</totfact>
</mgrwt>
</event>
<event>
 4    1  0.5387657E-008  0.2864752E+03  0.7818608E-02  0.1092204E+00
          2   -1    0    0  501    0  0.00000000000E+00  0.00000000000E+00  0.10628750743E+04  0.10628750743E+04  0.25500000000E-02 0. -1.
         -2   -1    0    0    0  501 -0.00000000000E+00 -0.00000000000E+00 -0.13837705412E+03  0.13837705414E+03  0.25500000000E-02 0.  1.
    8880022    1    1    2    0    0 -0.14352952978E+02 -0.24180653921E+03  0.86156738860E+03  0.90794626922E+03  0.15294330000E+03 0.  0.
    8880022    1    1    2    0    0  0.14352952978E+02  0.24180653921E+03  0.62930631612E+02  0.29330585926E+03  0.15294330000E+03 0.  1.
<mgrwt>
<rscale>  0 0.28647524E+03</rscale>
<asrwt>0</asrwt>
<pdfrwt beam="1">  1        2 0.16351924E+00 0.28647524E+03</pdfrwt>
<pdfrwt beam="2">  1       -2 0.21288778E-01 0.28647524E+03</pdfrwt>
<totfact> 0.45533368E+02</totfact>
</mgrwt>
</event>
<event>
 4    1  0.6846311E-008  0.8194782E+03  0.7818608E-02  0.9532243E-01
         -2   -1    0    0    0  501 -0.00000000000E+00  0.00000000000E+00  0.13761707614E+04  0.13761707614E+04  0.25500000000E-02 0.  1.
          2   -1    0    0  501    0  0.00000000000E+00 -0.00000000000E+00 -0.18626640529E+04  0.18626640529E+04  0.25500000000E-02 0. -1.
    8880022    1    1    2    0    0 -0.23870282428E+03 -0.76887830541E+03 -0.16344573158E+04  0.18283859705E+04  0.15294330000E+03 0.  0.
    8880022    1    1    2    0    0  0.23870282428E+03  0.76887830541E+03  0.11479640243E+04  0.14104488438E+04  0.15294330000E+03 0.  0.
<mgrwt>
<rscale>  0 0.81947821E+03</rscale>
<asrwt>0</asrwt>
<pdfrwt beam="1">  1        2 0.28656370E+00 0.81947821E+03</pdfrwt>
<pdfrwt beam="2">  1       -2 0.21171858E+00 0.81947821E+03</pdfrwt>
<totfact> 0.91428759E-01</totfact>
</mgrwt>
</event>
<event>
 4    1  0.5387657E-008  0.5669911E+03  0.7818608E-02  0.9976359E-01
          2   -1    0    0  501    0  0.00000000000E+00  0.00000000000E+00  0.67103109872E+03  0.67103109872E+03  0.25500000000E-02 0. -1.
         -2   -1    0    0    0  501 -0.00000000000E+00 -0.00000000000E+00 -0.73036042522E+03  0.73036042523E+03  0.25500000000E-02 0.  1.
    8880022    1    1    2    0    0 -0.96589080415E+02 -0.53736190395E+03 -0.44066149797E+03  0.71809572835E+03  0.15294330000E+03 0.  0.
    8880022    1    1    2    0    0  0.96589080415E+02  0.53736190395E+03  0.38133217146E+03  0.68329579560E+03  0.15294330000E+03 0.  0.
<mgrwt>
<rscale>  0 0.56699111E+03</rscale>
<asrwt>0</asrwt>
<pdfrwt beam="1">  1        2 0.10323555E+00 0.56699111E+03</pdfrwt>
<pdfrwt beam="2">  1       -2 0.11236314E+00 0.56699111E+03</pdfrwt>
<totfact> 0.27820223E+01</totfact>
</mgrwt>
</event>
<event>
 4    1  0.5387657E-008  0.6808748E+03  0.7818608E-02  0.9750510E-01
          2   -1    0    0  501    0  0.00000000000E+00  0.00000000000E+00  0.31834065732E+04  0.31834065732E+04  0.25500000000E-02 0. -1.
         -2   -1    0    0    0  501 -0.00000000000E+00 -0.00000000000E+00 -0.31739646730E+03  0.31739646731E+03  0.25500000000E-02 0.  1.
    8880022    1    1    2    0    0  0.65616010188E+03  0.98248347529E+02  0.14532071029E+03  0.69621015429E+03  0.15294330000E+03 0.  0.
    8880022    1    1    2    0    0 -0.65616010188E+03 -0.98248347529E+02  0.27206893956E+04  0.28045928862E+04  0.15294330000E+03 0.  0.
<mgrwt>
<rscale>  0 0.68087478E+03</rscale>
<asrwt>0</asrwt>
<pdfrwt beam="1">  1        2 0.48975486E+00 0.68087478E+03</pdfrwt>
<pdfrwt beam="2">  1       -2 0.48830225E-01 0.68087478E+03</pdfrwt>
<totfact> 0.57406641E+00</totfact>
</mgrwt>
</event>
<event>
 4    1  0.5387657E-008  0.4775610E+03  0.7818608E-02  0.1019808E+00
          2   -1    0    0  501    0  0.00000000000E+00  0.00000000000E+00  0.16325595930E+04  0.16325595930E+04  0.25500000000E-02 0. -1.
         -2   -1    0    0    0  501 -0.00000000000E+00 -0.00000000000E+00 -0.17458284821E+03  0.17458284823E+03  0.25500000000E-02 0.  1.
    8880022    1    1    2    0    0  0.44077733786E+03  0.10192235844E+03  0.32507969859E+03  0.57770346387E+03  0.15294330000E+03 0.  0.
    8880022    1    1    2    0    0 -0.44077733786E+03 -0.10192235844E+03  0.11328970462E+04  0.12294389773E+04  0.15294330000E+03 0.  0.
<mgrwt>
<rscale>  0 0.47756097E+03</rscale>
<asrwt>0</asrwt>
<pdfrwt beam="1">  1        2 0.25116302E+00 0.47756097E+03</pdfrwt>
<pdfrwt beam="2">  1       -2 0.26858899E-01 0.47756097E+03</pdfrwt>
<totfact> 0.14109521E+02</totfact>
</mgrwt>
</event>
<event>
 4    1  0.5387657E-008  0.8560376E+03  0.7818608E-02  0.9482269E-01
         -2   -1    0    0    0  501 -0.00000000000E+00  0.00000000000E+00  0.43791946553E+03  0.43791946554E+03  0.25500000000E-02 0.  1.
          2   -1    0    0  501    0  0.00000000000E+00 -0.00000000000E+00 -0.20122398950E+04  0.20122398950E+04  0.25500000000E-02 0. -1.
    8880022    1    1    2    0    0  0.41355848902E+03 -0.73374257399E+03 -0.28442164755E+03  0.90205106027E+03  0.15294330000E+03 0.  0.
    8880022    1    1    2    0    0 -0.41355848902E+03  0.73374257399E+03 -0.12898987819E+04  0.15481083003E+04  0.15294330000E+03 0.  0.
<mgrwt>
<rscale>  0 0.85603764E+03</rscale>
<asrwt>0</asrwt>
<pdfrwt beam="1">  1        2 0.30957536E+00 0.85603764E+03</pdfrwt>
<pdfrwt beam="2">  1       -2 0.67372227E-01 0.85603764E+03</pdfrwt>
<totfact> 0.13559256E+01</totfact>
</mgrwt>
</event>
<event>
 4    1  0.5387657E-008  0.8757676E+03  0.7818608E-02  0.9456391E-01
         -2   -1    0    0    0  501 -0.00000000000E+00  0.00000000000E+00  0.56854757339E+03  0.56854757339E+03  0.25500000000E-02 0.  1.
          2   -1    0    0  501    0  0.00000000000E+00 -0.00000000000E+00 -0.20331186377E+04  0.20331186377E+04  0.25500000000E-02 0. -1.
    8880022    1    1    2    0    0  0.78396669335E+03  0.35912876053E+03 -0.14868683734E+04  0.17256148051E+04  0.15294330000E+03 0.  0.
    8880022    1    1    2    0    0 -0.78396669335E+03 -0.35912876053E+03  0.22297309044E+02  0.87605140598E+03  0.15294330000E+03 0.  0.
<mgrwt>
<rscale>  0 0.87576760E+03</rscale>
<asrwt>0</asrwt>
<pdfrwt beam="1">  1        2 0.31278748E+00 0.87576760E+03</pdfrwt>
<pdfrwt beam="2">  1       -2 0.87468859E-01 0.87576760E+03</pdfrwt>
<totfact> 0.73541216E+00</totfact>
</mgrwt>
</event>
<event>
 4    1  0.5387657E-008  0.7022467E+03  0.7818608E-02  0.9713398E-01
         -2   -1    0    0    0  501 -0.00000000000E+00  0.00000000000E+00  0.11629548715E+03  0.11629548718E+03  0.25500000000E-02 0.  1.
          2   -1    0    0  501    0  0.00000000000E+00 -0.00000000000E+00 -0.55258107143E+04  0.55258107143E+04  0.25500000000E-02 0. -1.
    8880022    1    1    2    0    0  0.51097203618E+03 -0.45680006967E+03 -0.13441959018E+04  0.15165793750E+04  0.15294330000E+03 0.  0.
    8880022    1    1    2    0    0 -0.51097203618E+03  0.45680006967E+03 -0.40653193254E+04  0.41255268264E+04  0.15294330000E+03 0.  0.
<mgrwt>
<rscale>  0 0.70224666E+03</rscale>
<asrwt>0</asrwt>
<pdfrwt beam="1">  1        2 0.85012452E+00 0.70224666E+03</pdfrwt>
<pdfrwt beam="2">  1       -2 0.17891618E-01 0.70224666E+03</pdfrwt>
<totfact> 0.17417399E-01</totfact>
</mgrwt>
</event>
<event>
 4    1  0.5387657E-008  0.2614910E+03  0.7818608E-02  0.1106251E+00
         -2   -1    0    0    0  501 -0.00000000000E+00  0.00000000000E+00  0.19625898658E+04  0.19625898658E+04  0.25500000000E-02 0.  1.
          2   -1    0    0  501    0  0.00000000000E+00 -0.00000000000E+00 -0.66150937070E+03  0.66150937070E+03  0.25500000000E-02 0. -1.
    8880022    1    1    2    0    0  0.19895973577E+03 -0.73490909574E+02  0.19275709304E+04  0.19452267824E+04  0.15294330000E+03 0.  0.
    8880022    1    1    2    0    0 -0.19895973577E+03  0.73490909574E+02 -0.62649043535E+03  0.67887245404E+03  0.15294330000E+03 0.  0.
<mgrwt>
<rscale>  0 0.26149100E+03</rscale>
<asrwt>0</asrwt>
<pdfrwt beam="1">  1        2 0.10177067E+00 0.26149100E+03</pdfrwt>
<pdfrwt beam="2">  1       -2 0.30193690E+00 0.26149100E+03</pdfrwt>
<totfact> 0.16310603E+00</totfact>
</mgrwt>
</event>
<event>
 4    1  0.5387657E-008  0.6261452E+03  0.7818608E-02  0.9852600E-01
          2   -1    0    0  501    0  0.00000000000E+00  0.00000000000E+00  0.23319343907E+04  0.23319343907E+04  0.25500000000E-02 0. -1.
         -2   -1    0    0    0  501 -0.00000000000E+00 -0.00000000000E+00 -0.33582871806E+03  0.33582871807E+03  0.25500000000E-02 0.  1.
    8880022    1    1    2    0    0 -0.72341892755E+02  0.60285383842E+03  0.19406561974E+04  0.20391675335E+04  0.15294330000E+03 0.  0.
    8880022    1    1    2    0    0  0.72341892755E+02 -0.60285383842E+03  0.55449475208E+02  0.62859557528E+03  0.15294330000E+03 0.  0.
<mgrwt>
<rscale>  0 0.62614515E+03</rscale>
<asrwt>0</asrwt>
<pdfrwt beam="1">  1        2 0.35875913E+00 0.62614515E+03</pdfrwt>
<pdfrwt beam="2">  1       -2 0.51665958E-01 0.62614515E+03</pdfrwt>
<totfact> 0.16375212E+01</totfact>
</mgrwt>
</event>
<event>
 4    1  0.5387657E-008  0.2216471E+03  0.7818608E-02  0.1132661E+00
          2   -1    0    0  501    0  0.00000000000E+00  0.00000000000E+00  0.12807650976E+04  0.12807650976E+04  0.25500000000E-02 0. -1.
         -2   -1    0    0    0  501 -0.00000000000E+00 -0.00000000000E+00 -0.19935448178E+03  0.19935448179E+03  0.25500000000E-02 0.  1.
    8880022    1    1    2    0    0  0.17946499581E+02  0.15941683916E+03 -0.12435669345E+03  0.25414965213E+03  0.15294330000E+03 0.  0.
    8880022    1    1    2    0    0 -0.17946499581E+02 -0.15941683916E+03  0.12057673093E+04  0.12259699273E+04  0.15294330000E+03 0. -1.
<mgrwt>
<rscale>  0 0.22164715E+03</rscale>
<asrwt>0</asrwt>
<pdfrwt beam="1">  1        2 0.19704079E+00 0.22164715E+03</pdfrwt>
<pdfrwt beam="2">  1       -2 0.30669920E-01 0.22164715E+03</pdfrwt>
<totfact> 0.18028269E+02</totfact>
</mgrwt>
</event>
<event>
 4    1  0.5387657E-008  0.4659421E+03  0.7818608E-02  0.1023072E+00
          2   -1    0    0  501    0  0.00000000000E+00  0.00000000000E+00  0.27461745841E+04  0.27461745841E+04  0.25500000000E-02 0. -1.
         -2   -1    0    0    0  501 -0.00000000000E+00 -0.00000000000E+00 -0.12182719214E+03  0.12182719217E+03  0.25500000000E-02 0.  1.
    8880022    1    1    2    0    0 -0.72501969096E+02  0.43411274379E+03  0.46250017520E+03  0.65651235702E+03  0.15294330000E+03 0.  0.
    8880022    1    1    2    0    0  0.72501969096E+02 -0.43411274379E+03  0.21618472168E+04  0.22114894193E+04  0.15294330000E+03 0.  0.
<mgrwt>
<rscale>  0 0.46594212E+03</rscale>
<asrwt>0</asrwt>
<pdfrwt beam="1">  1        2 0.42248842E+00 0.46594212E+03</pdfrwt>
<pdfrwt beam="2">  1       -2 0.18742644E-01 0.46594212E+03</pdfrwt>
<totfact> 0.65433451E+01</totfact>
</mgrwt>
</event>
<event>
 4    1  0.5387657E-008  0.4343864E+03  0.7818608E-02  0.1032483E+00
         -2   -1    0    0    0  501 -0.00000000000E+00  0.00000000000E+00  0.84657753455E+02  0.84657753493E+02  0.25500000000E-02 0.  1.
          2   -1    0    0  501    0  0.00000000000E+00 -0.00000000000E+00 -0.27161505571E+04  0.27161505571E+04  0.25500000000E-02 0. -1.
    8880022    1    1    2    0    0  0.14127726552E+03 -0.38123562814E+03 -0.19088955737E+04  0.19576960525E+04  0.15294330000E+03 0.  0.
    8880022    1    1    2    0    0 -0.14127726552E+03  0.38123562814E+03 -0.72259723003E+03  0.84311225811E+03  0.15294330000E+03 0.  0.
<mgrwt>
<rscale>  0 0.43438638E+03</rscale>
<asrwt>0</asrwt>
<pdfrwt beam="1">  1        2 0.41786925E+00 0.43438638E+03</pdfrwt>
<pdfrwt beam="2">  1       -2 0.13024272E-01 0.43438638E+03</pdfrwt>
<totfact> 0.12653814E+02</totfact>
</mgrwt>
</event>
<event>
 4    1  0.5387657E-008  0.2229966E+03  0.7818608E-02  0.1131669E+00
          2   -1    0    0  501    0  0.00000000000E+00  0.00000000000E+00  0.51015148025E+03  0.51015148026E+03  0.25500000000E-02 0. -1.
         -2   -1    0    0    0  501 -0.00000000000E+00 -0.00000000000E+00 -0.16034998661E+03  0.16034998663E+03  0.25500000000E-02 0.  1.
    8880022    1    1    2    0    0  0.14797247502E+03  0.66632998405E+02 -0.35027653878E+02  0.22573081179E+03  0.15294330000E+03 0.  1.
    8880022    1    1    2    0    0 -0.14797247502E+03 -0.66632998405E+02  0.38482914752E+03  0.44477065510E+03  0.15294330000E+03 0.  0.
<mgrwt>
<rscale>  0 0.22299655E+03</rscale>
<asrwt>0</asrwt>
<pdfrwt beam="1">  1        2 0.78484842E-01 0.22299655E+03</pdfrwt>
<pdfrwt beam="2">  1       -2 0.24669229E-01 0.22299655E+03</pdfrwt>
<totfact> 0.88727392E+02</totfact>
</mgrwt>
</event>
<event>
 4    1  0.5387657E-008  0.2206185E+03  0.7818608E-02  0.1133423E+00
         -2   -1    0    0    0  501 -0.00000000000E+00  0.00000000000E+00  0.28009608038E+02  0.28009608154E+02  0.25500000000E-02 0.  1.
          2   -1    0    0  501    0  0.00000000000E+00 -0.00000000000E+00 -0.24475313036E+04  0.24475313037E+04  0.25500000000E-02 0. -1.
    8880022    1    1    2    0    0 -0.15823593858E+03 -0.15565152974E+02 -0.54318296156E+03  0.58627661474E+03  0.15294330000E+03 0.  0.
    8880022    1    1    2    0    0  0.15823593858E+03  0.15565152974E+02 -0.18763387341E+04  0.18892642971E+04  0.15294330000E+03 0. -1.
<mgrwt>
<rscale>  0 0.22061854E+03</rscale>
<asrwt>0</asrwt>
<pdfrwt beam="1">  1        2 0.37654311E+00 0.22061854E+03</pdfrwt>
<pdfrwt beam="2">  1       -2 0.43091724E-02 0.22061854E+03</pdfrwt>
<totfact> 0.10603215E+03</totfact>
</mgrwt>
</event>
<event>
 4    1  0.5387657E-008  0.6378548E+03  0.7818608E-02  0.9829839E-01
         -2   -1    0    0    0  501 -0.00000000000E+00  0.00000000000E+00  0.23903984253E+04  0.23903984253E+04  0.25500000000E-02 0.  1.
          2   -1    0    0  501    0  0.00000000000E+00 -0.00000000000E+00 -0.34259641901E+03  0.34259641902E+03  0.25500000000E-02 0. -1.
    8880022    1    1    2    0    0 -0.33025109048E+03  0.52383330085E+03  0.54564197777E+02  0.64018435980E+03  0.15294330000E+03 0.  0.
    8880022    1    1    2    0    0  0.33025109048E+03 -0.52383330085E+03  0.19932378085E+04  0.20928104845E+04  0.15294330000E+03 0.  0.
<mgrwt>
<rscale>  0 0.63785481E+03</rscale>
<asrwt>0</asrwt>
<pdfrwt beam="1">  1        2 0.52707143E-01 0.63785481E+03</pdfrwt>
<pdfrwt beam="2">  1       -2 0.36775359E+00 0.63785481E+03</pdfrwt>
<totfact> 0.12252814E+00</totfact>
</mgrwt>
</event>
<event>
 4    1  0.5387657E-008  0.1547663E+03  0.7818608E-02  0.1194736E+00
          2   -1    0    0  501    0  0.00000000000E+00  0.00000000000E+00  0.96302763899E+03  0.96302763899E+03  0.25500000000E-02 0. -1.
         -2   -1    0    0    0  501 -0.00000000000E+00 -0.00000000000E+00 -0.28132248904E+03  0.28132248905E+03  0.25500000000E-02 0.  1.
    8880022    1    1    2    0    0  0.19578081936E+02  0.13329155871E+02 -0.25318233462E+03  0.29673879974E+03  0.15294330000E+03 0.  0.
    8880022    1    1    2    0    0 -0.19578081936E+02 -0.13329155871E+02  0.93488748458E+03  0.94761132830E+03  0.15294330000E+03 0. -1.
<mgrwt>
<rscale>  0 0.15476634E+03</rscale>
<asrwt>0</asrwt>
<pdfrwt beam="1">  1        2 0.14815810E+00 0.15476634E+03</pdfrwt>
<pdfrwt beam="2">  1       -2 0.43280383E-01 0.15476634E+03</pdfrwt>
<totfact> 0.14685898E+02</totfact>
</mgrwt>
</event>
<event>
 4    1  0.5387657E-008  0.5817320E+03  0.7818608E-02  0.9944048E-01
          2   -1    0    0  501    0  0.00000000000E+00  0.00000000000E+00  0.21836360065E+04  0.21836360065E+04  0.25500000000E-02 0. -1.
         -2   -1    0    0    0  501 -0.00000000000E+00 -0.00000000000E+00 -0.24253976810E+03  0.24253976811E+03  0.25500000000E-02 0.  1.
    8880022    1    1    2    0    0  0.49441563262E+03  0.26565708507E+03  0.16994379498E+04  0.17962465039E+04  0.15294330000E+03 0.  0.
    8880022    1    1    2    0    0 -0.49441563262E+03 -0.26565708507E+03  0.24165828863E+03  0.62992927072E+03  0.15294330000E+03 0.  1.
<mgrwt>
<rscale>  0 0.58173203E+03</rscale>
<asrwt>0</asrwt>
<pdfrwt beam="1">  1        2 0.33594401E+00 0.58173203E+03</pdfrwt>
<pdfrwt beam="2">  1       -2 0.37313809E-01 0.58173203E+03</pdfrwt>
<totfact> 0.37916564E+01</totfact>
</mgrwt>
</event>
<event>
 4    1  0.5387657E-008  0.9561277E+03  0.7818608E-02  0.9358017E-01
          2   -1    0    0  501    0  0.00000000000E+00  0.00000000000E+00  0.56628790754E+03  0.56628790755E+03  0.25500000000E-02 0. -1.
         -2   -1    0    0    0  501 -0.00000000000E+00 -0.00000000000E+00 -0.22713325398E+04  0.22713325398E+04  0.25500000000E-02 0.  1.
    8880022    1    1    2    0    0 -0.80049999990E+03 -0.49998836343E+03 -0.16155929210E+04  0.18773174353E+04  0.15294330000E+03 0.  0.
    8880022    1    1    2    0    0  0.80049999990E+03  0.49998836343E+03 -0.89451711303E+02  0.96030301211E+03  0.15294330000E+03 0.  0.
<mgrwt>
<rscale>  0 0.95612775E+03</rscale>
<asrwt>0</asrwt>
<pdfrwt beam="1">  1        2 0.87121218E-01 0.95612775E+03</pdfrwt>
<pdfrwt beam="2">  1       -2 0.34943577E+00 0.95612775E+03</pdfrwt>
<totfact> 0.85076611E-01</totfact>
</mgrwt>
</event>
<event>
 4    1  0.5387657E-008  0.3839854E+03  0.7818608E-02  0.1049470E+00
         -2   -1    0    0    0  501 -0.00000000000E+00  0.00000000000E+00  0.45871010984E+03  0.45871010985E+03  0.25500000000E-02 0.  1.
          2   -1    0    0  501    0  0.00000000000E+00 -0.00000000000E+00 -0.45899734156E+03  0.45899734156E+03  0.25500000000E-02 0. -1.
    8880022    1    1    2    0    0  0.33157445777E+03  0.11879181165E+03  0.25105741634E+03  0.45877510272E+03  0.15294330000E+03 0.  0.
    8880022    1    1    2    0    0 -0.33157445777E+03 -0.11879181165E+03 -0.25134464805E+03  0.45893234870E+03  0.15294330000E+03 0.  0.
<mgrwt>
<rscale>  0 0.38398538E+03</rscale>
<asrwt>0</asrwt>
<pdfrwt beam="1">  1        2 0.70614975E-01 0.38398538E+03</pdfrwt>
<pdfrwt beam="2">  1       -2 0.70570786E-01 0.38398538E+03</pdfrwt>
<totfact> 0.12834998E+02</totfact>
</mgrwt>
</event>
<event>
 4    1  0.5387657E-008  0.4007019E+03  0.7818608E-02  0.1043537E+00
         -2   -1    0    0    0  501 -0.00000000000E+00  0.00000000000E+00  0.18880118914E+03  0.18880118915E+03  0.25500000000E-02 0.  1.
          2   -1    0    0  501    0  0.00000000000E+00 -0.00000000000E+00 -0.10930031698E+04  0.10930031698E+04  0.25500000000E-02 0. -1.
    8880022    1    1    2    0    0  0.30701485450E+03  0.20715272103E+03 -0.75402888088E+03  0.85388616158E+03  0.15294330000E+03 0.  0.
    8880022    1    1    2    0    0 -0.30701485450E+03 -0.20715272103E+03 -0.15017309974E+03  0.42791819733E+03  0.15294330000E+03 0.  0.
<mgrwt>
<rscale>  0 0.40070191E+03</rscale>
<asrwt>0</asrwt>
<pdfrwt beam="1">  1        2 0.16815433E+00 0.40070191E+03</pdfrwt>
<pdfrwt beam="2">  1       -2 0.29046337E-01 0.40070191E+03</pdfrwt>
<totfact> 0.24841394E+02</totfact>
</mgrwt>
</event>
<event>
 4    1  0.5387657E-008  0.3392883E+03  0.7818608E-02  0.1067099E+00
         -2   -1    0    0    0  501 -0.00000000000E+00  0.00000000000E+00  0.62825016933E+02  0.62825016984E+02  0.25500000000E-02 0.  1.
          2   -1    0    0  501    0  0.00000000000E+00 -0.00000000000E+00 -0.19381986783E+04  0.19381986783E+04  0.25500000000E-02 0. -1.
    8880022    1    1    2    0    0  0.17479653836E+03  0.24732782136E+03 -0.70385979123E+03  0.78136748061E+03  0.15294330000E+03 0.  1.
    8880022    1    1    2    0    0 -0.17479653836E+03 -0.24732782136E+03 -0.11715138701E+04  0.12196562147E+04  0.15294330000E+03 0. -1.
<mgrwt>
<rscale>  0 0.33928828E+03</rscale>
<asrwt>0</asrwt>
<pdfrwt beam="1">  1        2 0.29818437E+00 0.33928828E+03</pdfrwt>
<pdfrwt beam="2">  1       -2 0.96653887E-02 0.33928828E+03</pdfrwt>
<totfact> 0.55643598E+02</totfact>
</mgrwt>
</event>
<event>
 4    1  0.5387657E-008  0.4556104E+03  0.7818608E-02  0.1026062E+00
          2   -1    0    0  501    0  0.00000000000E+00  0.00000000000E+00  0.38219218108E+04  0.38219218108E+04  0.25500000000E-02 0. -1.
         -2   -1    0    0    0  501 -0.00000000000E+00 -0.00000000000E+00 -0.11053386512E+03  0.11053386515E+03  0.25500000000E-02 0.  1.
    8880022    1    1    2    0    0 -0.15930666989E+03 -0.39851043362E+03  0.45341596971E+03  0.64278058105E+03  0.15294330000E+03 0.  0.
    8880022    1    1    2    0    0  0.15930666989E+03  0.39851043362E+03  0.32579719760E+04  0.32896750949E+04  0.15294330000E+03 0. -1.
<mgrwt>
<rscale>  0 0.45561040E+03</rscale>
<asrwt>0</asrwt>
<pdfrwt beam="1">  1        2 0.58798799E+00 0.45561040E+03</pdfrwt>
<pdfrwt beam="2">  1       -2 0.17005209E-01 0.45561040E+03</pdfrwt>
<totfact> 0.15685143E+01</totfact>
</mgrwt>
</event>
<event>
 4    1  0.5387657E-008  0.3002314E+03  0.7818608E-02  0.1085125E+00
         -2   -1    0    0    0  501 -0.00000000000E+00  0.00000000000E+00  0.27661875021E+03  0.27661875023E+03  0.25500000000E-02 0.  1.
          2   -1    0    0  501    0  0.00000000000E+00 -0.00000000000E+00 -0.88405245621E+03  0.88405245622E+03  0.25500000000E-02 0. -1.
    8880022    1    1    2    0    0 -0.21199937872E+03 -0.14766016457E+03  0.15742260036E+03  0.33899968864E+03  0.15294330000E+03 0.  0.
    8880022    1    1    2    0    0  0.21199937872E+03  0.14766016457E+03 -0.76485630636E+03  0.82167151780E+03  0.15294330000E+03 0. -1.
<mgrwt>
<rscale>  0 0.30023143E+03</rscale>
<asrwt>0</asrwt>
<pdfrwt beam="1">  1        2 0.13600807E+00 0.30023143E+03</pdfrwt>
<pdfrwt beam="2">  1       -2 0.42556731E-01 0.30023143E+03</pdfrwt>
<totfact> 0.16552344E+02</totfact>
</mgrwt>
</event>
<event>
 4    1  0.5387657E-008  0.5291791E+03  0.7818608E-02  0.1006431E+00
          2   -1    0    0  501    0  0.00000000000E+00  0.00000000000E+00  0.50850745902E+03  0.50850745903E+03  0.25500000000E-02 0. -1.
         -2   -1    0    0    0  501 -0.00000000000E+00 -0.00000000000E+00 -0.68820577268E+03  0.68820577269E+03  0.25500000000E-02 0.  1.
    8880022    1    1    2    0    0  0.37729535913E+03  0.33806370650E+03 -0.35731943384E+03  0.63851992020E+03  0.15294330000E+03 0.  0.
    8880022    1    1    2    0    0 -0.37729535913E+03 -0.33806370650E+03  0.17762112018E+03  0.55819331152E+03  0.15294330000E+03 0.  0.
<mgrwt>
<rscale>  0 0.52917909E+03</rscale>
<asrwt>0</asrwt>
<pdfrwt beam="1">  1        2 0.78231917E-01 0.52917909E+03</pdfrwt>
<pdfrwt beam="2">  1       -2 0.10587781E+00 0.52917909E+03</pdfrwt>
<totfact> 0.44826934E+01</totfact>
</mgrwt>
</event>
<event>
 4    1  0.5387657E-008  0.1168859E+04  0.7818608E-02  0.9140559E-01
         -2   -1    0    0    0  501 -0.00000000000E+00  0.00000000000E+00  0.66216584532E+03  0.66216584532E+03  0.25500000000E-02 0.  1.
          2   -1    0    0  501    0  0.00000000000E+00 -0.00000000000E+00 -0.28179532063E+04  0.28179532063E+04  0.25500000000E-02 0. -1.
    8880022    1    1    2    0    0 -0.92059728625E+03 -0.70380428300E+03 -0.17740641068E+03  0.11822455412E+04  0.15294330000E+03 0.  0.
    8880022    1    1    2    0    0  0.92059728625E+03  0.70380428300E+03 -0.19783809503E+04  0.22978735103E+04  0.15294330000E+03 0.  0.
<mgrwt>
<rscale>  0 0.11688591E+04</rscale>
<asrwt>0</asrwt>
<pdfrwt beam="1">  1        2 0.43353125E+00 0.11688591E+04</pdfrwt>
<pdfrwt beam="2">  1       -2 0.10187167E+00 0.11688591E+04</pdfrwt>
<totfact> 0.17668246E+00</totfact>
</mgrwt>
</event>
<event>
 4    1  0.5387657E-008  0.2832810E+03  0.7818608E-02  0.1093910E+00
          2   -1    0    0  501    0  0.00000000000E+00  0.00000000000E+00  0.26800134966E+04  0.26800134966E+04  0.25500000000E-02 0. -1.
         -2   -1    0    0    0  501 -0.00000000000E+00 -0.00000000000E+00 -0.42641177342E+03  0.42641177343E+03  0.25500000000E-02 0.  1.
    8880022    1    1    2    0    0  0.65665290848E+02 -0.22922600000E+03 -0.37088494103E+03  0.46669452750E+03  0.15294330000E+03 0.  0.
    8880022    1    1    2    0    0 -0.65665290848E+02  0.22922600000E+03  0.26244866642E+04  0.26397307425E+04  0.15294330000E+03 0. -1.
<mgrwt>
<rscale>  0 0.28328103E+03</rscale>
<asrwt>0</asrwt>
<pdfrwt beam="1">  1        2 0.41230976E+00 0.28328103E+03</pdfrwt>
<pdfrwt beam="2">  1       -2 0.65601812E-01 0.28328103E+03</pdfrwt>
<totfact> 0.70591876E+00</totfact>
</mgrwt>
</event>
<event>
 4    1  0.8589710E-008  0.1343932E+04  0.7818608E-02  0.8995434E-01
         -2   -1    0    0    0  501 -0.00000000000E+00  0.00000000000E+00  0.14299326278E+04  0.14299326278E+04  0.25500000000E-02 0.  1.
          2   -1    0    0  501    0  0.00000000000E+00 -0.00000000000E+00 -0.28923050065E+04  0.28923050065E+04  0.25500000000E-02 0. -1.
    8880022    1    1    2    0    0 -0.12846204135E+04 -0.36402185520E+03  0.89078814231E+03  0.16123450888E+04  0.15294330000E+03 0.  0.
    8880022    1    1    2    0    0  0.12846204135E+04  0.36402185520E+03 -0.23531605210E+04  0.27098925456E+04  0.15294330000E+03 0.  0.
<mgrwt>
<rscale>  0 0.13439320E+04</rscale>
<asrwt>0</asrwt>
<pdfrwt beam="1">  1        2 0.44497000E+00 0.13439320E+04</pdfrwt>
<pdfrwt beam="2">  1       -2 0.21998964E+00 0.13439320E+04</pdfrwt>
<totfact> 0.19283548E-01</totfact>
</mgrwt>
</event>
<event>
 4    1  0.5387657E-008  0.2595735E+03  0.7818608E-02  0.1107400E+00
         -2   -1    0    0    0  501 -0.00000000000E+00  0.00000000000E+00  0.14182659009E+03  0.14182659011E+03  0.25500000000E-02 0.  1.
          2   -1    0    0  501    0  0.00000000000E+00 -0.00000000000E+00 -0.10279594646E+04  0.10279594646E+04  0.25500000000E-02 0. -1.
    8880022    1    1    2    0    0 -0.18364801328E+03 -0.10129238296E+03 -0.14117796811E+02  0.25995712114E+03  0.15294330000E+03 0.  1.
    8880022    1    1    2    0    0  0.18364801328E+03  0.10129238296E+03 -0.87201507767E+03  0.90982893355E+03  0.15294330000E+03 0.  1.
<mgrwt>
<rscale>  0 0.25957348E+03</rscale>
<asrwt>0</asrwt>
<pdfrwt beam="1">  1        2 0.15814760E+00 0.25957348E+03</pdfrwt>
<pdfrwt beam="2">  1       -2 0.21819476E-01 0.25957348E+03</pdfrwt>
<totfact> 0.45916148E+02</totfact>
</mgrwt>
</event>
<event>
 4    1  0.5387657E-008  0.2079059E+03  0.7818608E-02  0.1143235E+00
         -2   -1    0    0    0  501 -0.00000000000E+00  0.00000000000E+00  0.12562217236E+03  0.12562217238E+03  0.25500000000E-02 0.  1.
          2   -1    0    0  501    0  0.00000000000E+00 -0.00000000000E+00 -0.18677253800E+04  0.18677253800E+04  0.25500000000E-02 0. -1.
    8880022    1    1    2    0    0 -0.81664226345E+01 -0.14059349459E+03  0.29145407246E+02  0.20993886957E+03  0.15294330000E+03 0.  0.
    8880022    1    1    2    0    0  0.81664226345E+01  0.14059349459E+03 -0.17712486149E+04  0.17834086828E+04  0.15294330000E+03 0. -1.
<mgrwt>
<rscale>  0 0.20790593E+03</rscale>
<asrwt>0</asrwt>
<pdfrwt beam="1">  1        2 0.28734235E+00 0.20790593E+03</pdfrwt>
<pdfrwt beam="2">  1       -2 0.19326489E-01 0.20790593E+03</pdfrwt>
<totfact> 0.19907261E+02</totfact>
</mgrwt>
</event>
<event>
 4    1  0.5387657E-008  0.2889748E+03  0.7818608E-02  0.1090886E+00
          2   -1    0    0  501    0  0.00000000000E+00  0.00000000000E+00  0.20923345851E+04  0.20923345851E+04  0.25500000000E-02 0. -1.
         -2   -1    0    0    0  501 -0.00000000000E+00 -0.00000000000E+00 -0.96975462936E+02  0.96975462970E+02  0.25500000000E-02 0.  1.
    8880022    1    1    2    0    0  0.22168871864E+03  0.10473255404E+03  0.15796726129E+03  0.32933281723E+03  0.15294330000E+03 0.  0.
    8880022    1    1    2    0    0 -0.22168871864E+03 -0.10473255404E+03  0.18373918608E+04  0.18599772308E+04  0.15294330000E+03 0.  0.
<mgrwt>
<rscale>  0 0.28897482E+03</rscale>
<asrwt>0</asrwt>
<pdfrwt beam="1">  1        2 0.32189761E+00 0.28897482E+03</pdfrwt>
<pdfrwt beam="2">  1       -2 0.14919303E-01 0.28897482E+03</pdfrwt>
<totfact> 0.22945650E+02</totfact>
</mgrwt>
</event>
<event>
 4    1  0.5387657E-008  0.6254055E+03  0.7818608E-02  0.9854056E-01
          2   -1    0    0  501    0  0.00000000000E+00  0.00000000000E+00  0.38246679845E+04  0.38246679845E+04  0.25500000000E-02 0. -1.
         -2   -1    0    0    0  501 -0.00000000000E+00 -0.00000000000E+00 -0.37307608281E+03  0.37307608282E+03  0.25500000000E-02 0.  1.
    8880022    1    1    2    0    0  0.40433297691E+03  0.45194600185E+03 -0.62420088190E+02  0.62851274071E+03  0.15294330000E+03 0.  0.
    8880022    1    1    2    0    0 -0.40433297691E+03 -0.45194600185E+03  0.35140119899E+04  0.35692313266E+04  0.15294330000E+03 0.  0.
<mgrwt>
<rscale>  0 0.62540547E+03</rscale>
<asrwt>0</asrwt>
<pdfrwt beam="1">  1        2 0.58841044E+00 0.62540547E+03</pdfrwt>
<pdfrwt beam="2">  1       -2 0.57396322E-01 0.62540547E+03</pdfrwt>
<totfact> 0.15239097E+00</totfact>
</mgrwt>
</event>
<event>
 4    1  0.5387657E-008  0.3241121E+03  0.7818608E-02  0.1073772E+00
          2   -1    0    0  501    0  0.00000000000E+00  0.00000000000E+00  0.22986772328E+04  0.22986772328E+04  0.25500000000E-02 0. -1.
         -2   -1    0    0    0  501 -0.00000000000E+00 -0.00000000000E+00 -0.15017446037E+03  0.15017446039E+03  0.25500000000E-02 0.  1.
    8880022    1    1    2    0    0 -0.27415634737E+03 -0.80593499037E+02  0.52981998886E+02  0.32841400718E+03  0.15294330000E+03 0.  0.
    8880022    1    1    2    0    0  0.27415634737E+03  0.80593499037E+02  0.20955207735E+04  0.21204376860E+04  0.15294330000E+03 0.  0.
<mgrwt>
<rscale>  0 0.32411212E+03</rscale>
<asrwt>0</asrwt>
<pdfrwt beam="1">  1        2 0.35364265E+00 0.32411212E+03</pdfrwt>
<pdfrwt beam="2">  1       -2 0.23103763E-01 0.32411212E+03</pdfrwt>
<totfact> 0.83634603E+01</totfact>
</mgrwt>
</event>
<event>
 4    1  0.5387657E-008  0.1373586E+04  0.7818608E-02  0.8973163E-01
          2   -1    0    0  501    0  0.00000000000E+00  0.00000000000E+00  0.16291961993E+04  0.16291961993E+04  0.25500000000E-02 0. -1.
         -2   -1    0    0    0  501 -0.00000000000E+00 -0.00000000000E+00 -0.14590980499E+04  0.14590980499E+04  0.25500000000E-02 0.  1.
    8880022    1    1    2    0    0 -0.89790095232E+03  0.10281640557E+04  0.78641215427E+03  0.15827770453E+04  0.15294330000E+03 0.  0.
    8880022    1    1    2    0    0  0.89790095232E+03 -0.10281640557E+04 -0.61631400492E+03  0.15055172039E+04  0.15294330000E+03 0.  0.
<mgrwt>
<rscale>  0 0.13735862E+04</rscale>
<asrwt>0</asrwt>
<pdfrwt beam="1">  1        2 0.25064557E+00 0.13735862E+04</pdfrwt>
<pdfrwt beam="2">  1       -2 0.22447662E+00 0.13735862E+04</pdfrwt>
<totfact> 0.94671933E-01</totfact>
</mgrwt>
</event>
<event>
 4    1  0.5387657E-008  0.2097207E+03  0.7818608E-02  0.1141787E+00
          2   -1    0    0  501    0  0.00000000000E+00  0.00000000000E+00  0.57135264221E+03  0.57135264222E+03  0.25500000000E-02 0. -1.
         -2   -1    0    0    0  501 -0.00000000000E+00 -0.00000000000E+00 -0.80737107317E+03  0.80737107317E+03  0.25500000000E-02 0.  1.
    8880022    1    1    2    0    0  0.13477741147E+03 -0.49256003572E+02 -0.77368383022E+03  0.80160428311E+03  0.15294330000E+03 0.  1.
    8880022    1    1    2    0    0 -0.13477741147E+03  0.49256003572E+02  0.53766539927E+03  0.57711943228E+03  0.15294330000E+03 0.  0.
<mgrwt>
<rscale>  0 0.20972067E+03</rscale>
<asrwt>0</asrwt>
<pdfrwt beam="1">  1        2 0.87900406E-01 0.20972067E+03</pdfrwt>
<pdfrwt beam="2">  1       -2 0.12421094E+00 0.20972067E+03</pdfrwt>
<totfact> 0.28074395E+01</totfact>
</mgrwt>
</event>
<event>
 4    1  0.5387657E-008  0.8242149E+03  0.7818608E-02  0.9525614E-01
         -2   -1    0    0    0  501 -0.00000000000E+00  0.00000000000E+00  0.39443241183E+03  0.39443241184E+03  0.25500000000E-02 0.  1.
          2   -1    0    0  501    0  0.00000000000E+00 -0.00000000000E+00 -0.20212756453E+04  0.20212756453E+04  0.25500000000E-02 0. -1.
    8880022    1    1    2    0    0  0.10920811399E+03  0.80250365957E+03 -0.12779593272E+04  0.15206939964E+04  0.15294330000E+03 0.  0.
    8880022    1    1    2    0    0 -0.10920811399E+03 -0.80250365957E+03 -0.34888390626E+03  0.89501406070E+03  0.15294330000E+03 0.  0.
<mgrwt>
<rscale>  0 0.82421489E+03</rscale>
<asrwt>0</asrwt>
<pdfrwt beam="1">  1        2 0.31096548E+00 0.82421489E+03</pdfrwt>
<pdfrwt beam="2">  1       -2 0.60681911E-01 0.82421489E+03</pdfrwt>
<totfact> 0.16844377E+01</totfact>
</mgrwt>
</event>
<event>
 4    1  0.5387657E-008  0.9848692E+03  0.7818608E-02  0.9325297E-01
          2   -1    0    0  501    0  0.00000000000E+00  0.00000000000E+00  0.23598423992E+04  0.23598423992E+04  0.25500000000E-02 0. -1.
         -2   -1    0    0    0  501 -0.00000000000E+00 -0.00000000000E+00 -0.48855816082E+03  0.48855816082E+03  0.25500000000E-02 0.  1.
    8880022    1    1    2    0    0 -0.37915403507E+03  0.89600107913E+03  0.15029790722E+04  0.17969177667E+04  0.15294330000E+03 0.  0.
    8880022    1    1    2    0    0  0.37915403507E+03 -0.89600107913E+03  0.36830516625E+03  0.10514827933E+04  0.15294330000E+03 0.  0.
<mgrwt>
<rscale>  0 0.98486921E+03</rscale>
<asrwt>0</asrwt>
<pdfrwt beam="1">  1        2 0.36305267E+00 0.98486921E+03</pdfrwt>
<pdfrwt beam="2">  1       -2 0.75162795E-01 0.98486921E+03</pdfrwt>
<totfact> 0.67277658E+00</totfact>
</mgrwt>
</event>
<event>
 4    1  0.5387657E-008  0.2976782E+03  0.7818608E-02  0.1086407E+00
          2   -1    0    0  501    0  0.00000000000E+00  0.00000000000E+00  0.36592416650E+04  0.36592416650E+04  0.25500000000E-02 0. -1.
         -2   -1    0    0    0  501 -0.00000000000E+00 -0.00000000000E+00 -0.11550369229E+03  0.11550369232E+03  0.25500000000E-02 0.  1.
    8880022    1    1    2    0    0  0.23154250979E+03  0.10774386015E+03  0.34497677727E+04  0.34625871847E+04  0.15294330000E+03 0.  0.
    8880022    1    1    2    0    0 -0.23154250979E+03 -0.10774386015E+03  0.93970200073E+02  0.31215817265E+03  0.15294330000E+03 0.  0.
<mgrwt>
<rscale>  0 0.29767823E+03</rscale>
<asrwt>0</asrwt>
<pdfrwt beam="1">  1        2 0.56296020E+00 0.29767823E+03</pdfrwt>
<pdfrwt beam="2">  1       -2 0.17769801E-01 0.29767823E+03</pdfrwt>
<totfact> 0.20230317E+01</totfact>
</mgrwt>
</event>
<event>
 4    1  0.5387657E-008  0.4738271E+03  0.7818608E-02  0.1020846E+00
         -2   -1    0    0    0  501 -0.00000000000E+00  0.00000000000E+00  0.22407841480E+03  0.22407841481E+03  0.25500000000E-02 0.  1.
          2   -1    0    0  501    0  0.00000000000E+00 -0.00000000000E+00 -0.18635172706E+04  0.18635172706E+04  0.25500000000E-02 0. -1.
    8880022    1    1    2    0    0 -0.24055527610E+03 -0.37848856956E+03 -0.10998157961E+03  0.48642372374E+03  0.15294330000E+03 0.  0.
    8880022    1    1    2    0    0  0.24055527610E+03  0.37848856956E+03 -0.15294572762E+04  0.16011719617E+04  0.15294330000E+03 0.  0.
<mgrwt>
<rscale>  0 0.47382707E+03</rscale>
<asrwt>0</asrwt>
<pdfrwt beam="1">  1        2 0.28669495E+00 0.47382707E+03</pdfrwt>
<pdfrwt beam="2">  1       -2 0.34473604E-01 0.47382707E+03</pdfrwt>
<totfact> 0.66883985E+01</totfact>
</mgrwt>
</event>
<event>
 4    1  0.5387657E-008  0.5678516E+03  0.7818608E-02  0.9974444E-01
          2   -1    0    0  501    0  0.00000000000E+00  0.00000000000E+00  0.14540500455E+04  0.14540500455E+04  0.25500000000E-02 0. -1.
         -2   -1    0    0    0  501 -0.00000000000E+00 -0.00000000000E+00 -0.74971539401E+03  0.74971539401E+03  0.25500000000E-02 0.  1.
    8880022    1    1    2    0    0  0.19838725081E+03 -0.50961386123E+03 -0.57249736408E+03  0.80635517840E+03  0.15294330000E+03 0.  0.
    8880022    1    1    2    0    0 -0.19838725081E+03  0.50961386123E+03  0.12768320155E+04  0.13974102611E+04  0.15294330000E+03 0.  0.
<mgrwt>
<rscale>  0 0.56785160E+03</rscale>
<asrwt>0</asrwt>
<pdfrwt beam="1">  1        2 0.22370001E+00 0.56785160E+03</pdfrwt>
<pdfrwt beam="2">  1       -2 0.11534083E+00 0.56785160E+03</pdfrwt>
<totfact> 0.83188838E+00</totfact>
</mgrwt>
</event>
<event>
 4    1  0.5387657E-008  0.4647670E+03  0.7818608E-02  0.1023408E+00
          2   -1    0    0  501    0  0.00000000000E+00  0.00000000000E+00  0.85295794295E+03  0.85295794295E+03  0.25500000000E-02 0. -1.
         -2   -1    0    0    0  501 -0.00000000000E+00 -0.00000000000E+00 -0.57006372836E+03  0.57006372837E+03  0.25500000000E-02 0.  1.
    8880022    1    1    2    0    0 -0.27063655615E+03 -0.34550332324E+03  0.67187264470E+03  0.81695850299E+03  0.15294330000E+03 0. -1.
    8880022    1    1    2    0    0  0.27063655615E+03  0.34550332324E+03 -0.38897843012E+03  0.60606316833E+03  0.15294330000E+03 0.  0.
<mgrwt>
<rscale>  0 0.46476698E+03</rscale>
<asrwt>0</asrwt>
<pdfrwt beam="1">  1        2 0.13122430E+00 0.46476698E+03</pdfrwt>
<pdfrwt beam="2">  1       -2 0.87702112E-01 0.46476698E+03</pdfrwt>
<totfact> 0.37089985E+01</totfact>
</mgrwt>
</event>
<event>
 4    1  0.5387657E-008  0.8710352E+03  0.7818608E-02  0.9462531E-01
         -2   -1    0    0    0  501 -0.00000000000E+00  0.00000000000E+00  0.76495383383E+03  0.76495383383E+03  0.25500000000E-02 0.  1.
          2   -1    0    0  501    0  0.00000000000E+00 -0.00000000000E+00 -0.23618942042E+04  0.23618942042E+04  0.25500000000E-02 0. -1.
    8880022    1    1    2    0    0 -0.78336785002E+03 -0.34877718374E+03 -0.19892114148E+04  0.21715580623E+04  0.15294330000E+03 0.  0.
    8880022    1    1    2    0    0  0.78336785002E+03  0.34877718374E+03  0.39227104442E+03  0.95528997569E+03  0.15294330000E+03 0.  0.
<mgrwt>
<rscale>  0 0.87103523E+03</rscale>
<asrwt>0</asrwt>
<pdfrwt beam="1">  1        2 0.36336834E+00 0.87103523E+03</pdfrwt>
<pdfrwt beam="2">  1       -2 0.11768521E+00 0.87103523E+03</pdfrwt>
<totfact> 0.23862541E+00</totfact>
</mgrwt>
</event>
<event>
 4    1  0.5387657E-008  0.1288595E+04  0.7818608E-02  0.9038659E-01
         -2   -1    0    0    0  501 -0.00000000000E+00  0.00000000000E+00  0.63863999524E+03  0.63863999525E+03  0.25500000000E-02 0.  1.
          2   -1    0    0  501    0  0.00000000000E+00 -0.00000000000E+00 -0.31277055574E+04  0.31277055574E+04  0.25500000000E-02 0. -1.
    8880022    1    1    2    0    0 -0.89429405718E+03 -0.91505374827E+03 -0.47102485922E+03  0.13719844365E+04  0.15294330000E+03 0.  0.
    8880022    1    1    2    0    0  0.89429405718E+03  0.91505374827E+03 -0.20180407030E+04  0.23943611162E+04  0.15294330000E+03 0.  0.
<mgrwt>
<rscale>  0 0.12885949E+04</rscale>
<asrwt>0</asrwt>
<pdfrwt beam="1">  1        2 0.48118546E+00 0.12885949E+04</pdfrwt>
<pdfrwt beam="2">  1       -2 0.98252309E-01 0.12885949E+04</pdfrwt>
<totfact> 0.12211549E+00</totfact>
</mgrwt>
</event>
<event>
 4    1  0.5387657E-008  0.4512120E+03  0.7818608E-02  0.1027361E+00
         -2   -1    0    0    0  501 -0.00000000000E+00  0.00000000000E+00  0.15676872089E+04  0.15676872089E+04  0.25500000000E-02 0.  1.
          2   -1    0    0  501    0  0.00000000000E+00 -0.00000000000E+00 -0.41942560219E+03  0.41942560220E+03  0.25500000000E-02 0. -1.
    8880022    1    1    2    0    0  0.38736371416E+03 -0.17363744171E+03  0.13996603326E+04  0.14705921623E+04  0.15294330000E+03 0.  1.
    8880022    1    1    2    0    0 -0.38736371416E+03  0.17363744171E+03 -0.25139872589E+03  0.51652064877E+03  0.15294330000E+03 0.  0.
<mgrwt>
<rscale>  0 0.45121199E+03</rscale>
<asrwt>0</asrwt>
<pdfrwt beam="1">  1        2 0.64527015E-01 0.45121199E+03</pdfrwt>
<pdfrwt beam="2">  1       -2 0.24118265E+00 0.45121199E+03</pdfrwt>
<totfact> 0.59050497E+00</totfact>
</mgrwt>
</event>
<event>
 4    1  0.5387657E-008  0.6649919E+03  0.7818608E-02  0.9779048E-01
         -2   -1    0    0    0  501 -0.00000000000E+00  0.00000000000E+00  0.16470082201E+03  0.16470082203E+03  0.25500000000E-02 0.  1.
          2   -1    0    0  501    0  0.00000000000E+00 -0.00000000000E+00 -0.32996371857E+04  0.32996371857E+04  0.25500000000E-02 0. -1.
    8880022    1    1    2    0    0  0.44324895541E+03 -0.47154316970E+03 -0.23150910528E+04  0.24087052192E+04  0.15294330000E+03 0.  0.
    8880022    1    1    2    0    0 -0.44324895541E+03  0.47154316970E+03 -0.81984531090E+03  0.10556327885E+04  0.15294330000E+03 0.  0.
<mgrwt>
<rscale>  0 0.66499192E+03</rscale>
<asrwt>0</asrwt>
<pdfrwt beam="1">  1        2 0.50763644E+00 0.66499192E+03</pdfrwt>
<pdfrwt beam="2">  1       -2 0.25338590E-01 0.66499192E+03</pdfrwt>
<totfact> 0.16949049E+01</totfact>
</mgrwt>
</event>
<event>
 4    1  0.5387657E-008  0.2821049E+03  0.7818608E-02  0.1094545E+00
         -2   -1    0    0    0  501 -0.00000000000E+00  0.00000000000E+00  0.29038882595E+03  0.29038882597E+03  0.25500000000E-02 0.  1.
          2   -1    0    0  501    0  0.00000000000E+00 -0.00000000000E+00 -0.93493648164E+03  0.93493648164E+03  0.25500000000E-02 0. -1.
    8880022    1    1    2    0    0  0.17999042519E+03  0.15425616104E+03 -0.83737364947E+03  0.88361631845E+03  0.15294330000E+03 0. -1.
    8880022    1    1    2    0    0 -0.17999042519E+03 -0.15425616104E+03  0.19282599379E+03  0.34170898916E+03  0.15294330000E+03 0.  0.
<mgrwt>
<rscale>  0 0.28210489E+03</rscale>
<asrwt>0</asrwt>
<pdfrwt beam="1">  1        2 0.14383638E+00 0.28210489E+03</pdfrwt>
<pdfrwt beam="2">  1       -2 0.44675204E-01 0.28210489E+03</pdfrwt>
<totfact> 0.13994320E+02</totfact>
</mgrwt>
</event>
<event>
 4    1  0.5387657E-008  0.9664311E+03  0.7818608E-02  0.9346149E-01
         -2   -1    0    0    0  501 -0.00000000000E+00  0.00000000000E+00  0.69812863694E+03  0.69812863695E+03  0.25500000000E-02 0.  1.
          2   -1    0    0  501    0  0.00000000000E+00 -0.00000000000E+00 -0.24562817492E+04  0.24562817492E+04  0.25500000000E-02 0. -1.
    8880022    1    1    2    0    0  0.93937092891E+03 -0.16786816153E+03  0.18519997611E+03  0.98401633417E+03  0.15294330000E+03 0.  0.
    8880022    1    1    2    0    0 -0.93937092891E+03  0.16786816153E+03 -0.19433530883E+04  0.21703940519E+04  0.15294330000E+03 0.  0.
<mgrwt>
<rscale>  0 0.96643112E+03</rscale>
<asrwt>0</asrwt>
<pdfrwt beam="1">  1        2 0.37788950E+00 0.96643112E+03</pdfrwt>
<pdfrwt beam="2">  1       -2 0.10740441E+00 0.96643112E+03</pdfrwt>
<totfact> 0.25995248E+00</totfact>
</mgrwt>
</event>
<event>
 4    1  0.5387657E-008  0.4851082E+03  0.7818608E-02  0.1017741E+00
          2   -1    0    0  501    0  0.00000000000E+00  0.00000000000E+00  0.62875815271E+03  0.62875815271E+03  0.25500000000E-02 0. -1.
         -2   -1    0    0    0  501 -0.00000000000E+00 -0.00000000000E+00 -0.91510809537E+03  0.91510809538E+03  0.25500000000E-02 0.  1.
    8880022    1    1    2    0    0 -0.94697238694E+02 -0.45052269782E+03 -0.73661136075E+03  0.88200125740E+03  0.15294330000E+03 0.  0.
    8880022    1    1    2    0    0  0.94697238694E+02  0.45052269782E+03  0.45026141808E+03  0.66186499069E+03  0.15294330000E+03 0.  0.
<mgrwt>
<rscale>  0 0.48510815E+03</rscale>
<asrwt>0</asrwt>
<pdfrwt beam="1">  1        2 0.96732024E-01 0.48510815E+03</pdfrwt>
<pdfrwt beam="2">  1       -2 0.14078586E+00 0.48510815E+03</pdfrwt>
<totfact> 0.17345276E+01</totfact>
</mgrwt>
</event>
<event>
 4    1  0.5387657E-008  0.3168431E+03  0.7818608E-02  0.1077111E+00
          2   -1    0    0  501    0  0.00000000000E+00  0.00000000000E+00  0.28188049750E+03  0.28188049752E+03  0.25500000000E-02 0. -1.
         -2   -1    0    0    0  501 -0.00000000000E+00 -0.00000000000E+00 -0.11244686023E+04  0.11244686023E+04  0.25500000000E-02 0.  1.
    8880022    1    1    2    0    0 -0.13670736995E+03  0.24147250447E+03  0.15995514726E+03  0.35492982062E+03  0.15294330000E+03 0.  0.
    8880022    1    1    2    0    0  0.13670736995E+03 -0.24147250447E+03 -0.10025432521E+04  0.10514192792E+04  0.15294330000E+03 0.  0.
<mgrwt>
<rscale>  0 0.31684307E+03</rscale>
<asrwt>0</asrwt>
<pdfrwt beam="1">  1        2 0.43366231E-01 0.31684307E+03</pdfrwt>
<pdfrwt beam="2">  1       -2 0.17299517E+00 0.31684307E+03</pdfrwt>
<totfact> 0.25409416E+01</totfact>
</mgrwt>
</event>
<event>
 4    1  0.5387657E-008  0.3575995E+03  0.7818608E-02  0.1059538E+00
         -2   -1    0    0    0  501 -0.00000000000E+00  0.00000000000E+00  0.13853287437E+04  0.13853287437E+04  0.25500000000E-02 0.  1.
          2   -1    0    0  501    0  0.00000000000E+00 -0.00000000000E+00 -0.50877224035E+03  0.50877224035E+03  0.25500000000E-02 0. -1.
    8880022    1    1    2    0    0 -0.67294667095E+01 -0.32317249039E+03  0.12951189989E+04  0.13435812661E+04  0.15294330000E+03 0.  0.
    8880022    1    1    2    0    0  0.67294667095E+01  0.32317249039E+03 -0.41856249550E+03  0.55051971801E+03  0.15294330000E+03 0.  0.
<mgrwt>
<rscale>  0 0.35759949E+03</rscale>
<asrwt>0</asrwt>
<pdfrwt beam="1">  1        2 0.78272654E-01 0.35759949E+03</pdfrwt>
<pdfrwt beam="2">  1       -2 0.21312749E+00 0.35759949E+03</pdfrwt>
<totfact> 0.71972900E+00</totfact>
</mgrwt>
</event>
<event>
 4    1  0.5387657E-008  0.7447804E+03  0.7818608E-02  0.9643575E-01
         -2   -1    0    0    0  501 -0.00000000000E+00  0.00000000000E+00  0.34407767257E+04  0.34407767257E+04  0.25500000000E-02 0.  1.
          2   -1    0    0  501    0  0.00000000000E+00 -0.00000000000E+00 -0.38303651769E+03  0.38303651770E+03  0.25500000000E-02 0. -1.
    8880022    1    1    2    0    0 -0.44164756356E+03  0.57987376815E+03  0.73912235535E+02  0.74843892801E+03  0.15294330000E+03 0.  0.
    8880022    1    1    2    0    0  0.44164756356E+03 -0.57987376815E+03  0.29838279725E+04  0.30753743154E+04  0.15294330000E+03 0.  1.
<mgrwt>
<rscale>  0 0.74478038E+03</rscale>
<asrwt>0</asrwt>
<pdfrwt beam="1">  1        2 0.58928696E-01 0.74478038E+03</pdfrwt>
<pdfrwt beam="2">  1       -2 0.52935026E+00 0.74478038E+03</pdfrwt>
<totfact> 0.96502009E-02</totfact>
</mgrwt>
</event>
<event>
 4    1  0.5387657E-008  0.5412657E+03  0.7818608E-02  0.1003536E+00
          2   -1    0    0  501    0  0.00000000000E+00  0.00000000000E+00  0.85938380789E+03  0.85938380789E+03  0.25500000000E-02 0. -1.
         -2   -1    0    0    0  501 -0.00000000000E+00 -0.00000000000E+00 -0.44290839848E+03  0.44290839848E+03  0.25500000000E-02 0.  1.
    8880022    1    1    2    0    0  0.51541248357E+03  0.62665061405E+02  0.52072181006E+03  0.75107908679E+03  0.15294330000E+03 0.  0.
    8880022    1    1    2    0    0 -0.51541248357E+03 -0.62665061405E+02 -0.10424640064E+03  0.55121311958E+03  0.15294330000E+03 0.  0.
<mgrwt>
<rscale>  0 0.54126573E+03</rscale>
<asrwt>0</asrwt>
<pdfrwt beam="1">  1        2 0.13221289E+00 0.54126573E+03</pdfrwt>
<pdfrwt beam="2">  1       -2 0.68139755E-01 0.54126573E+03</pdfrwt>
<totfact> 0.63671974E+01</totfact>
</mgrwt>
</event>
<event>
 4    1  0.5387657E-008  0.7846834E+03  0.7818608E-02  0.9582456E-01
         -2   -1    0    0    0  501 -0.00000000000E+00  0.00000000000E+00  0.39363000831E+03  0.39363000832E+03  0.25500000000E-02 0.  1.
          2   -1    0    0  501    0  0.00000000000E+00 -0.00000000000E+00 -0.17553985628E+04  0.17553985628E+04  0.25500000000E-02 0. -1.
    8880022    1    1    2    0    0 -0.19210912186E+03 -0.74527204276E+03 -0.10354789633E+04  0.12992092475E+04  0.15294330000E+03 0.  0.
    8880022    1    1    2    0    0  0.19210912186E+03  0.74527204276E+03 -0.32628959120E+03  0.84981932360E+03  0.15294330000E+03 0.  0.
<mgrwt>
<rscale>  0 0.78468337E+03</rscale>
<asrwt>0</asrwt>
<pdfrwt beam="1">  1        2 0.27006131E+00 0.78468337E+03</pdfrwt>
<pdfrwt beam="2">  1       -2 0.60558464E-01 0.78468337E+03</pdfrwt>
<totfact> 0.23757589E+01</totfact>
</mgrwt>
</event>
<event>
 4    1  0.5387657E-008  0.5184474E+03  0.7818608E-02  0.1009073E+00
          2   -1    0    0  501    0  0.00000000000E+00  0.00000000000E+00  0.15008386959E+04  0.15008386959E+04  0.25500000000E-02 0. -1.
         -2   -1    0    0    0  501 -0.00000000000E+00 -0.00000000000E+00 -0.23856500510E+03  0.23856500511E+03  0.25500000000E-02 0.  1.
    8880022    1    1    2    0    0 -0.47867369641E+03 -0.12754445394E+03  0.19689859639E+03  0.55457804288E+03  0.15294330000E+03 0.  0.
    8880022    1    1    2    0    0  0.47867369641E+03  0.12754445394E+03  0.10653750944E+04  0.11848256581E+04  0.15294330000E+03 0.  0.
<mgrwt>
<rscale>  0 0.51844744E+03</rscale>
<asrwt>0</asrwt>
<pdfrwt beam="1">  1        2 0.23089826E+00 0.51844744E+03</pdfrwt>
<pdfrwt beam="2">  1       -2 0.36702309E-01 0.51844744E+03</pdfrwt>
<totfact> 0.92671687E+01</totfact>
</mgrwt>
</event>
<event>
 4    1  0.5387657E-008  0.4361643E+03  0.7818608E-02  0.1031930E+00
         -2   -1    0    0    0  501 -0.00000000000E+00  0.00000000000E+00  0.13792834618E+04  0.13792834618E+04  0.25500000000E-02 0.  1.
          2   -1    0    0  501    0  0.00000000000E+00 -0.00000000000E+00 -0.10279516849E+04  0.10279516849E+04  0.25500000000E-02 0. -1.
    8880022    1    1    2    0    0  0.33259075522E+03 -0.23713086253E+03 -0.94429638344E+03  0.10401610304E+04  0.15294330000E+03 0. -1.
    8880022    1    1    2    0    0 -0.33259075522E+03  0.23713086253E+03  0.12956281604E+04  0.13670741163E+04  0.15294330000E+03 0.  0.
<mgrwt>
<rscale>  0 0.43616431E+03</rscale>
<asrwt>0</asrwt>
<pdfrwt beam="1">  1        2 0.15814641E+00 0.43616431E+03</pdfrwt>
<pdfrwt beam="2">  1       -2 0.21219746E+00 0.43616431E+03</pdfrwt>
<totfact> 0.29321667E+00</totfact>
</mgrwt>
</event>
<event>
 4    1  0.5387657E-008  0.6611219E+03  0.7818608E-02  0.9786131E-01
         -2   -1    0    0    0  501 -0.00000000000E+00  0.00000000000E+00  0.30819443689E+03  0.30819443690E+03  0.25500000000E-02 0.  1.
          2   -1    0    0  501    0  0.00000000000E+00 -0.00000000000E+00 -0.18967313331E+04  0.18967313331E+04  0.25500000000E-02 0. -1.
    8880022    1    1    2    0    0  0.47478490574E+03 -0.43390070820E+03 -0.24051680189E+03  0.70351298233E+03  0.15294330000E+03 0.  0.
    8880022    1    1    2    0    0 -0.47478490574E+03  0.43390070820E+03 -0.13480200944E+04  0.15014127877E+04  0.15294330000E+03 0.  0.
<mgrwt>
<rscale>  0 0.66112191E+03</rscale>
<asrwt>0</asrwt>
<pdfrwt beam="1">  1        2 0.29180481E+00 0.66112191E+03</pdfrwt>
<pdfrwt beam="2">  1       -2 0.47414530E-01 0.66112191E+03</pdfrwt>
<totfact> 0.33507688E+01</totfact>
</mgrwt>
</event>
<event>
 4    1  0.5387657E-008  0.5387938E+03  0.7818608E-02  0.1004122E+00
          2   -1    0    0  501    0  0.00000000000E+00  0.00000000000E+00  0.72889637267E+03  0.72889637267E+03  0.25500000000E-02 0. -1.
         -2   -1    0    0    0  501 -0.00000000000E+00 -0.00000000000E+00 -0.42914924410E+03  0.42914924410E+03  0.25500000000E-02 0.  1.
    8880022    1    1    2    0    0  0.35233929272E+03 -0.37784137561E+03  0.30518858906E+03  0.61922436179E+03  0.15294330000E+03 0.  0.
    8880022    1    1    2    0    0 -0.35233929272E+03  0.37784137561E+03 -0.54414604888E+01  0.53882125499E+03  0.15294330000E+03 0.  0.
<mgrwt>
<rscale>  0 0.53879378E+03</rscale>
<asrwt>0</asrwt>
<pdfrwt beam="1">  1        2 0.11213790E+00 0.53879378E+03</pdfrwt>
<pdfrwt beam="2">  1       -2 0.66022961E-01 0.53879378E+03</pdfrwt>
<totfact> 0.84525793E+01</totfact>
</mgrwt>
</event>
<event>
 4    1  0.5387657E-008  0.2748830E+03  0.7818608E-02  0.1098517E+00
          2   -1    0    0  501    0  0.00000000000E+00  0.00000000000E+00  0.26273653297E+04  0.26273653297E+04  0.25500000000E-02 0. -1.
         -2   -1    0    0    0  501 -0.00000000000E+00 -0.00000000000E+00 -0.18163484482E+03  0.18163484484E+03  0.25500000000E-02 0.  1.
    8880022    1    1    2    0    0  0.13548498000E+03 -0.18388272076E+03  0.25113861389E+04  0.25263849720E+04  0.15294330000E+03 0.  0.
    8880022    1    1    2    0    0 -0.13548498000E+03  0.18388272076E+03 -0.65655654053E+02  0.28261520257E+03  0.15294330000E+03 0.  0.
<mgrwt>
<rscale>  0 0.27488304E+03</rscale>
<asrwt>0</asrwt>
<pdfrwt beam="1">  1        2 0.40421003E+00 0.27488304E+03</pdfrwt>
<pdfrwt beam="2">  1       -2 0.27943824E-01 0.27488304E+03</pdfrwt>
<totfact> 0.40038816E+01</totfact>
</mgrwt>
</event>
<event>
 4    1  0.5387657E-008  0.1138534E+04  0.7818608E-02  0.9168427E-01
         -2   -1    0    0    0  501 -0.00000000000E+00  0.00000000000E+00  0.38440707916E+03  0.38440707917E+03  0.25500000000E-02 0.  1.
          2   -1    0    0  501    0  0.00000000000E+00 -0.00000000000E+00 -0.37960227540E+04  0.37960227540E+04  0.25500000000E-02 0. -1.
    8880022    1    1    2    0    0 -0.21105347254E+03 -0.11082981383E+04 -0.24043115840E+04  0.26602582915E+04  0.15294330000E+03 0.  0.
    8880022    1    1    2    0    0  0.21105347254E+03  0.11082981383E+04 -0.10073040908E+04  0.15201715416E+04  0.15294330000E+03 0.  0.
<mgrwt>
<rscale>  0 0.11385341E+04</rscale>
<asrwt>0</asrwt>
<pdfrwt beam="1">  1        2 0.58400348E+00 0.11385341E+04</pdfrwt>
<pdfrwt beam="2">  1       -2 0.59139553E-01 0.11385341E+04</pdfrwt>
<totfact> 0.13514477E+00</totfact>
</mgrwt>
</event>
<event>
 4    1  0.1070250E-007  0.1605987E+04  0.7818608E-02  0.8816878E-01
         -2   -1    0    0    0  501 -0.00000000000E+00  0.00000000000E+00  0.15547647869E+04  0.15547647869E+04  0.25500000000E-02 0.  1.
          2   -1    0    0  501    0  0.00000000000E+00 -0.00000000000E+00 -0.32121912668E+04  0.32121912668E+04  0.25500000000E-02 0. -1.
    8880022    1    1    2    0    0  0.15985881461E+04  0.17834669597E+02  0.82872517422E+03  0.18072020374E+04  0.15294330000E+03 0.  0.
    8880022    1    1    2    0    0 -0.15985881461E+04 -0.17834669597E+02 -0.24861516541E+04  0.29597540163E+04  0.15294330000E+03 0.  0.
<mgrwt>
<rscale>  0 0.16059869E+04</rscale>
<asrwt>0</asrwt>
<pdfrwt beam="1">  1        2 0.49418327E+00 0.16059869E+04</pdfrwt>
<pdfrwt beam="2">  1       -2 0.23919458E+00 0.16059869E+04</pdfrwt>
<totfact> 0.88693508E-02</totfact>
</mgrwt>
</event>
<event>
 4    1  0.5387657E-008  0.3352705E+03  0.7818608E-02  0.1068828E+00
         -2   -1    0    0    0  501 -0.00000000000E+00  0.00000000000E+00  0.25073113129E+03  0.25073113130E+03  0.25500000000E-02 0.  1.
          2   -1    0    0  501    0  0.00000000000E+00 -0.00000000000E+00 -0.56976215775E+03  0.56976215776E+03  0.25500000000E-02 0. -1.
    8880022    1    1    2    0    0 -0.71897737968E+02  0.28956062441E+03 -0.34892144881E+03  0.48389303610E+03  0.15294330000E+03 0. -1.
    8880022    1    1    2    0    0  0.71897737968E+02 -0.28956062441E+03  0.29890422341E+02  0.33660025296E+03  0.15294330000E+03 0.  0.
<mgrwt>
<rscale>  0 0.33527048E+03</rscale>
<asrwt>0</asrwt>
<pdfrwt beam="1">  1        2 0.87655716E-01 0.33527048E+03</pdfrwt>
<pdfrwt beam="2">  1       -2 0.38574020E-01 0.33527048E+03</pdfrwt>
<totfact> 0.34350487E+02</totfact>
</mgrwt>
</event>
<event>
 4    1  0.5387657E-008  0.8660867E+03  0.7818608E-02  0.9468997E-01
         -2   -1    0    0    0  501 -0.00000000000E+00  0.00000000000E+00  0.53565444819E+03  0.53565444820E+03  0.25500000000E-02 0.  1.
          2   -1    0    0  501    0  0.00000000000E+00 -0.00000000000E+00 -0.17126257719E+04  0.17126257719E+04  0.25500000000E-02 0. -1.
    8880022    1    1    2    0    0 -0.79590003367E+03 -0.30538103756E+03 -0.10685011511E+04  0.13754274988E+04  0.15294330000E+03 0.  0.
    8880022    1    1    2    0    0  0.79590003367E+03  0.30538103756E+03 -0.10847017267E+03  0.87285272130E+03  0.15294330000E+03 0.  0.
<mgrwt>
<rscale>  0 0.86608666E+03</rscale>
<asrwt>0</asrwt>
<pdfrwt beam="1">  1        2 0.26348089E+00 0.86608666E+03</pdfrwt>
<pdfrwt beam="2">  1       -2 0.82408377E-01 0.86608666E+03</pdfrwt>
<totfact> 0.12641960E+01</totfact>
</mgrwt>
</event>
<event>
 4    1  0.5387657E-008  0.2438591E+03  0.7818608E-02  0.1117248E+00
          2   -1    0    0  501    0  0.00000000000E+00  0.00000000000E+00  0.27209219574E+04  0.27209219574E+04  0.25500000000E-02 0. -1.
         -2   -1    0    0    0  501 -0.00000000000E+00 -0.00000000000E+00 -0.35431785727E+02  0.35431785819E+02  0.25500000000E-02 0.  1.
    8880022    1    1    2    0    0  0.12201920838E+03 -0.14555735449E+03  0.48964909631E+03  0.54701327332E+03  0.15294330000E+03 0.  1.
    8880022    1    1    2    0    0 -0.12201920838E+03  0.14555735449E+03  0.21958410754E+04  0.22093404699E+04  0.15294330000E+03 0.  0.
<mgrwt>
<rscale>  0 0.24385915E+03</rscale>
<asrwt>0</asrwt>
<pdfrwt beam="1">  1        2 0.41860338E+00 0.24385915E+03</pdfrwt>
<pdfrwt beam="2">  1       -2 0.54510440E-02 0.24385915E+03</pdfrwt>
<totfact> 0.52184463E+02</totfact>
</mgrwt>
</event>
<event>
 4    1  0.5387657E-008  0.4563038E+03  0.7818608E-02  0.1025859E+00
         -2   -1    0    0    0  501 -0.00000000000E+00  0.00000000000E+00  0.13792311272E+04  0.13792311272E+04  0.25500000000E-02 0.  1.
          2   -1    0    0  501    0  0.00000000000E+00 -0.00000000000E+00 -0.61158148320E+03  0.61158148320E+03  0.25500000000E-02 0. -1.
    8880022    1    1    2    0    0 -0.11259757990E+03  0.41490152557E+03  0.12476857068E+04  0.13285077218E+04  0.15294330000E+03 0.  0.
    8880022    1    1    2    0    0  0.11259757990E+03 -0.41490152557E+03 -0.48003606277E+03  0.66230488862E+03  0.15294330000E+03 0. -1.
<mgrwt>
<rscale>  0 0.45630378E+03</rscale>
<asrwt>0</asrwt>
<pdfrwt beam="1">  1        2 0.94089460E-01 0.45630378E+03</pdfrwt>
<pdfrwt beam="2">  1       -2 0.21218940E+00 0.45630378E+03</pdfrwt>
<totfact> 0.57563282E+00</totfact>
</mgrwt>
</event>
<event>
 4    1  0.5387657E-008  0.3087242E+03  0.7818608E-02  0.1080959E+00
          2   -1    0    0  501    0  0.00000000000E+00  0.00000000000E+00  0.13614830352E+04  0.13614830352E+04  0.25500000000E-02 0. -1.
         -2   -1    0    0    0  501 -0.00000000000E+00 -0.00000000000E+00 -0.14093173725E+03  0.14093173728E+03  0.25500000000E-02 0.  1.
    8880022    1    1    2    0    0 -0.24112061734E+03  0.11738760946E+03  0.77357689145E+02  0.31826854706E+03  0.15294330000E+03 0.  1.
    8880022    1    1    2    0    0  0.24112061734E+03 -0.11738760946E+03  0.11431936088E+04  0.11841462255E+04  0.15294330000E+03 0.  0.
<mgrwt>
<rscale>  0 0.30872424E+03</rscale>
<asrwt>0</asrwt>
<pdfrwt beam="1">  1        2 0.20945892E+00 0.30872424E+03</pdfrwt>
<pdfrwt beam="2">  1       -2 0.21681807E-01 0.30872424E+03</pdfrwt>
<totfact> 0.29690141E+02</totfact>
</mgrwt>
</event>
<event>
 4    1  0.5387657E-008  0.4356946E+03  0.7818608E-02  0.1032076E+00
          2   -1    0    0  501    0  0.00000000000E+00  0.00000000000E+00  0.18673053269E+04  0.18673053269E+04  0.25500000000E-02 0. -1.
         -2   -1    0    0    0  501 -0.00000000000E+00 -0.00000000000E+00 -0.11759288398E+03  0.11759288401E+03  0.25500000000E-02 0.  1.
    8880022    1    1    2    0    0 -0.33913305245E+03 -0.22677508055E+03  0.50954068087E+03  0.67041891598E+03  0.15294330000E+03 0.  1.
    8880022    1    1    2    0    0  0.33913305245E+03  0.22677508055E+03  0.12401717620E+04  0.13144792949E+04  0.15294330000E+03 0. -1.
<mgrwt>
<rscale>  0 0.43569464E+03</rscale>
<asrwt>0</asrwt>
<pdfrwt beam="1">  1        2 0.28727771E+00 0.43569464E+03</pdfrwt>
<pdfrwt beam="2">  1       -2 0.18091215E-01 0.43569464E+03</pdfrwt>
<totfact> 0.21269792E+02</totfact>
</mgrwt>
</event>
<event>
 4    1  0.5387657E-008  0.7981086E+03  0.7818608E-02  0.9562759E-01
          2   -1    0    0  501    0  0.00000000000E+00  0.00000000000E+00  0.19066178221E+04  0.19066178221E+04  0.25500000000E-02 0. -1.
         -2   -1    0    0    0  501 -0.00000000000E+00 -0.00000000000E+00 -0.44025211915E+03  0.44025211915E+03  0.25500000000E-02 0.  1.
    8880022    1    1    2    0    0 -0.70065486686E+03 -0.35024065655E+03  0.13094156235E+04  0.15334753627E+04  0.15294330000E+03 0.  0.
    8880022    1    1    2    0    0  0.70065486686E+03  0.35024065655E+03  0.15695007945E+03  0.81339457855E+03  0.15294330000E+03 0.  0.
<mgrwt>
<rscale>  0 0.79810865E+03</rscale>
<asrwt>0</asrwt>
<pdfrwt beam="1">  1        2 0.29332581E+00 0.79810865E+03</pdfrwt>
<pdfrwt beam="2">  1       -2 0.67731097E-01 0.79810865E+03</pdfrwt>
<totfact> 0.15427258E+01</totfact>
</mgrwt>
</event>
<event>
 4    1  0.5387657E-008  0.6312385E+03  0.7818608E-02  0.9842635E-01
         -2   -1    0    0    0  501 -0.00000000000E+00  0.00000000000E+00  0.14886163547E+03  0.14886163550E+03  0.25500000000E-02 0.  1.
          2   -1    0    0  501    0  0.00000000000E+00 -0.00000000000E+00 -0.31275819379E+04  0.31275819379E+04  0.25500000000E-02 0. -1.
    8880022    1    1    2    0    0 -0.61233836449E+03 -0.10590155109E+02 -0.21113544192E+04  0.22036967941E+04  0.15294330000E+03 0.  0.
    8880022    1    1    2    0    0  0.61233836449E+03  0.10590155109E+02 -0.86736588325E+03  0.10727467793E+04  0.15294330000E+03 0.  0.
<mgrwt>
<rscale>  0 0.63123853E+03</rscale>
<asrwt>0</asrwt>
<pdfrwt beam="1">  1        2 0.48116641E+00 0.63123853E+03</pdfrwt>
<pdfrwt beam="2">  1       -2 0.22901792E-01 0.63123853E+03</pdfrwt>
<totfact> 0.26306041E+01</totfact>
</mgrwt>
</event>
<event>
 4    1  0.5387657E-008  0.3293662E+03  0.7818608E-02  0.1071418E+00
          2   -1    0    0  501    0  0.00000000000E+00  0.00000000000E+00  0.73138374950E+03  0.73138374951E+03  0.25500000000E-02 0. -1.
         -2   -1    0    0    0  501 -0.00000000000E+00 -0.00000000000E+00 -0.98301595008E+03  0.98301595008E+03  0.25500000000E-02 0.  1.
    8880022    1    1    2    0    0  0.87843900520E+02  0.27816167402E+03  0.66407057800E+03  0.74126368677E+03  0.15294330000E+03 0.  0.
    8880022    1    1    2    0    0 -0.87843900520E+02 -0.27816167402E+03 -0.91570277857E+03  0.97313601282E+03  0.15294330000E+03 0.  0.
<mgrwt>
<rscale>  0 0.32936624E+03</rscale>
<asrwt>0</asrwt>
<pdfrwt beam="1">  1        2 0.11252058E+00 0.32936624E+03</pdfrwt>
<pdfrwt beam="2">  1       -2 0.15123322E+00 0.32936624E+03</pdfrwt>
<totfact> 0.12330310E+01</totfact>
</mgrwt>
</event>
<event>
 4    1  0.5387657E-008  0.2382530E+03  0.7818608E-02  0.1120962E+00
          2   -1    0    0  501    0  0.00000000000E+00  0.00000000000E+00  0.13881038944E+03  0.13881038946E+03  0.25500000000E-02 0. -1.
         -2   -1    0    0    0  501 -0.00000000000E+00 -0.00000000000E+00 -0.28009656189E+04  0.28009656189E+04  0.25500000000E-02 0.  1.
    8880022    1    1    2    0    0  0.17064705146E+03  0.65210677207E+02  0.27278602314E+02  0.23980955726E+03  0.15294330000E+03 0.  0.
    8880022    1    1    2    0    0 -0.17064705146E+03 -0.65210677207E+02 -0.26894338318E+04  0.26999664512E+04  0.15294330000E+03 0.  1.
<mgrwt>
<rscale>  0 0.23825302E+03</rscale>
<asrwt>0</asrwt>
<pdfrwt beam="1">  1        2 0.21355447E-01 0.23825302E+03</pdfrwt>
<pdfrwt beam="2">  1       -2 0.43091775E+00 0.23825302E+03</pdfrwt>
<totfact> 0.14942738E+00</totfact>
</mgrwt>
</event>
<event>
 4    1  0.5387657E-008  0.5882451E+03  0.7818608E-02  0.9930098E-01
          2   -1    0    0  501    0  0.00000000000E+00  0.00000000000E+00  0.13361663442E+04  0.13361663442E+04  0.25500000000E-02 0. -1.
         -2   -1    0    0    0  501 -0.00000000000E+00 -0.00000000000E+00 -0.30679388594E+03  0.30679388595E+03  0.25500000000E-02 0.  1.
    8880022    1    1    2    0    0 -0.28869194422E+03  0.48918052130E+03  0.83900957116E+03  0.10246801133E+04  0.15294330000E+03 0.  0.
    8880022    1    1    2    0    0  0.28869194422E+03 -0.48918052130E+03  0.19036288707E+03  0.61828011683E+03  0.15294330000E+03 0.  0.
<mgrwt>
<rscale>  0 0.58824508E+03</rscale>
<asrwt>0</asrwt>
<pdfrwt beam="1">  1        2 0.20556405E+00 0.58824508E+03</pdfrwt>
<pdfrwt beam="2">  1       -2 0.47199059E-01 0.58824508E+03</pdfrwt>
<totfact> 0.69397186E+01</totfact>
</mgrwt>
</event>
<event>
 4    1  0.5387657E-008  0.7172471E+03  0.7818608E-02  0.9688184E-01
          2   -1    0    0  501    0  0.00000000000E+00  0.00000000000E+00  0.57255860536E+03  0.57255860537E+03  0.25500000000E-02 0. -1.
         -2   -1    0    0    0  501 -0.00000000000E+00 -0.00000000000E+00 -0.12389218201E+04  0.12389218201E+04  0.25500000000E-02 0.  1.
    8880022    1    1    2    0    0 -0.55806452004E+03  0.42381093348E+03  0.14159683685E+03  0.73109030433E+03  0.15294330000E+03 0.  0.
    8880022    1    1    2    0    0  0.55806452004E+03 -0.42381093348E+03 -0.80796005156E+03  0.10803901211E+04  0.15294330000E+03 0.  0.
<mgrwt>
<rscale>  0 0.71724708E+03</rscale>
<asrwt>0</asrwt>
<pdfrwt beam="1">  1        2 0.88085940E-01 0.71724708E+03</pdfrwt>
<pdfrwt beam="2">  1       -2 0.19060336E+00 0.71724708E+03</pdfrwt>
<totfact> 0.82382723E+00</totfact>
</mgrwt>
</event>
<event>
 4    1  0.5387657E-008  0.5202091E+03  0.7818608E-02  0.1008635E+00
          2   -1    0    0  501    0  0.00000000000E+00  0.00000000000E+00  0.25647413591E+04  0.25647413591E+04  0.25500000000E-02 0. -1.
         -2   -1    0    0    0  501 -0.00000000000E+00 -0.00000000000E+00 -0.11452432264E+03  0.11452432267E+03  0.25500000000E-02 0.  1.
    8880022    1    1    2    0    0  0.47069310981E+03 -0.16023047655E+03  0.16008546134E+04  0.16832566517E+04  0.15294330000E+03 0. -1.
    8880022    1    1    2    0    0 -0.47069310981E+03  0.16023047655E+03  0.84936242306E+03  0.99600903006E+03  0.15294330000E+03 0.  1.
<mgrwt>
<rscale>  0 0.52020906E+03</rscale>
<asrwt>0</asrwt>
<pdfrwt beam="1">  1        2 0.39457556E+00 0.52020906E+03</pdfrwt>
<pdfrwt beam="2">  1       -2 0.17619128E-01 0.52020906E+03</pdfrwt>
<totfact> 0.91374737E+01</totfact>
</mgrwt>
</event>
<event>
 4    1  0.5387657E-008  0.7718033E+03  0.7818608E-02  0.9601752E-01
         -2   -1    0    0    0  501 -0.00000000000E+00  0.00000000000E+00  0.36758813182E+03  0.36758813183E+03  0.25500000000E-02 0.  1.
          2   -1    0    0  501    0  0.00000000000E+00 -0.00000000000E+00 -0.30110738315E+04  0.30110738315E+04  0.25500000000E-02 0. -1.
    8880022    1    1    2    0    0  0.31547654701E+03  0.68757775425E+03 -0.17372273699E+03  0.79111305274E+03  0.15294330000E+03 0.  0.
    8880022    1    1    2    0    0 -0.31547654701E+03 -0.68757775425E+03 -0.24697629627E+04  0.25875489106E+04  0.15294330000E+03 0.  0.
<mgrwt>
<rscale>  0 0.77180326E+03</rscale>
<asrwt>0</asrwt>
<pdfrwt beam="1">  1        2 0.46324211E+00 0.77180326E+03</pdfrwt>
<pdfrwt beam="2">  1       -2 0.56552022E-01 0.77180326E+03</pdfrwt>
<totfact> 0.53372873E+00</totfact>
</mgrwt>
</event>
<event>
 4    1  0.5387657E-008  0.2418747E+03  0.7818608E-02  0.1118550E+00
          2   -1    0    0  501    0  0.00000000000E+00  0.00000000000E+00  0.31771565917E+04  0.31771565917E+04  0.25500000000E-02 0. -1.
         -2   -1    0    0    0  501 -0.00000000000E+00 -0.00000000000E+00 -0.36735654800E+02  0.36735654888E+02  0.25500000000E-02 0.  1.
    8880022    1    1    2    0    0 -0.17513109920E+03  0.66639561728E+02  0.27050714496E+04  0.27158635705E+04  0.15294330000E+03 0.  0.
    8880022    1    1    2    0    0  0.17513109920E+03 -0.66639561728E+02  0.43534948724E+03  0.49802867603E+03  0.15294330000E+03 0.  0.
<mgrwt>
<rscale>  0 0.24187473E+03</rscale>
<asrwt>0</asrwt>
<pdfrwt beam="1">  1        2 0.48879344E+00 0.24187473E+03</pdfrwt>
<pdfrwt beam="2">  1       -2 0.56516379E-02 0.24187473E+03</pdfrwt>
<totfact> 0.26698631E+02</totfact>
</mgrwt>
</event>
<event>
 4    1  0.5387657E-008  0.3268239E+03  0.7818608E-02  0.1072551E+00
         -2   -1    0    0    0  501 -0.00000000000E+00  0.00000000000E+00  0.89369371842E+03  0.89369371843E+03  0.25500000000E-02 0.  1.
          2   -1    0    0  501    0  0.00000000000E+00 -0.00000000000E+00 -0.51672822162E+03  0.51672822162E+03  0.25500000000E-02 0. -1.
    8880022    1    1    2    0    0  0.12958455242E+03 -0.25812803897E+03 -0.42981450222E+03  0.53995777619E+03  0.15294330000E+03 0. -1.
    8880022    1    1    2    0    0 -0.12958455242E+03  0.25812803897E+03  0.80677999903E+03  0.87046416387E+03  0.15294330000E+03 0.  0.
<mgrwt>
<rscale>  0 0.32682395E+03</rscale>
<asrwt>0</asrwt>
<pdfrwt beam="1">  1        2 0.79496650E-01 0.32682395E+03</pdfrwt>
<pdfrwt beam="2">  1       -2 0.13749134E+00 0.32682395E+03</pdfrwt>
<totfact> 0.23805344E+01</totfact>
</mgrwt>
</event>
<event>
 4    1  0.5426060E-008  0.8448091E+03  0.7818608E-02  0.9497331E-01
         -2   -1    0    0    0  501 -0.00000000000E+00  0.00000000000E+00  0.16793290406E+04  0.16793290406E+04  0.25500000000E-02 0.  1.
          2   -1    0    0  501    0  0.00000000000E+00 -0.00000000000E+00 -0.13007047645E+04  0.13007047645E+04  0.25500000000E-02 0. -1.
    8880022    1    1    2    0    0 -0.15635229805E+03 -0.81600532776E+03  0.14119068826E+04  0.16453520700E+04  0.15294330000E+03 0.  0.
    8880022    1    1    2    0    0  0.15635229805E+03  0.81600532776E+03 -0.10332826065E+04  0.13346817351E+04  0.15294330000E+03 0.  0.
<mgrwt>
<rscale>  0 0.84480908E+03</rscale>
<asrwt>0</asrwt>
<pdfrwt beam="1">  1        2 0.20010843E+00 0.84480908E+03</pdfrwt>
<pdfrwt beam="2">  1       -2 0.25835831E+00 0.84480908E+03</pdfrwt>
<totfact> 0.96449064E-01</totfact>
</mgrwt>
</event>
<event>
 4    1  0.5387657E-008  0.6714681E+03  0.7818608E-02  0.9767309E-01
         -2   -1    0    0    0  501 -0.00000000000E+00  0.00000000000E+00  0.76774361189E+03  0.76774361189E+03  0.25500000000E-02 0.  1.
          2   -1    0    0  501    0  0.00000000000E+00 -0.00000000000E+00 -0.20988550507E+04  0.20988550507E+04  0.25500000000E-02 0. -1.
    8880022    1    1    2    0    0 -0.19310344332E+03  0.62465094648E+03 -0.18819170468E+04  0.19981194081E+04  0.15294330000E+03 0.  0.
    8880022    1    1    2    0    0  0.19310344332E+03 -0.62465094648E+03  0.55080560800E+03  0.86847925454E+03  0.15294330000E+03 0.  0.
<mgrwt>
<rscale>  0 0.67146809E+03</rscale>
<asrwt>0</asrwt>
<pdfrwt beam="1">  1        2 0.32290077E+00 0.67146809E+03</pdfrwt>
<pdfrwt beam="2">  1       -2 0.11811440E+00 0.67146809E+03</pdfrwt>
<totfact> 0.34265261E+00</totfact>
</mgrwt>
</event>
<event>
 4    1  0.5387657E-008  0.6942275E+03  0.7818608E-02  0.9727155E-01
         -2   -1    0    0    0  501 -0.00000000000E+00  0.00000000000E+00  0.16980556567E+03  0.16980556569E+03  0.25500000000E-02 0.  1.
          2   -1    0    0  501    0  0.00000000000E+00 -0.00000000000E+00 -0.32075818329E+04  0.32075818329E+04  0.25500000000E-02 0. -1.
    8880022    1    1    2    0    0 -0.28642873893E+03  0.61361127244E+03 -0.20919033419E+04  0.22040897126E+04  0.15294330000E+03 0.  0.
    8880022    1    1    2    0    0  0.28642873893E+03 -0.61361127244E+03 -0.94587292529E+03  0.11732976860E+04  0.15294330000E+03 0.  0.
<mgrwt>
<rscale>  0 0.69422753E+03</rscale>
<asrwt>0</asrwt>
<pdfrwt beam="1">  1        2 0.49347408E+00 0.69422753E+03</pdfrwt>
<pdfrwt beam="2">  1       -2 0.26123936E-01 0.69422753E+03</pdfrwt>
<totfact> 0.18273092E+01</totfact>
</mgrwt>
</event>
<event>
 4    1  0.5387657E-008  0.3282417E+03  0.7818608E-02  0.1071918E+00
          2   -1    0    0  501    0  0.00000000000E+00  0.00000000000E+00  0.16509429026E+04  0.16509429026E+04  0.25500000000E-02 0. -1.
         -2   -1    0    0    0  501 -0.00000000000E+00 -0.00000000000E+00 -0.37411753941E+03  0.37411753942E+03  0.25500000000E-02 0.  1.
    8880022    1    1    2    0    0  0.21210460566E+03 -0.19840014630E+03  0.15584006945E+04  0.15925939091E+04  0.15294330000E+03 0.  0.
    8880022    1    1    2    0    0 -0.21210460566E+03  0.19840014630E+03 -0.28157533135E+03  0.43246653285E+03  0.15294330000E+03 0.  0.
<mgrwt>
<rscale>  0 0.32824173E+03</rscale>
<asrwt>0</asrwt>
<pdfrwt beam="1">  1        2 0.25399122E+00 0.32824173E+03</pdfrwt>
<pdfrwt beam="2">  1       -2 0.57556544E-01 0.32824173E+03</pdfrwt>
<totfact> 0.32644168E+01</totfact>
</mgrwt>
</event>
<event>
 4    1  0.5387657E-008  0.2142888E+03  0.7818608E-02  0.1138214E+00
          2   -1    0    0  501    0  0.00000000000E+00  0.00000000000E+00  0.46545322816E+03  0.46545322817E+03  0.25500000000E-02 0. -1.
         -2   -1    0    0    0  501 -0.00000000000E+00 -0.00000000000E+00 -0.35002167873E+03  0.35002167874E+03  0.25500000000E-02 0.  1.
    8880022    1    1    2    0    0  0.11465037542E+03  0.96867631911E+02 -0.28781459452E+03  0.35882717362E+03  0.15294330000E+03 0.  0.
    8880022    1    1    2    0    0 -0.11465037542E+03 -0.96867631911E+02  0.40324614394E+03  0.45664773329E+03  0.15294330000E+03 0. -1.
<mgrwt>
<rscale>  0 0.21428882E+03</rscale>
<asrwt>0</asrwt>
<pdfrwt beam="1">  1        2 0.71608189E-01 0.21428882E+03</pdfrwt>
<pdfrwt beam="2">  1       -2 0.53849489E-01 0.21428882E+03</pdfrwt>
<totfact> 0.22603800E+02</totfact>
</mgrwt>
</event>
<event>
 4    1  0.5387657E-008  0.6917751E+03  0.7818608E-02  0.9731402E-01
          2   -1    0    0  501    0  0.00000000000E+00  0.00000000000E+00  0.24312266387E+04  0.24312266387E+04  0.25500000000E-02 0. -1.
         -2   -1    0    0    0  501 -0.00000000000E+00 -0.00000000000E+00 -0.60799751277E+03  0.60799751278E+03  0.25500000000E-02 0.  1.
    8880022    1    1    2    0    0  0.10204316719E+03 -0.66689452571E+03  0.21612637084E+04  0.22692760049E+04  0.15294330000E+03 0.  0.
    8880022    1    1    2    0    0 -0.10204316719E+03  0.66689452571E+03 -0.33803458246E+03  0.76994814653E+03  0.15294330000E+03 0.  0.
<mgrwt>
<rscale>  0 0.69177509E+03</rscale>
<asrwt>0</asrwt>
<pdfrwt beam="1">  1        2 0.37403487E+00 0.69177509E+03</pdfrwt>
<pdfrwt beam="2">  1       -2 0.93538078E-01 0.69177509E+03</pdfrwt>
<totfact> 0.39065985E+00</totfact>
</mgrwt>
</event>
<event>
 4    1  0.5387657E-008  0.3440557E+03  0.7818608E-02  0.1065082E+00
          2   -1    0    0  501    0  0.00000000000E+00  0.00000000000E+00  0.11394360004E+04  0.11394360004E+04  0.25500000000E-02 0. -1.
         -2   -1    0    0    0  501 -0.00000000000E+00 -0.00000000000E+00 -0.51138069013E+03  0.51138069014E+03  0.25500000000E-02 0.  1.
    8880022    1    1    2    0    0  0.16234542179E+03 -0.26196680602E+03  0.10508390575E+04  0.11057291807E+04  0.15294330000E+03 0.  0.
    8880022    1    1    2    0    0 -0.16234542179E+03  0.26196680602E+03 -0.42278374720E+03  0.54508750980E+03  0.15294330000E+03 0.  0.
<mgrwt>
<rscale>  0 0.34405566E+03</rscale>
<asrwt>0</asrwt>
<pdfrwt beam="1">  1        2 0.17529785E+00 0.34405566E+03</pdfrwt>
<pdfrwt beam="2">  1       -2 0.78673953E-01 0.34405566E+03</pdfrwt>
<totfact> 0.31953642E+01</totfact>
</mgrwt>
</event>
<event>
 4    1  0.5387657E-008  0.1352332E+04  0.7818608E-02  0.8989065E-01
         -2   -1    0    0    0  501 -0.00000000000E+00  0.00000000000E+00  0.13546967670E+04  0.13546967670E+04  0.25500000000E-02 0.  1.
          2   -1    0    0  501    0  0.00000000000E+00 -0.00000000000E+00 -0.23284413947E+04  0.23284413947E+04  0.25500000000E-02 0. -1.
    8880022    1    1    2    0    0 -0.11301469739E+04  0.72675777777E+03  0.70692146064E+03  0.15259549976E+04  0.15294330000E+03 0.  0.
    8880022    1    1    2    0    0  0.11301469739E+04 -0.72675777777E+03 -0.16806660883E+04  0.21571831641E+04  0.15294330000E+03 0.  0.
<mgrwt>
<rscale>  0 0.13523316E+04</rscale>
<asrwt>0</asrwt>
<pdfrwt beam="1">  1        2 0.35822175E+00 0.13523316E+04</pdfrwt>
<pdfrwt beam="2">  1       -2 0.20841489E+00 0.13523316E+04</pdfrwt>
<totfact> 0.48898716E-01</totfact>
</mgrwt>
</event>
<event>
 4    1  0.5387657E-008  0.5783537E+03  0.7818608E-02  0.9951362E-01
          2   -1    0    0  501    0  0.00000000000E+00  0.00000000000E+00  0.91542565437E+03  0.91542565438E+03  0.25500000000E-02 0. -1.
         -2   -1    0    0    0  501 -0.00000000000E+00 -0.00000000000E+00 -0.44237921068E+03  0.44237921069E+03  0.25500000000E-02 0.  1.
    8880022    1    1    2    0    0 -0.55772859487E+03 -0.63351608879E+01  0.51973265234E+03  0.77756993429E+03  0.15294330000E+03 0.  0.
    8880022    1    1    2    0    0  0.55772859487E+03  0.63351608879E+01 -0.46686208650E+02  0.58023493077E+03  0.15294330000E+03 0.  0.
<mgrwt>
<rscale>  0 0.57835367E+03</rscale>
<asrwt>0</asrwt>
<pdfrwt beam="1">  1        2 0.14083472E+00 0.57835367E+03</pdfrwt>
<pdfrwt beam="2">  1       -2 0.68058340E-01 0.57835367E+03</pdfrwt>
<totfact> 0.58309383E+01</totfact>
</mgrwt>
</event>
<event>
 4    1  0.5387657E-008  0.4145143E+03  0.7818608E-02  0.1038867E+00
         -2   -1    0    0    0  501 -0.00000000000E+00  0.00000000000E+00  0.83543622982E+03  0.83543622982E+03  0.25500000000E-02 0.  1.
          2   -1    0    0  501    0  0.00000000000E+00 -0.00000000000E+00 -0.98280428534E+03  0.98280428534E+03  0.25500000000E-02 0. -1.
    8880022    1    1    2    0    0 -0.36760929005E+03 -0.11529916372E+03  0.73473500143E+03  0.84359804565E+03  0.15294330000E+03 0.  0.
    8880022    1    1    2    0    0  0.36760929005E+03  0.11529916372E+03 -0.88210305695E+03  0.97464246951E+03  0.15294330000E+03 0.  0.
<mgrwt>
<rscale>  0 0.41451434E+03</rscale>
<asrwt>0</asrwt>
<pdfrwt beam="1">  1        2 0.15120066E+00 0.41451434E+03</pdfrwt>
<pdfrwt beam="2">  1       -2 0.12852865E+00 0.41451434E+03</pdfrwt>
<totfact> 0.12369640E+01</totfact>
</mgrwt>
</event>
<event>
 4    1  0.5387657E-008  0.3374650E+03  0.7818608E-02  0.1067881E+00
         -2   -1    0    0    0  501 -0.00000000000E+00  0.00000000000E+00  0.26585813008E+04  0.26585813008E+04  0.25500000000E-02 0.  1.
          2   -1    0    0  501    0  0.00000000000E+00 -0.00000000000E+00 -0.83888793145E+02  0.83888793184E+02  0.25500000000E-02 0. -1.
    8880022    1    1    2    0    0  0.26665193313E+03 -0.13923971599E+03  0.22465967892E+04  0.22718009900E+04  0.15294330000E+03 0.  0.
    8880022    1    1    2    0    0 -0.26665193313E+03  0.13923971599E+03  0.32809571844E+03  0.47066910396E+03  0.15294330000E+03 0.  0.
<mgrwt>
<rscale>  0 0.33746497E+03</rscale>
<asrwt>0</asrwt>
<pdfrwt beam="1">  1        2 0.12905969E-01 0.33746497E+03</pdfrwt>
<pdfrwt beam="2">  1       -2 0.40901250E+00 0.33746497E+03</pdfrwt>
<totfact> 0.36075739E+00</totfact>
</mgrwt>
</event>
<event>
 4    1  0.5387657E-008  0.7691892E+03  0.7818608E-02  0.9605717E-01
         -2   -1    0    0    0  501 -0.00000000000E+00  0.00000000000E+00  0.46222746545E+03  0.46222746545E+03  0.25500000000E-02 0.  1.
          2   -1    0    0  501    0  0.00000000000E+00 -0.00000000000E+00 -0.34404783466E+04  0.34404783466E+04  0.25500000000E-02 0. -1.
    8880022    1    1    2    0    0  0.21772235273E+03 -0.72170442595E+03 -0.30354519114E+04  0.31313927030E+04  0.15294330000E+03 0.  0.
    8880022    1    1    2    0    0 -0.21772235273E+03  0.72170442595E+03  0.57201030201E+02  0.77131310904E+03  0.15294330000E+03 0.  0.
<mgrwt>
<rscale>  0 0.76918915E+03</rscale>
<asrwt>0</asrwt>
<pdfrwt beam="1">  1        2 0.52930435E+00 0.76918915E+03</pdfrwt>
<pdfrwt beam="2">  1       -2 0.71111920E-01 0.76918915E+03</pdfrwt>
<totfact> 0.17353814E+00</totfact>
</mgrwt>
</event>
<event>
 4    1  0.5387657E-008  0.1529614E+03  0.7818608E-02  0.1196881E+00
         -2   -1    0    0    0  501 -0.00000000000E+00  0.00000000000E+00  0.24503579250E+03  0.24503579252E+03  0.25500000000E-02 0.  1.
          2   -1    0    0  501    0  0.00000000000E+00 -0.00000000000E+00 -0.49040448546E+03  0.49040448546E+03  0.25500000000E-02 0. -1.
    8880022    1    1    2    0    0 -0.23126613831E+01  0.44514770418E+00  0.20730094062E+03  0.25762546372E+03  0.15294330000E+03 0.  1.
    8880022    1    1    2    0    0  0.23126613831E+01 -0.44514770418E+00 -0.45266963357E+03  0.47781481426E+03  0.15294330000E+03 0.  0.
<mgrwt>
<rscale>  0 0.15296143E+03</rscale>
<asrwt>0</asrwt>
<pdfrwt beam="1">  1        2 0.75446844E-01 0.15296143E+03</pdfrwt>
<pdfrwt beam="2">  1       -2 0.37697814E-01 0.15296143E+03</pdfrwt>
<totfact> 0.42934596E+02</totfact>
</mgrwt>
</event>
<event>
 4    1  0.5387657E-008  0.4422266E+03  0.7818608E-02  0.1030066E+00
          2   -1    0    0  501    0  0.00000000000E+00  0.00000000000E+00  0.16210687710E+04  0.16210687710E+04  0.25500000000E-02 0. -1.
         -2   -1    0    0    0  501 -0.00000000000E+00 -0.00000000000E+00 -0.15578720464E+03  0.15578720466E+03  0.25500000000E-02 0.  1.
    8880022    1    1    2    0    0  0.41317762945E+03  0.38170644932E+02  0.11546353023E+04  0.12364251235E+04  0.15294330000E+03 0.  0.
    8880022    1    1    2    0    0 -0.41317762945E+03 -0.38170644932E+02  0.31064626405E+03  0.54043085219E+03  0.15294330000E+03 0.  0.
<mgrwt>
<rscale>  0 0.44222664E+03</rscale>
<asrwt>0</asrwt>
<pdfrwt beam="1">  1        2 0.24939521E+00 0.44222664E+03</pdfrwt>
<pdfrwt beam="2">  1       -2 0.23967261E-01 0.44222664E+03</pdfrwt>
<totfact> 0.17641783E+02</totfact>
</mgrwt>
</event>
<event>
 4    1  0.5387657E-008  0.3191127E+03  0.7818608E-02  0.1076058E+00
          2   -1    0    0  501    0  0.00000000000E+00  0.00000000000E+00  0.59555279501E+03  0.59555279501E+03  0.25500000000E-02 0. -1.
         -2   -1    0    0    0  501 -0.00000000000E+00 -0.00000000000E+00 -0.64476076919E+03  0.64476076919E+03  0.25500000000E-02 0.  1.
    8880022    1    1    2    0    0  0.10582118352E+03  0.25931277366E+03 -0.55620628679E+03  0.64124747480E+03  0.15294330000E+03 0.  0.
    8880022    1    1    2    0    0 -0.10582118352E+03 -0.25931277366E+03  0.50699831261E+03  0.59906608940E+03  0.15294330000E+03 0.  0.
<mgrwt>
<rscale>  0 0.31911266E+03</rscale>
<asrwt>0</asrwt>
<pdfrwt beam="1">  1        2 0.91623508E-01 0.31911266E+03</pdfrwt>
<pdfrwt beam="2">  1       -2 0.99193964E-01 0.31911266E+03</pdfrwt>
<totfact> 0.44699729E+01</totfact>
</mgrwt>
</event>
<event>
 4    1  0.5387657E-008  0.6663631E+03  0.7818608E-02  0.9776550E-01
         -2   -1    0    0    0  501 -0.00000000000E+00  0.00000000000E+00  0.52343737895E+03  0.52343737895E+03  0.25500000000E-02 0.  1.
          2   -1    0    0  501    0  0.00000000000E+00 -0.00000000000E+00 -0.11566956081E+04  0.11566956081E+04  0.25500000000E-02 0. -1.
    8880022    1    1    2    0    0  0.23850933813E+03  0.60312641910E+03  0.11712896395E+03  0.67657891558E+03  0.15294330000E+03 0.  0.
    8880022    1    1    2    0    0 -0.23850933813E+03 -0.60312641910E+03 -0.75038719311E+03  0.10035540715E+04  0.15294330000E+03 0.  0.
<mgrwt>
<rscale>  0 0.66636314E+03</rscale>
<asrwt>0</asrwt>
<pdfrwt beam="1">  1        2 0.17795317E+00 0.66636314E+03</pdfrwt>
<pdfrwt beam="2">  1       -2 0.80528828E-01 0.66636314E+03</pdfrwt>
<totfact> 0.28149079E+01</totfact>
</mgrwt>
</event>
<event>
 4    1  0.5387657E-008  0.4522909E+03  0.7818608E-02  0.1027041E+00
         -2   -1    0    0    0  501 -0.00000000000E+00  0.00000000000E+00  0.54775959399E+03  0.54775959399E+03  0.25500000000E-02 0.  1.
          2   -1    0    0  501    0  0.00000000000E+00 -0.00000000000E+00 -0.32363220873E+04  0.32363220873E+04  0.25500000000E-02 0. -1.
    8880022    1    1    2    0    0  0.38061111707E+03  0.19055337346E+03 -0.31238089182E+04  0.31563822995E+04  0.15294330000E+03 0.  0.
    8880022    1    1    2    0    0 -0.38061111707E+03 -0.19055337346E+03  0.43524642482E+03  0.62769938180E+03  0.15294330000E+03 0.  0.
<mgrwt>
<rscale>  0 0.45229091E+03</rscale>
<asrwt>0</asrwt>
<pdfrwt beam="1">  1        2 0.49789569E+00 0.45229091E+03</pdfrwt>
<pdfrwt beam="2">  1       -2 0.84270709E-01 0.45229091E+03</pdfrwt>
<totfact> 0.17693071E+00</totfact>
</mgrwt>
</event>
<event>
 4    1  0.5387657E-008  0.5182834E+03  0.7818608E-02  0.1009114E+00
          2   -1    0    0  501    0  0.00000000000E+00  0.00000000000E+00  0.43697950970E+03  0.43697950971E+03  0.25500000000E-02 0. -1.
         -2   -1    0    0    0  501 -0.00000000000E+00 -0.00000000000E+00 -0.12377484419E+04  0.12377484419E+04  0.25500000000E-02 0.  1.
    8880022    1    1    2    0    0  0.32622816759E+02 -0.49412734329E+03  0.19370774608E+03  0.55329957841E+03  0.15294330000E+03 0.  0.
    8880022    1    1    2    0    0 -0.32622816759E+02  0.49412734329E+03 -0.99447667827E+03  0.11214283732E+04  0.15294330000E+03 0.  0.
<mgrwt>
<rscale>  0 0.51828345E+03</rscale>
<asrwt>0</asrwt>
<pdfrwt beam="1">  1        2 0.67227617E-01 0.51828345E+03</pdfrwt>
<pdfrwt beam="2">  1       -2 0.19042284E+00 0.51828345E+03</pdfrwt>
<totfact> 0.11587512E+01</totfact>
</mgrwt>
</event>
<event>
 4    1  0.5387657E-008  0.3658432E+03  0.7818608E-02  0.1056294E+00
          2   -1    0    0  501    0  0.00000000000E+00  0.00000000000E+00  0.22870970569E+04  0.22870970569E+04  0.25500000000E-02 0. -1.
         -2   -1    0    0    0  501 -0.00000000000E+00 -0.00000000000E+00 -0.14807157430E+03  0.14807157432E+03  0.25500000000E-02 0.  1.
    8880022    1    1    2    0    0 -0.20542030897E+03  0.26125098556E+03  0.12262285532E+03  0.38584659964E+03  0.15294330000E+03 0.  0.
    8880022    1    1    2    0    0  0.20542030897E+03 -0.26125098556E+03  0.20164026273E+04  0.20493220316E+04  0.15294330000E+03 0.  0.
<mgrwt>
<rscale>  0 0.36584318E+03</rscale>
<asrwt>0</asrwt>
<pdfrwt beam="1">  1        2 0.35186107E+00 0.36584318E+03</pdfrwt>
<pdfrwt beam="2">  1       -2 0.22780243E-01 0.36584318E+03</pdfrwt>
<totfact> 0.86040274E+01</totfact>
</mgrwt>
</event>
<event>
 4    1  0.5387657E-008  0.3045803E+03  0.7818608E-02  0.1082973E+00
         -2   -1    0    0    0  501 -0.00000000000E+00  0.00000000000E+00  0.43293846391E+03  0.43293846392E+03  0.25500000000E-02 0.  1.
          2   -1    0    0  501    0  0.00000000000E+00 -0.00000000000E+00 -0.21434832133E+03  0.21434832135E+03  0.25500000000E-02 0. -1.
    8880022    1    1    2    0    0  0.12261738241E+03 -0.23311471234E+03  0.11516132544E+03  0.32562443931E+03  0.15294330000E+03 0. -1.
    8880022    1    1    2    0    0 -0.12261738241E+03  0.23311471234E+03  0.10342881713E+03  0.32166234596E+03  0.15294330000E+03 0.  0.
<mgrwt>
<rscale>  0 0.30458028E+03</rscale>
<asrwt>0</asrwt>
<pdfrwt beam="1">  1        2 0.32976665E-01 0.30458028E+03</pdfrwt>
<pdfrwt beam="2">  1       -2 0.66605917E-01 0.30458028E+03</pdfrwt>
<totfact> 0.33653408E+02</totfact>
</mgrwt>
</event>
<event>
 4    1  0.5387657E-008  0.2173806E+03  0.7818608E-02  0.1135851E+00
         -2   -1    0    0    0  501 -0.00000000000E+00  0.00000000000E+00  0.43093206072E+02  0.43093206147E+02  0.25500000000E-02 0.  1.
          2   -1    0    0  501    0  0.00000000000E+00 -0.00000000000E+00 -0.19469384426E+04  0.19469384426E+04  0.25500000000E-02 0. -1.
    8880022    1    1    2    0    0 -0.12183730497E+03 -0.94964921294E+02 -0.16095195959E+04  0.16241328910E+04  0.15294330000E+03 0. -1.
    8880022    1    1    2    0    0  0.12183730497E+03  0.94964921294E+02 -0.29432564071E+03  0.36589875779E+03  0.15294330000E+03 0.  1.
<mgrwt>
<rscale>  0 0.21738058E+03</rscale>
<asrwt>0</asrwt>
<pdfrwt beam="1">  1        2 0.29952892E+00 0.21738058E+03</pdfrwt>
<pdfrwt beam="2">  1       -2 0.66297255E-02 0.21738058E+03</pdfrwt>
<totfact> 0.10118984E+03</totfact>
</mgrwt>
</event>
<event>
 4    1  0.7019416E-008  0.6774980E+03  0.7818608E-02  0.9756507E-01
          2   -1    0    0  501    0  0.00000000000E+00  0.00000000000E+00  0.13919939175E+04  0.13919939175E+04  0.25500000000E-02 0. -1.
         -2   -1    0    0    0  501 -0.00000000000E+00 -0.00000000000E+00 -0.17165875214E+04  0.17165875214E+04  0.25500000000E-02 0.  1.
    8880022    1    1    2    0    0  0.65309036820E+03  0.95314772651E+02 -0.15593495068E+04  0.17001689540E+04  0.15294330000E+03 0.  0.
    8880022    1    1    2    0    0 -0.65309036820E+03 -0.95314772651E+02  0.12347559029E+04  0.14084124849E+04  0.15294330000E+03 0.  0.
<mgrwt>
<rscale>  0 0.67749804E+03</rscale>
<asrwt>0</asrwt>
<pdfrwt beam="1">  1        2 0.21415291E+00 0.67749804E+03</pdfrwt>
<pdfrwt beam="2">  1       -2 0.26409039E+00 0.67749804E+03</pdfrwt>
<totfact> 0.81637071E-01</totfact>
</mgrwt>
</event>
<event>
 4    1  0.5387657E-008  0.3306338E+03  0.7818608E-02  0.1070857E+00
         -2   -1    0    0    0  501 -0.00000000000E+00  0.00000000000E+00  0.10163099555E+04  0.10163099555E+04  0.25500000000E-02 0.  1.
          2   -1    0    0  501    0  0.00000000000E+00 -0.00000000000E+00 -0.62388755056E+03  0.62388755056E+03  0.25500000000E-02 0. -1.
    8880022    1    1    2    0    0  0.72590986850E+02 -0.28400278926E+03  0.94227132061E+03  0.99859597953E+03  0.15294330000E+03 0.  0.
    8880022    1    1    2    0    0 -0.72590986850E+02  0.28400278926E+03 -0.54984891570E+03  0.64160152649E+03  0.15294330000E+03 0.  0.
<mgrwt>
<rscale>  0 0.33063377E+03</rscale>
<asrwt>0</asrwt>
<pdfrwt beam="1">  1        2 0.95982700E-01 0.33063377E+03</pdfrwt>
<pdfrwt beam="2">  1       -2 0.15635538E+00 0.33063377E+03</pdfrwt>
<totfact> 0.13703215E+01</totfact>
</mgrwt>
</event>
<event>
 4    1  0.5387657E-008  0.3905425E+03  0.7818608E-02  0.1047105E+00
          2   -1    0    0  501    0  0.00000000000E+00  0.00000000000E+00  0.43678533841E+03  0.43678533842E+03  0.25500000000E-02 0. -1.
         -2   -1    0    0    0  501 -0.00000000000E+00 -0.00000000000E+00 -0.57752192078E+03  0.57752192079E+03  0.25500000000E-02 0.  1.
    8880022    1    1    2    0    0  0.28648117564E+03 -0.21693393484E+03  0.24851623184E+03  0.46290794612E+03  0.15294330000E+03 0.  0.
    8880022    1    1    2    0    0 -0.28648117564E+03  0.21693393484E+03 -0.38925281421E+03  0.55139931308E+03  0.15294330000E+03 0.  0.
<mgrwt>
<rscale>  0 0.39054251E+03</rscale>
<asrwt>0</asrwt>
<pdfrwt beam="1">  1        2 0.67197744E-01 0.39054251E+03</pdfrwt>
<pdfrwt beam="2">  1       -2 0.88849526E-01 0.39054251E+03</pdfrwt>
<totfact> 0.81297730E+01</totfact>
</mgrwt>
</event>
<event>
 4    1  0.5387657E-008  0.4155790E+03  0.7818608E-02  0.1038515E+00
         -2   -1    0    0    0  501 -0.00000000000E+00  0.00000000000E+00  0.48953756915E+03  0.48953756915E+03  0.25500000000E-02 0.  1.
          2   -1    0    0  501    0  0.00000000000E+00 -0.00000000000E+00 -0.23660809061E+04  0.23660809061E+04  0.25500000000E-02 0. -1.
    8880022    1    1    2    0    0 -0.22793427050E+03  0.31202593195E+03  0.37879645125E+03  0.56231007316E+03  0.15294330000E+03 0.  0.
    8880022    1    1    2    0    0  0.22793427050E+03 -0.31202593195E+03 -0.22553397882E+04  0.22933084021E+04  0.15294330000E+03 0.  0.
<mgrwt>
<rscale>  0 0.41557895E+03</rscale>
<asrwt>0</asrwt>
<pdfrwt beam="1">  1        2 0.36401244E+00 0.41557895E+03</pdfrwt>
<pdfrwt beam="2">  1       -2 0.75313474E-01 0.41557895E+03</pdfrwt>
<totfact> 0.74221887E+00</totfact>
</mgrwt>
</event>
<event>
 4    1  0.5387657E-008  0.5747208E+03  0.7818608E-02  0.9959286E-01
         -2   -1    0    0    0  501 -0.00000000000E+00  0.00000000000E+00  0.25817712240E+03  0.25817712241E+03  0.25500000000E-02 0.  1.
          2   -1    0    0  501    0  0.00000000000E+00 -0.00000000000E+00 -0.32196745586E+04  0.32196745586E+04  0.25500000000E-02 0. -1.
    8880022    1    1    2    0    0 -0.10143004769E+03 -0.54463229532E+03 -0.13082249428E+03  0.58942223380E+03  0.15294330000E+03 0.  0.
    8880022    1    1    2    0    0  0.10143004769E+03  0.54463229532E+03 -0.28306749420E+04  0.28884294472E+04  0.15294330000E+03 0.  0.
<mgrwt>
<rscale>  0 0.57472084E+03</rscale>
<asrwt>0</asrwt>
<pdfrwt beam="1">  1        2 0.49533452E+00 0.57472084E+03</pdfrwt>
<pdfrwt beam="2">  1       -2 0.39719560E-01 0.57472084E+03</pdfrwt>
<totfact> 0.84015708E+00</totfact>
</mgrwt>
</event>
<event>
 4    1  0.7923582E-008  0.9538631E+03  0.7818608E-02  0.9360647E-01
          2   -1    0    0  501    0  0.00000000000E+00  0.00000000000E+00  0.14814298072E+04  0.14814298072E+04  0.25500000000E-02 0. -1.
         -2   -1    0    0    0  501 -0.00000000000E+00 -0.00000000000E+00 -0.17696130065E+04  0.17696130065E+04  0.25500000000E-02 0.  1.
    8880022    1    1    2    0    0 -0.50974086904E+02  0.94014086301E+03  0.11693995731E+04  0.15090892003E+04  0.15294330000E+03 0.  0.
    8880022    1    1    2    0    0  0.50974086904E+02 -0.94014086301E+03 -0.14575827724E+04  0.17419536134E+04  0.15294330000E+03 0.  0.
<mgrwt>
<rscale>  0 0.95386312E+03</rscale>
<asrwt>0</asrwt>
<pdfrwt beam="1">  1        2 0.22791228E+00 0.95386312E+03</pdfrwt>
<pdfrwt beam="2">  1       -2 0.27224815E+00 0.95386312E+03</pdfrwt>
<totfact> 0.61587439E-01</totfact>
</mgrwt>
</event>
<event>
 4    1  0.5387657E-008  0.5675230E+03  0.7818608E-02  0.9975175E-01
         -2   -1    0    0    0  501 -0.00000000000E+00  0.00000000000E+00  0.33915793558E+03  0.33915793559E+03  0.25500000000E-02 0.  1.
          2   -1    0    0  501    0  0.00000000000E+00 -0.00000000000E+00 -0.18819663521E+04  0.18819663522E+04  0.25500000000E-02 0. -1.
    8880022    1    1    2    0    0  0.23295522267E+03  0.49439116216E+03 -0.15530641389E+04  0.16535085816E+04  0.15294330000E+03 0.  0.
    8880022    1    1    2    0    0 -0.23295522267E+03 -0.49439116216E+03  0.10255722296E+02  0.56761570613E+03  0.15294330000E+03 0.  0.
<mgrwt>
<rscale>  0 0.56752305E+03</rscale>
<asrwt>0</asrwt>
<pdfrwt beam="1">  1        2 0.28953328E+00 0.56752305E+03</pdfrwt>
<pdfrwt beam="2">  1       -2 0.52178145E-01 0.56752305E+03</pdfrwt>
<totfact> 0.28522756E+01</totfact>
</mgrwt>
</event>
<event>
 4    1  0.5387657E-008  0.3588194E+03  0.7818608E-02  0.1059052E+00
          2   -1    0    0  501    0  0.00000000000E+00  0.00000000000E+00  0.68782875373E+03  0.68782875373E+03  0.25500000000E-02 0. -1.
         -2   -1    0    0    0  501 -0.00000000000E+00 -0.00000000000E+00 -0.21003761743E+03  0.21003761745E+03  0.25500000000E-02 0.  1.
    8880022    1    1    2    0    0  0.32313714998E+03  0.30693189313E+02  0.90814505426E+02  0.37013324220E+03  0.15294330000E+03 0.  0.
    8880022    1    1    2    0    0 -0.32313714998E+03 -0.30693189313E+02  0.38697663087E+03  0.52773312898E+03  0.15294330000E+03 0.  0.
<mgrwt>
<rscale>  0 0.35881937E+03</rscale>
<asrwt>0</asrwt>
<pdfrwt beam="1">  1        2 0.10581981E+00 0.35881937E+03</pdfrwt>
<pdfrwt beam="2">  1       -2 0.32313480E-01 0.35881937E+03</pdfrwt>
<totfact> 0.38252858E+02</totfact>
</mgrwt>
</event>
<event>
 4    1  0.5387657E-008  0.2193734E+03  0.7818608E-02  0.1134351E+00
          2   -1    0    0  501    0  0.00000000000E+00  0.00000000000E+00  0.23304275700E+03  0.23304275701E+03  0.25500000000E-02 0. -1.
         -2   -1    0    0    0  501 -0.00000000000E+00 -0.00000000000E+00 -0.51641188266E+03  0.51641188266E+03  0.25500000000E-02 0.  1.
    8880022    1    1    2    0    0 -0.15233873461E+03  0.39063379293E+02 -0.43197468923E+03  0.48448614305E+03  0.15294330000E+03 0.  0.
    8880022    1    1    2    0    0  0.15233873461E+03 -0.39063379293E+02  0.14860556357E+03  0.26496849662E+03  0.15294330000E+03 0.  0.
<mgrwt>
<rscale>  0 0.21937340E+03</rscale>
<asrwt>0</asrwt>
<pdfrwt beam="1">  1        2 0.35852732E-01 0.21937340E+03</pdfrwt>
<pdfrwt beam="2">  1       -2 0.79447982E-01 0.21937340E+03</pdfrwt>
<totfact> 0.21018660E+02</totfact>
</mgrwt>
</event>
<event>
 4    1  0.5387657E-008  0.4848013E+03  0.7818608E-02  0.1017824E+00
          2   -1    0    0  501    0  0.00000000000E+00  0.00000000000E+00  0.16357748579E+04  0.16357748579E+04  0.25500000000E-02 0. -1.
         -2   -1    0    0    0  501 -0.00000000000E+00 -0.00000000000E+00 -0.20741244960E+03  0.20741244961E+03  0.25500000000E-02 0.  1.
    8880022    1    1    2    0    0  0.27045425884E+03  0.37214938049E+03  0.12250314954E+04  0.13174727646E+04  0.15294330000E+03 0.  0.
    8880022    1    1    2    0    0 -0.27045425884E+03 -0.37214938049E+03  0.20333091284E+03  0.52571454294E+03  0.15294330000E+03 0.  0.
<mgrwt>
<rscale>  0 0.48480132E+03</rscale>
<asrwt>0</asrwt>
<pdfrwt beam="1">  1        2 0.25165767E+00 0.48480132E+03</pdfrwt>
<pdfrwt beam="2">  1       -2 0.31909608E-01 0.48480132E+03</pdfrwt>
<totfact> 0.10232281E+02</totfact>
</mgrwt>
</event>
<event>
 4    1  0.5387657E-008  0.6406159E+03  0.7818608E-02  0.9824549E-01
          2   -1    0    0  501    0  0.00000000000E+00  0.00000000000E+00  0.17383987520E+04  0.17383987520E+04  0.25500000000E-02 0. -1.
         -2   -1    0    0    0  501 -0.00000000000E+00 -0.00000000000E+00 -0.46136165764E+03  0.46136165765E+03  0.25500000000E-02 0.  1.
    8880022    1    1    2    0    0  0.12041056186E+03  0.61032641000E+03 -0.13007101205E+03  0.65368734984E+03  0.15294330000E+03 0.  0.
    8880022    1    1    2    0    0 -0.12041056186E+03 -0.61032641000E+03  0.14071081065E+04  0.15460730599E+04  0.15294330000E+03 0.  0.
<mgrwt>
<rscale>  0 0.64061586E+03</rscale>
<asrwt>0</asrwt>
<pdfrwt beam="1">  1        2 0.26744596E+00 0.64061586E+03</pdfrwt>
<pdfrwt beam="2">  1       -2 0.70978717E-01 0.64061586E+03</pdfrwt>
<totfact> 0.17595245E+01</totfact>
</mgrwt>
</event>
<event>
 4    1  0.5387657E-008  0.2555525E+03  0.7818608E-02  0.1109845E+00
         -2   -1    0    0    0  501 -0.00000000000E+00  0.00000000000E+00  0.45175021227E+03  0.45175021228E+03  0.25500000000E-02 0.  1.
          2   -1    0    0  501    0  0.00000000000E+00 -0.00000000000E+00 -0.12227689053E+04  0.12227689053E+04  0.25500000000E-02 0. -1.
    8880022    1    1    2    0    0 -0.11624550594E+03  0.16853019541E+03 -0.11717191382E+04  0.11992634557E+04  0.15294330000E+03 0.  0.
    8880022    1    1    2    0    0  0.11624550594E+03 -0.16853019541E+03  0.40070044513E+03  0.47525566189E+03  0.15294330000E+03 0.  1.
<mgrwt>
<rscale>  0 0.25555253E+03</rscale>
<asrwt>0</asrwt>
<pdfrwt beam="1">  1        2 0.18811829E+00 0.25555253E+03</pdfrwt>
<pdfrwt beam="2">  1       -2 0.69500033E-01 0.25555253E+03</pdfrwt>
<totfact> 0.38355099E+01</totfact>
</mgrwt>
</event>
<event>
 4    1  0.5387657E-008  0.8050601E+03  0.7818608E-02  0.9552722E-01
         -2   -1    0    0    0  501 -0.00000000000E+00  0.00000000000E+00  0.54990314329E+03  0.54990314329E+03  0.25500000000E-02 0.  1.
          2   -1    0    0  501    0  0.00000000000E+00 -0.00000000000E+00 -0.17092487709E+04  0.17092487709E+04  0.25500000000E-02 0. -1.
    8880022    1    1    2    0    0 -0.31293308965E+03 -0.72581199223E+03  0.49705735035E+02  0.80659313149E+03  0.15294330000E+03 0.  0.
    8880022    1    1    2    0    0  0.31293308965E+03  0.72581199223E+03 -0.12090513626E+04  0.14525587827E+04  0.15294330000E+03 0.  0.
<mgrwt>
<rscale>  0 0.80506013E+03</rscale>
<asrwt>0</asrwt>
<pdfrwt beam="1">  1        2 0.26296135E+00 0.80506013E+03</pdfrwt>
<pdfrwt beam="2">  1       -2 0.84600485E-01 0.80506013E+03</pdfrwt>
<totfact> 0.12052003E+01</totfact>
</mgrwt>
</event>
<event>
 4    1  0.5387657E-008  0.3342048E+03  0.7818608E-02  0.1069291E+00
         -2   -1    0    0    0  501 -0.00000000000E+00  0.00000000000E+00  0.73544558353E+02  0.73544558397E+02  0.25500000000E-02 0.  1.
          2   -1    0    0  501    0  0.00000000000E+00 -0.00000000000E+00 -0.17623141634E+04  0.17623141634E+04  0.25500000000E-02 0. -1.
    8880022    1    1    2    0    0  0.22260812174E+03  0.19684212948E+03 -0.11856641365E+04  0.12318653731E+04  0.15294330000E+03 0.  0.
    8880022    1    1    2    0    0 -0.22260812174E+03 -0.19684212948E+03 -0.50310546856E+03  0.60399334873E+03  0.15294330000E+03 0.  0.
<mgrwt>
<rscale>  0 0.33420481E+03</rscale>
<asrwt>0</asrwt>
<pdfrwt beam="1">  1        2 0.27112522E+00 0.33420481E+03</pdfrwt>
<pdfrwt beam="2">  1       -2 0.11314549E-01 0.33420481E+03</pdfrwt>
<totfact> 0.53552795E+02</totfact>
</mgrwt>
</event>
<event>
 4    1  0.5387657E-008  0.3906859E+03  0.7818608E-02  0.1047053E+00
         -2   -1    0    0    0  501 -0.00000000000E+00  0.00000000000E+00  0.12020873908E+03  0.12020873911E+03  0.25500000000E-02 0.  1.
          2   -1    0    0  501    0  0.00000000000E+00 -0.00000000000E+00 -0.21478867106E+04  0.21478867106E+04  0.25500000000E-02 0. -1.
    8880022    1    1    2    0    0 -0.33499739711E+02  0.35794073171E+03 -0.17389522949E+04  0.17822992277E+04  0.15294330000E+03 0.  0.
    8880022    1    1    2    0    0  0.33499739711E+02 -0.35794073171E+03 -0.28872567657E+03  0.48579622199E+03  0.15294330000E+03 0.  0.
<mgrwt>
<rscale>  0 0.39068588E+03</rscale>
<asrwt>0</asrwt>
<pdfrwt beam="1">  1        2 0.33044408E+00 0.39068588E+03</pdfrwt>
<pdfrwt beam="2">  1       -2 0.18493654E-01 0.39068588E+03</pdfrwt>
<totfact> 0.14605190E+02</totfact>
</mgrwt>
</event>
<event>
 4    1  0.5387657E-008  0.7429296E+03  0.7818608E-02  0.9646508E-01
         -2   -1    0    0    0  501 -0.00000000000E+00  0.00000000000E+00  0.26453261015E+04  0.26453261015E+04  0.25500000000E-02 0.  1.
          2   -1    0    0  501    0  0.00000000000E+00 -0.00000000000E+00 -0.57432787037E+03  0.57432787038E+03  0.25500000000E-02 0. -1.
    8880022    1    1    2    0    0  0.71893927104E+03 -0.10806996068E+03  0.23200438578E+04  0.24360927624E+04  0.15294330000E+03 0.  0.
    8880022    1    1    2    0    0 -0.71893927104E+03  0.10806996068E+03 -0.24904562667E+03  0.78356120949E+03  0.15294330000E+03 0.  0.
<mgrwt>
<rscale>  0 0.74292964E+03</rscale>
<asrwt>0</asrwt>
<pdfrwt beam="1">  1        2 0.88358134E-01 0.74292964E+03</pdfrwt>
<pdfrwt beam="2">  1       -2 0.40697325E+00 0.74292964E+03</pdfrwt>
<totfact> 0.37262708E-01</totfact>
</mgrwt>
</event>
<event>
 4    1  0.5387657E-008  0.3994427E+03  0.7818608E-02  0.1043973E+00
         -2   -1    0    0    0  501 -0.00000000000E+00  0.00000000000E+00  0.38369168843E+03  0.38369168844E+03  0.25500000000E-02 0.  1.
          2   -1    0    0  501    0  0.00000000000E+00 -0.00000000000E+00 -0.10354688882E+04  0.10354688882E+04  0.25500000000E-02 0. -1.
    8880022    1    1    2    0    0 -0.11427109789E+03  0.35086310682E+03  0.22301837344E+03  0.45748404502E+03  0.15294330000E+03 0.  0.
    8880022    1    1    2    0    0  0.11427109789E+03 -0.35086310682E+03 -0.87479557317E+03  0.96167653158E+03  0.15294330000E+03 0.  0.
<mgrwt>
<rscale>  0 0.39944268E+03</rscale>
<asrwt>0</asrwt>
<pdfrwt beam="1">  1        2 0.15930290E+00 0.39944268E+03</pdfrwt>
<pdfrwt beam="2">  1       -2 0.59029491E-01 0.39944268E+03</pdfrwt>
<totfact> 0.67667807E+01</totfact>
</mgrwt>
</event>
<event>
 4    1  0.5387657E-008  0.1073751E+04  0.7818608E-02  0.9231161E-01
         -2   -1    0    0    0  501 -0.00000000000E+00  0.00000000000E+00  0.47128663908E+03  0.47128663909E+03  0.25500000000E-02 0.  1.
          2   -1    0    0  501    0  0.00000000000E+00 -0.00000000000E+00 -0.42185785299E+04  0.42185785299E+04  0.25500000000E-02 0. -1.
    8880022    1    1    2    0    0  0.52941697598E+03 -0.92155678472E+03 -0.33935104059E+04  0.35593333322E+04  0.15294330000E+03 0.  0.
    8880022    1    1    2    0    0 -0.52941697598E+03  0.92155678472E+03 -0.35378148494E+03  0.11305318368E+04  0.15294330000E+03 0.  0.
<mgrwt>
<rscale>  0 0.10737509E+04</rscale>
<asrwt>0</asrwt>
<pdfrwt beam="1">  1        2 0.64901205E+00 0.10737509E+04</pdfrwt>
<pdfrwt beam="2">  1       -2 0.72505640E-01 0.10737509E+04</pdfrwt>
<totfact> 0.40373724E-01</totfact>
</mgrwt>
</event>
<event>
 4    1  0.5387657E-008  0.6318617E+03  0.7818608E-02  0.9841423E-01
         -2   -1    0    0    0  501 -0.00000000000E+00  0.00000000000E+00  0.51244994274E+03  0.51244994275E+03  0.25500000000E-02 0.  1.
          2   -1    0    0  501    0  0.00000000000E+00 -0.00000000000E+00 -0.79827204726E+03  0.79827204727E+03  0.25500000000E-02 0. -1.
    8880022    1    1    2    0    0  0.54909252133E+02 -0.61060831779E+03 -0.41344289357E+02  0.63321287653E+03  0.15294330000E+03 0.  0.
    8880022    1    1    2    0    0 -0.54909252133E+02  0.61060831779E+03 -0.24447781516E+03  0.67750911348E+03  0.15294330000E+03 0.  0.
<mgrwt>
<rscale>  0 0.63186169E+03</rscale>
<asrwt>0</asrwt>
<pdfrwt beam="1">  1        2 0.12281108E+00 0.63186169E+03</pdfrwt>
<pdfrwt beam="2">  1       -2 0.78838452E-01 0.63186169E+03</pdfrwt>
<totfact> 0.50531529E+01</totfact>
</mgrwt>
</event>
<event>
 4    1  0.5387657E-008  0.3595085E+03  0.7818608E-02  0.1058779E+00
         -2   -1    0    0    0  501 -0.00000000000E+00  0.00000000000E+00  0.97398696125E+03  0.97398696125E+03  0.25500000000E-02 0.  1.
          2   -1    0    0  501    0  0.00000000000E+00 -0.00000000000E+00 -0.11061122431E+04  0.11061122432E+04  0.25500000000E-02 0. -1.
    8880022    1    1    2    0    0  0.18107571404E+03 -0.27030783348E+03  0.90960800487E+03  0.97807623148E+03  0.15294330000E+03 0.  0.
    8880022    1    1    2    0    0 -0.18107571404E+03  0.27030783348E+03 -0.10417332868E+04  0.11020229729E+04  0.15294330000E+03 0.  0.
<mgrwt>
<rscale>  0 0.35950854E+03</rscale>
<asrwt>0</asrwt>
<pdfrwt beam="1">  1        2 0.17017112E+00 0.35950854E+03</pdfrwt>
<pdfrwt beam="2">  1       -2 0.14984415E+00 0.35950854E+03</pdfrwt>
<totfact> 0.71261904E+00</totfact>
</mgrwt>
</event>
<event>
 4    1  0.5387657E-008  0.5445637E+03  0.7818608E-02  0.1002760E+00
         -2   -1    0    0    0  501 -0.00000000000E+00  0.00000000000E+00  0.75663315622E+03  0.75663315622E+03  0.25500000000E-02 0.  1.
          2   -1    0    0  501    0  0.00000000000E+00 -0.00000000000E+00 -0.12541659837E+04  0.12541659837E+04  0.25500000000E-02 0. -1.
    8880022    1    1    2    0    0  0.49365116074E+03 -0.17165799743E+03 -0.10823966794E+04  0.12116650367E+04  0.15294330000E+03 0.  0.
    8880022    1    1    2    0    0 -0.49365116074E+03  0.17165799743E+03  0.58486385194E+03  0.79913410320E+03  0.15294330000E+03 0.  0.
<mgrwt>
<rscale>  0 0.54456367E+03</rscale>
<asrwt>0</asrwt>
<pdfrwt beam="1">  1        2 0.19294861E+00 0.54456367E+03</pdfrwt>
<pdfrwt beam="2">  1       -2 0.11640510E+00 0.54456367E+03</pdfrwt>
<totfact> 0.10594321E+01</totfact>
</mgrwt>
</event>
<event>
 4    1  0.5387657E-008  0.3177734E+03  0.7818608E-02  0.1076679E+00
         -2   -1    0    0    0  501 -0.00000000000E+00  0.00000000000E+00  0.86923950102E+03  0.86923950103E+03  0.25500000000E-02 0.  1.
          2   -1    0    0  501    0  0.00000000000E+00 -0.00000000000E+00 -0.53104142497E+03  0.53104142498E+03  0.25500000000E-02 0. -1.
    8880022    1    1    2    0    0 -0.20341904062E+03  0.19028649641E+03  0.78793782158E+03  0.84960339012E+03  0.15294330000E+03 0.  0.
    8880022    1    1    2    0    0  0.20341904062E+03 -0.19028649641E+03 -0.44973974553E+03  0.55067753589E+03  0.15294330000E+03 0.  0.
<mgrwt>
<rscale>  0 0.31777336E+03</rscale>
<asrwt>0</asrwt>
<pdfrwt beam="1">  1        2 0.81698681E-01 0.31777336E+03</pdfrwt>
<pdfrwt beam="2">  1       -2 0.13372915E+00 0.31777336E+03</pdfrwt>
<totfact> 0.24787848E+01</totfact>
</mgrwt>
</event>
<event>
 4    1  0.5387657E-008  0.2149165E+03  0.7818608E-02  0.1137731E+00
         -2   -1    0    0    0  501 -0.00000000000E+00  0.00000000000E+00  0.13920867686E+03  0.13920867688E+03  0.25500000000E-02 0.  1.
          2   -1    0    0  501    0  0.00000000000E+00 -0.00000000000E+00 -0.11003307429E+04  0.11003307429E+04  0.25500000000E-02 0. -1.
    8880022    1    1    2    0    0  0.23738829316E+02 -0.14911039006E+03 -0.99852559500E+03  0.10213924110E+04  0.15294330000E+03 0.  0.
    8880022    1    1    2    0    0 -0.23738829316E+02  0.14911039006E+03  0.37403528935E+02  0.21814700877E+03  0.15294330000E+03 0.  0.
<mgrwt>
<rscale>  0 0.21491648E+03</rscale>
<asrwt>0</asrwt>
<pdfrwt beam="1">  1        2 0.16928165E+00 0.21491648E+03</pdfrwt>
<pdfrwt beam="2">  1       -2 0.21416720E-01 0.21491648E+03</pdfrwt>
<totfact> 0.43167071E+02</totfact>
</mgrwt>
</event>
<event>
 4    1  0.5387657E-008  0.5045205E+03  0.7818608E-02  0.1012606E+00
          2   -1    0    0  501    0  0.00000000000E+00  0.00000000000E+00  0.36375672570E+03  0.36375672571E+03  0.25500000000E-02 0. -1.
         -2   -1    0    0    0  501 -0.00000000000E+00 -0.00000000000E+00 -0.10528918026E+04  0.10528918026E+04  0.25500000000E-02 0.  1.
    8880022    1    1    2    0    0  0.40774260889E+03 -0.25474549231E+03 -0.75478214269E+03  0.90787501171E+03  0.15294330000E+03 0.  0.
    8880022    1    1    2    0    0 -0.40774260889E+03  0.25474549231E+03  0.65647065773E+02  0.50877351662E+03  0.15294330000E+03 0.  0.
<mgrwt>
<rscale>  0 0.50452052E+03</rscale>
<asrwt>0</asrwt>
<pdfrwt beam="1">  1        2 0.55962574E-01 0.50452052E+03</pdfrwt>
<pdfrwt beam="2">  1       -2 0.16198335E+00 0.50452052E+03</pdfrwt>
<totfact> 0.22371859E+01</totfact>
</mgrwt>
</event>
<event>
 4    1  0.5387657E-008  0.7930547E+03  0.7818608E-02  0.9570125E-01
         -2   -1    0    0    0  501 -0.00000000000E+00  0.00000000000E+00  0.79731472453E+03  0.79731472454E+03  0.25500000000E-02 0.  1.
          2   -1    0    0  501    0  0.00000000000E+00 -0.00000000000E+00 -0.11427996689E+04  0.11427996689E+04  0.25500000000E-02 0. -1.
    8880022    1    1    2    0    0 -0.53103384012E+03  0.56881200164E+03 -0.71262972806E+03  0.10661973621E+04  0.15294330000E+03 0.  0.
    8880022    1    1    2    0    0  0.53103384012E+03 -0.56881200164E+03  0.36714478367E+03  0.87391703139E+03  0.15294330000E+03 0.  0.
<mgrwt>
<rscale>  0 0.79305465E+03</rscale>
<asrwt>0</asrwt>
<pdfrwt beam="1">  1        2 0.17581533E+00 0.79305465E+03</pdfrwt>
<pdfrwt beam="2">  1       -2 0.12266380E+00 0.79305465E+03</pdfrwt>
<totfact> 0.10451670E+01</totfact>
</mgrwt>
</event>
<event>
 4    1  0.5387657E-008  0.3214916E+03  0.7818608E-02  0.1074965E+00
          2   -1    0    0  501    0  0.00000000000E+00  0.00000000000E+00  0.16596880493E+04  0.16596880493E+04  0.25500000000E-02 0. -1.
         -2   -1    0    0    0  501 -0.00000000000E+00 -0.00000000000E+00 -0.98313352881E+02  0.98313352914E+02  0.25500000000E-02 0.  1.
    8880022    1    1    2    0    0  0.28198870120E+03 -0.21155270338E+02  0.24849781122E+03  0.40633482285E+03  0.15294330000E+03 0.  0.
    8880022    1    1    2    0    0 -0.28198870120E+03  0.21155270338E+02  0.13128768852E+04  0.13516665794E+04  0.15294330000E+03 0. -1.
<mgrwt>
<rscale>  0 0.32149156E+03</rscale>
<asrwt>0</asrwt>
<pdfrwt beam="1">  1        2 0.25533662E+00 0.32149156E+03</pdfrwt>
<pdfrwt beam="2">  1       -2 0.15125131E-01 0.32149156E+03</pdfrwt>
<totfact> 0.37755870E+02</totfact>
</mgrwt>
</event>
<event>
 4    1  0.5387657E-008  0.3761417E+03  0.7818608E-02  0.1052369E+00
         -2   -1    0    0    0  501 -0.00000000000E+00  0.00000000000E+00  0.25941438506E+03  0.25941438507E+03  0.25500000000E-02 0.  1.
          2   -1    0    0  501    0  0.00000000000E+00 -0.00000000000E+00 -0.73014296301E+03  0.73014296301E+03  0.25500000000E-02 0. -1.
    8880022    1    1    2    0    0 -0.11799367074E+03 -0.32275131009E+03  0.13521561618E+02  0.37638464387E+03  0.15294330000E+03 0.  0.
    8880022    1    1    2    0    0  0.11799367074E+03  0.32275131009E+03 -0.48425013957E+03  0.61317270421E+03  0.15294330000E+03 0.  0.
<mgrwt>
<rscale>  0 0.37614169E+03</rscale>
<asrwt>0</asrwt>
<pdfrwt beam="1">  1        2 0.11232969E+00 0.37614169E+03</pdfrwt>
<pdfrwt beam="2">  1       -2 0.39909906E-01 0.37614169E+03</pdfrwt>
<totfact> 0.23803266E+02</totfact>
</mgrwt>
</event>
<event>
 4    1  0.5387657E-008  0.7657571E+03  0.7818608E-02  0.9610949E-01
          2   -1    0    0  501    0  0.00000000000E+00  0.00000000000E+00  0.24395967136E+04  0.24395967136E+04  0.25500000000E-02 0. -1.
         -2   -1    0    0    0  501 -0.00000000000E+00 -0.00000000000E+00 -0.35952006298E+03  0.35952006299E+03  0.25500000000E-02 0.  1.
    8880022    1    1    2    0    0 -0.37949719561E+03 -0.64728219233E+03  0.23430204921E+03  0.80080051277E+03  0.15294330000E+03 0.  0.
    8880022    1    1    2    0    0  0.37949719561E+03  0.64728219233E+03  0.18457746014E+04  0.19983162638E+04  0.15294330000E+03 0.  0.
<mgrwt>
<rscale>  0 0.76575715E+03</rscale>
<asrwt>0</asrwt>
<pdfrwt beam="1">  1        2 0.37532256E+00 0.76575715E+03</pdfrwt>
<pdfrwt beam="2">  1       -2 0.55310780E-01 0.76575715E+03</pdfrwt>
<totfact> 0.12098412E+01</totfact>
</mgrwt>
</event>
<event>
 4    1  0.5387657E-008  0.5108956E+03  0.7818608E-02  0.1010973E+00
         -2   -1    0    0    0  501 -0.00000000000E+00  0.00000000000E+00  0.17922841873E+04  0.17922841873E+04  0.25500000000E-02 0.  1.
          2   -1    0    0  501    0  0.00000000000E+00 -0.00000000000E+00 -0.50344147806E+03  0.50344147807E+03  0.25500000000E-02 0. -1.
    8880022    1    1    2    0    0 -0.28966222888E+03 -0.39206947660E+03 -0.32327984744E+03  0.60458596916E+03  0.15294330000E+03 0.  0.
    8880022    1    1    2    0    0  0.28966222888E+03  0.39206947660E+03  0.16121225566E+04  0.16911396962E+04  0.15294330000E+03 0.  0.
<mgrwt>
<rscale>  0 0.51089562E+03</rscale>
<asrwt>0</asrwt>
<pdfrwt beam="1">  1        2 0.77452535E-01 0.51089562E+03</pdfrwt>
<pdfrwt beam="2">  1       -2 0.27573603E+00 0.51089562E+03</pdfrwt>
<totfact> 0.29504130E+00</totfact>
</mgrwt>
</event>
<event>
 4    1  0.5387657E-008  0.3870944E+03  0.7818608E-02  0.1048342E+00
         -2   -1    0    0    0  501 -0.00000000000E+00  0.00000000000E+00  0.28918825768E+03  0.28918825769E+03  0.25500000000E-02 0.  1.
          2   -1    0    0  501    0  0.00000000000E+00 -0.00000000000E+00 -0.10053329637E+04  0.10053329637E+04  0.25500000000E-02 0. -1.
    8880022    1    1    2    0    0 -0.35558920838E+03 -0.25958750426E+01 -0.80865195403E+03  0.89652666411E+03  0.15294330000E+03 0. -1.
    8880022    1    1    2    0    0  0.35558920838E+03  0.25958750426E+01  0.92507248002E+02  0.39799455729E+03  0.15294330000E+03 0.  0.
<mgrwt>
<rscale>  0 0.38709440E+03</rscale>
<asrwt>0</asrwt>
<pdfrwt beam="1">  1        2 0.15466661E+00 0.38709440E+03</pdfrwt>
<pdfrwt beam="2">  1       -2 0.44490502E-01 0.38709440E+03</pdfrwt>
<totfact> 0.12546946E+02</totfact>
</mgrwt>
</event>
<event>
 4    1  0.5387657E-008  0.5970963E+03  0.7818608E-02  0.9911449E-01
          2   -1    0    0  501    0  0.00000000000E+00  0.00000000000E+00  0.26848373543E+04  0.26848373543E+04  0.25500000000E-02 0. -1.
         -2   -1    0    0    0  501 -0.00000000000E+00 -0.00000000000E+00 -0.14639841114E+03  0.14639841116E+03  0.25500000000E-02 0.  1.
    8880022    1    1    2    0    0 -0.56851057777E+03  0.99639955158E+02  0.83764590947E+03  0.10286761980E+04  0.15294330000E+03 0.  0.
    8880022    1    1    2    0    0  0.56851057777E+03 -0.99639955158E+02  0.17007930337E+04  0.18025595675E+04  0.15294330000E+03 0.  0.
<mgrwt>
<rscale>  0 0.59709635E+03</rscale>
<asrwt>0</asrwt>
<pdfrwt beam="1">  1        2 0.41305187E+00 0.59709635E+03</pdfrwt>
<pdfrwt beam="2">  1       -2 0.22522834E-01 0.59709635E+03</pdfrwt>
<totfact> 0.50206180E+01</totfact>
</mgrwt>
</event>
<event>
 4    1  0.5387657E-008  0.4314002E+03  0.7818608E-02  0.1033419E+00
          2   -1    0    0  501    0  0.00000000000E+00  0.00000000000E+00  0.12272760822E+04  0.12272760822E+04  0.25500000000E-02 0. -1.
         -2   -1    0    0    0  501 -0.00000000000E+00 -0.00000000000E+00 -0.39288131034E+03  0.39288131035E+03  0.25500000000E-02 0.  1.
    8880022    1    1    2    0    0 -0.40291053398E+03 -0.19430372642E+02  0.10519740295E+04  0.11369940411E+04  0.15294330000E+03 0.  0.
    8880022    1    1    2    0    0  0.40291053398E+03  0.19430372642E+02 -0.21757925766E+03  0.48316335142E+03  0.15294330000E+03 0.  0.
<mgrwt>
<rscale>  0 0.43140015E+03</rscale>
<asrwt>0</asrwt>
<pdfrwt beam="1">  1        2 0.18881170E+00 0.43140015E+03</pdfrwt>
<pdfrwt beam="2">  1       -2 0.60443279E-01 0.43140015E+03</pdfrwt>
<totfact> 0.49300710E+01</totfact>
</mgrwt>
</event>
<event>
 4    1  0.5387657E-008  0.1154542E+04  0.7818608E-02  0.9153604E-01
         -2   -1    0    0    0  501 -0.00000000000E+00  0.00000000000E+00  0.11554430922E+04  0.11554430922E+04  0.25500000000E-02 0.  1.
          2   -1    0    0  501    0  0.00000000000E+00 -0.00000000000E+00 -0.14169373791E+04  0.14169373791E+04  0.25500000000E-02 0. -1.
    8880022    1    1    2    0    0  0.76728140504E+03  0.84903176173E+03 -0.68518355095E+03  0.13425512424E+04  0.15294330000E+03 0.  0.
    8880022    1    1    2    0    0 -0.76728140504E+03 -0.84903176173E+03  0.42368926398E+03  0.12298292289E+04  0.15294330000E+03 0.  0.
<mgrwt>
<rscale>  0 0.11545420E+04</rscale>
<asrwt>0</asrwt>
<pdfrwt beam="1">  1        2 0.21799037E+00 0.11545420E+04</pdfrwt>
<pdfrwt beam="2">  1       -2 0.17776047E+00 0.11545420E+04</pdfrwt>
<totfact> 0.25933960E+00</totfact>
</mgrwt>
</event>
<event>
 4    1  0.5387657E-008  0.2995926E+03  0.7818608E-02  0.1085444E+00
         -2   -1    0    0    0  501 -0.00000000000E+00  0.00000000000E+00  0.11610092738E+03  0.11610092741E+03  0.25500000000E-02 0.  1.
          2   -1    0    0  501    0  0.00000000000E+00 -0.00000000000E+00 -0.18366843770E+04  0.18366843770E+04  0.25500000000E-02 0. -1.
    8880022    1    1    2    0    0 -0.21672491197E+03  0.13926367170E+03 -0.16033050132E+04  0.16310556937E+04  0.15294330000E+03 0.  0.
    8880022    1    1    2    0    0  0.21672491197E+03 -0.13926367170E+03 -0.11727843643E+03  0.32172961068E+03  0.15294330000E+03 0.  0.
<mgrwt>
<rscale>  0 0.29959257E+03</rscale>
<asrwt>0</asrwt>
<pdfrwt beam="1">  1        2 0.28256681E+00 0.29959257E+03</pdfrwt>
<pdfrwt beam="2">  1       -2 0.17861682E-01 0.29959257E+03</pdfrwt>
<totfact> 0.23096026E+02</totfact>
</mgrwt>
</event>
<event>
 4    1  0.5387657E-008  0.3700533E+03  0.7818608E-02  0.1054673E+00
          2   -1    0    0  501    0  0.00000000000E+00  0.00000000000E+00  0.68118524858E+03  0.68118524858E+03  0.25500000000E-02 0. -1.
         -2   -1    0    0    0  501 -0.00000000000E+00 -0.00000000000E+00 -0.26534060409E+03  0.26534060410E+03  0.25500000000E-02 0.  1.
    8880022    1    1    2    0    0  0.29531624100E+03 -0.16228414218E+03 -0.25068020310E+02  0.37090144737E+03  0.15294330000E+03 0.  0.
    8880022    1    1    2    0    0 -0.29531624100E+03  0.16228414218E+03  0.44091266480E+03  0.57562440532E+03  0.15294330000E+03 0.  0.
<mgrwt>
<rscale>  0 0.37005334E+03</rscale>
<asrwt>0</asrwt>
<pdfrwt beam="1">  1        2 0.10479773E+00 0.37005334E+03</pdfrwt>
<pdfrwt beam="2">  1       -2 0.40821631E-01 0.37005334E+03</pdfrwt>
<totfact> 0.24842083E+02</totfact>
</mgrwt>
</event>
<event>
 4    1  0.5387657E-008  0.6504029E+03  0.7818608E-02  0.9806023E-01
          2   -1    0    0  501    0  0.00000000000E+00  0.00000000000E+00  0.10088212543E+04  0.10088212543E+04  0.25500000000E-02 0. -1.
         -2   -1    0    0    0  501 -0.00000000000E+00 -0.00000000000E+00 -0.14931783259E+04  0.14931783259E+04  0.25500000000E-02 0.  1.
    8880022    1    1    2    0    0  0.35163074618E+03  0.52534568625E+03 -0.13030771717E+04  0.14563770254E+04  0.15294330000E+03 0.  0.
    8880022    1    1    2    0    0 -0.35163074618E+03 -0.52534568625E+03  0.81872010008E+03  0.10456225548E+04  0.15294330000E+03 0.  0.
<mgrwt>
<rscale>  0 0.65040289E+03</rscale>
<asrwt>0</asrwt>
<pdfrwt beam="1">  1        2 0.15520327E+00 0.65040289E+03</pdfrwt>
<pdfrwt beam="2">  1       -2 0.22971974E+00 0.65040289E+03</pdfrwt>
<totfact> 0.22363281E+00</totfact>
</mgrwt>
</event>
<event>
 4    1  0.5387657E-008  0.5313511E+03  0.7818608E-02  0.1005905E+00
         -2   -1    0    0    0  501 -0.00000000000E+00  0.00000000000E+00  0.63251885947E+03  0.63251885948E+03  0.25500000000E-02 0.  1.
          2   -1    0    0  501    0  0.00000000000E+00 -0.00000000000E+00 -0.69591255090E+03  0.69591255091E+03  0.25500000000E-02 0. -1.
    8880022    1    1    2    0    0  0.50823472432E+03  0.25293681833E+02 -0.42944567042E+03  0.68319656191E+03  0.15294330000E+03 0.  0.
    8880022    1    1    2    0    0 -0.50823472432E+03 -0.25293681833E+02  0.36605197899E+03  0.64523484847E+03  0.15294330000E+03 0.  1.
<mgrwt>
<rscale>  0 0.53135107E+03</rscale>
<asrwt>0</asrwt>
<pdfrwt beam="1">  1        2 0.10706347E+00 0.53135107E+03</pdfrwt>
<pdfrwt beam="2">  1       -2 0.97310594E-01 0.53135107E+03</pdfrwt>
<totfact> 0.37618855E+01</totfact>
</mgrwt>
</event>
<event>
 4    1  0.5387657E-008  0.7221447E+03  0.7818608E-02  0.9680094E-01
          2   -1    0    0  501    0  0.00000000000E+00  0.00000000000E+00  0.55845980651E+03  0.55845980651E+03  0.25500000000E-02 0. -1.
         -2   -1    0    0    0  501 -0.00000000000E+00 -0.00000000000E+00 -0.11208599812E+04  0.11208599812E+04  0.25500000000E-02 0.  1.
    8880022    1    1    2    0    0 -0.36001860947E+03 -0.60703206034E+03  0.61813642921E+02  0.72478541715E+03  0.15294330000E+03 0.  0.
    8880022    1    1    2    0    0  0.36001860947E+03  0.60703206034E+03 -0.62421381757E+03  0.95453437052E+03  0.15294330000E+03 0.  0.
<mgrwt>
<rscale>  0 0.72214470E+03</rscale>
<asrwt>0</asrwt>
<pdfrwt beam="1">  1        2 0.85916893E-01 0.72214470E+03</pdfrwt>
<pdfrwt beam="2">  1       -2 0.17244000E+00 0.72214470E+03</pdfrwt>
<totfact> 0.11283851E+01</totfact>
</mgrwt>
</event>
<event>
 4    1  0.5387657E-008  0.2555531E+03  0.7818608E-02  0.1109845E+00
         -2   -1    0    0    0  501 -0.00000000000E+00  0.00000000000E+00  0.79643537017E+02  0.79643537057E+02  0.25500000000E-02 0.  1.
          2   -1    0    0  501    0  0.00000000000E+00 -0.00000000000E+00 -0.28590604996E+04  0.28590604996E+04  0.25500000000E-02 0. -1.
    8880022    1    1    2    0    0 -0.91168552016E+02 -0.18331401081E+03 -0.14882883971E+03  0.29573198674E+03  0.15294330000E+03 0.  0.
    8880022    1    1    2    0    0  0.91168552016E+02  0.18331401081E+03 -0.26305881229E+04  0.26429720500E+04  0.15294330000E+03 0. -1.
<mgrwt>
<rscale>  0 0.25555310E+03</rscale>
<asrwt>0</asrwt>
<pdfrwt beam="1">  1        2 0.43985538E+00 0.25555310E+03</pdfrwt>
<pdfrwt beam="2">  1       -2 0.12252854E-01 0.25555310E+03</pdfrwt>
<totfact> 0.12149300E+02</totfact>
</mgrwt>
</event>
<event>
 4    1  0.5387657E-008  0.5762397E+03  0.7818608E-02  0.9955965E-01
         -2   -1    0    0    0  501 -0.00000000000E+00  0.00000000000E+00  0.49752720973E+03  0.49752720974E+03  0.25500000000E-02 0.  1.
          2   -1    0    0  501    0  0.00000000000E+00 -0.00000000000E+00 -0.94282946137E+03  0.94282946137E+03  0.25500000000E-02 0. -1.
    8880022    1    1    2    0    0 -0.45148721998E+03 -0.32375885452E+03 -0.61189762641E+03  0.84051821152E+03  0.15294330000E+03 0.  0.
    8880022    1    1    2    0    0  0.45148721998E+03  0.32375885452E+03  0.16659537477E+03  0.59983845958E+03  0.15294330000E+03 0.  0.
<mgrwt>
<rscale>  0 0.57623967E+03</rscale>
<asrwt>0</asrwt>
<pdfrwt beam="1">  1        2 0.14505069E+00 0.57623967E+03</pdfrwt>
<pdfrwt beam="2">  1       -2 0.76542648E-01 0.57623967E+03</pdfrwt>
<totfact> 0.43266311E+01</totfact>
</mgrwt>
</event>
<event>
 4    1  0.5387657E-008  0.5878871E+03  0.7818608E-02  0.9930860E-01
         -2   -1    0    0    0  501 -0.00000000000E+00  0.00000000000E+00  0.28723764845E+03  0.28723764846E+03  0.25500000000E-02 0.  1.
          2   -1    0    0  501    0  0.00000000000E+00 -0.00000000000E+00 -0.16969103754E+04  0.16969103754E+04  0.25500000000E-02 0. -1.
    8880022    1    1    2    0    0 -0.41096094260E+03  0.39157458342E+03 -0.16972985256E+03  0.61189821588E+03  0.15294330000E+03 0.  0.
    8880022    1    1    2    0    0  0.41096094260E+03 -0.39157458342E+03 -0.12399428744E+04  0.13722498080E+04  0.15294330000E+03 0.  0.
<mgrwt>
<rscale>  0 0.58788707E+03</rscale>
<asrwt>0</asrwt>
<pdfrwt beam="1">  1        2 0.26106313E+00 0.58788707E+03</pdfrwt>
<pdfrwt beam="2">  1       -2 0.44190409E-01 0.58788707E+03</pdfrwt>
<totfact> 0.50008480E+01</totfact>
</mgrwt>
</event>
<event>
 4    1  0.5387657E-008  0.1160904E+04  0.7818608E-02  0.9147782E-01
         -2   -1    0    0    0  501 -0.00000000000E+00  0.00000000000E+00  0.18688079404E+04  0.18688079404E+04  0.25500000000E-02 0.  1.
          2   -1    0    0  501    0  0.00000000000E+00 -0.00000000000E+00 -0.17121144682E+04  0.17121144682E+04  0.25500000000E-02 0. -1.
    8880022    1    1    2    0    0 -0.19598998837E+03  0.11339731871E+04  0.14405019953E+04  0.18500661923E+04  0.15294330000E+03 0.  0.
    8880022    1    1    2    0    0  0.19598998837E+03 -0.11339731871E+04 -0.12838085230E+04  0.17308562163E+04  0.15294330000E+03 0.  0.
<mgrwt>
<rscale>  0 0.11609044E+04</rscale>
<asrwt>0</asrwt>
<pdfrwt beam="1">  1        2 0.26340223E+00 0.11609044E+04</pdfrwt>
<pdfrwt beam="2">  1       -2 0.28750891E+00 0.11609044E+04</pdfrwt>
<totfact> 0.35863049E-01</totfact>
</mgrwt>
</event>
<event>
 4    1  0.5387657E-008  0.7145170E+03  0.7818608E-02  0.9692723E-01
          2   -1    0    0  501    0  0.00000000000E+00  0.00000000000E+00  0.47944603121E+03  0.47944603121E+03  0.25500000000E-02 0. -1.
         -2   -1    0    0    0  501 -0.00000000000E+00 -0.00000000000E+00 -0.14279727563E+04  0.14279727563E+04  0.25500000000E-02 0.  1.
    8880022    1    1    2    0    0 -0.69047185232E+03 -0.10193861324E+03  0.66726681891E+01  0.71454813500E+03  0.15294330000E+03 0.  0.
    8880022    1    1    2    0    0  0.69047185232E+03  0.10193861324E+03 -0.95519939329E+03  0.11928706525E+04  0.15294330000E+03 0.  0.
<mgrwt>
<rscale>  0 0.71451698E+03</rscale>
<asrwt>0</asrwt>
<pdfrwt beam="1">  1        2 0.73760929E-01 0.71451698E+03</pdfrwt>
<pdfrwt beam="2">  1       -2 0.21968811E+00 0.71451698E+03</pdfrwt>
<totfact> 0.65928060E+00</totfact>
</mgrwt>
</event>
<event>
 4    1  0.5387657E-008  0.6688904E+03  0.7818608E-02  0.9771964E-01
         -2   -1    0    0    0  501 -0.00000000000E+00  0.00000000000E+00  0.48875317466E+03  0.48875317467E+03  0.25500000000E-02 0.  1.
          2   -1    0    0  501    0  0.00000000000E+00 -0.00000000000E+00 -0.15480994896E+04  0.15480994896E+04  0.25500000000E-02 0. -1.
    8880022    1    1    2    0    0 -0.44418963642E+03 -0.47614936174E+03 -0.11807348687E+04  0.13570368937E+04  0.15294330000E+03 0.  0.
    8880022    1    1    2    0    0  0.44418963642E+03  0.47614936174E+03  0.12138855381E+03  0.67981577049E+03  0.15294330000E+03 0.  0.
<mgrwt>
<rscale>  0 0.66889035E+03</rscale>
<asrwt>0</asrwt>
<pdfrwt beam="1">  1        2 0.23816915E+00 0.66889035E+03</pdfrwt>
<pdfrwt beam="2">  1       -2 0.75192797E-01 0.66889035E+03</pdfrwt>
<totfact> 0.19614628E+01</totfact>
</mgrwt>
</event>
<event>
 4    1  0.5387657E-008  0.1579196E+04  0.7818608E-02  0.8833432E-01
         -2   -1    0    0    0  501 -0.00000000000E+00  0.00000000000E+00  0.22227125068E+04  0.22227125068E+04  0.25500000000E-02 0.  1.
          2   -1    0    0  501    0  0.00000000000E+00 -0.00000000000E+00 -0.13291932307E+04  0.13291932307E+04  0.25500000000E-02 0. -1.
    8880022    1    1    2    0    0 -0.45682501680E+03  0.15039209571E+04 -0.25443192104E+03  0.15995607512E+04  0.15294330000E+03 0.  0.
    8880022    1    1    2    0    0  0.45682501680E+03 -0.15039209571E+04  0.11479511972E+04  0.19523449863E+04  0.15294330000E+03 0.  0.
<mgrwt>
<rscale>  0 0.15791957E+04</rscale>
<asrwt>0</asrwt>
<pdfrwt beam="1">  1        2 0.20449127E+00 0.15791957E+04</pdfrwt>
<pdfrwt beam="2">  1       -2 0.34195577E+00 0.15791957E+04</pdfrwt>
<totfact> 0.26006812E-01</totfact>
</mgrwt>
</event>
<event>
 4    1  0.5387657E-008  0.3714506E+03  0.7818608E-02  0.1054140E+00
          2   -1    0    0  501    0  0.00000000000E+00  0.00000000000E+00  0.34395687726E+03  0.34395687727E+03  0.25500000000E-02 0. -1.
         -2   -1    0    0    0  501 -0.00000000000E+00 -0.00000000000E+00 -0.66920114020E+03  0.66920114021E+03  0.25500000000E-02 0.  1.
    8880022    1    1    2    0    0  0.33018164860E+03 -0.74591981720E+02  0.15799313040E+03  0.40365500998E+03  0.15294330000E+03 0. -1.
    8880022    1    1    2    0    0 -0.33018164860E+03  0.74591981720E+02 -0.48323739334E+03  0.60950300750E+03  0.15294330000E+03 0.  1.
<mgrwt>
<rscale>  0 0.37145059E+03</rscale>
<asrwt>0</asrwt>
<pdfrwt beam="1">  1        2 0.52916443E-01 0.37145059E+03</pdfrwt>
<pdfrwt beam="2">  1       -2 0.10295402E+00 0.37145059E+03</pdfrwt>
<totfact> 0.75351409E+01</totfact>
</mgrwt>
</event>
<event>
 4    1  0.5387657E-008  0.5542175E+03  0.7818608E-02  0.1000522E+00
         -2   -1    0    0    0  501 -0.00000000000E+00  0.00000000000E+00  0.56923532650E+03  0.56923532650E+03  0.25500000000E-02 0.  1.
          2   -1    0    0  501    0  0.00000000000E+00 -0.00000000000E+00 -0.12649319288E+04  0.12649319288E+04  0.25500000000E-02 0. -1.
    8880022    1    1    2    0    0  0.33273063334E+03  0.41599966291E+03  0.34660810512E+03  0.65367746287E+03  0.15294330000E+03 0.  0.
    8880022    1    1    2    0    0 -0.33273063334E+03 -0.41599966291E+03 -0.10423047074E+04  0.11804897924E+04  0.15294330000E+03 0.  0.
<mgrwt>
<rscale>  0 0.55421751E+03</rscale>
<asrwt>0</asrwt>
<pdfrwt beam="1">  1        2 0.19460491E+00 0.55421751E+03</pdfrwt>
<pdfrwt beam="2">  1       -2 0.87574666E-01 0.55421751E+03</pdfrwt>
<totfact> 0.20422791E+01</totfact>
</mgrwt>
</event>
<event>
 4    1  0.5387657E-008  0.2800824E+03  0.7818608E-02  0.1095644E+00
         -2   -1    0    0    0  501 -0.00000000000E+00  0.00000000000E+00  0.81100749321E+02  0.81100749361E+02  0.25500000000E-02 0.  1.
          2   -1    0    0  501    0  0.00000000000E+00 -0.00000000000E+00 -0.16227183267E+04  0.16227183267E+04  0.25500000000E-02 0. -1.
    8880022    1    1    2    0    0 -0.23111516382E+03 -0.40500220546E+02 -0.22937932819E+03  0.36202350204E+03  0.15294330000E+03 0.  1.
    8880022    1    1    2    0    0  0.23111516382E+03  0.40500220546E+02 -0.13122382492E+04  0.13417955740E+04  0.15294330000E+03 0. -1.
<mgrwt>
<rscale>  0 0.28008238E+03</rscale>
<asrwt>0</asrwt>
<pdfrwt beam="1">  1        2 0.24964895E+00 0.28008238E+03</pdfrwt>
<pdfrwt beam="2">  1       -2 0.12477040E-01 0.28008238E+03</pdfrwt>
<totfact> 0.54559904E+02</totfact>
</mgrwt>
</event>
<event>
 4    1  0.5387657E-008  0.3578702E+03  0.7818608E-02  0.1059430E+00
         -2   -1    0    0    0  501 -0.00000000000E+00  0.00000000000E+00  0.19916133537E+03  0.19916133539E+03  0.25500000000E-02 0.  1.
          2   -1    0    0  501    0  0.00000000000E+00 -0.00000000000E+00 -0.17432711732E+04  0.17432711732E+04  0.25500000000E-02 0. -1.
    8880022    1    1    2    0    0 -0.32322495772E+03  0.14319815320E+02 -0.48891510463E+00  0.35787053868E+03  0.15294330000E+03 0.  0.
    8880022    1    1    2    0    0  0.32322495772E+03 -0.14319815320E+02 -0.15436209227E+04  0.15845619699E+04  0.15294330000E+03 0. -1.
<mgrwt>
<rscale>  0 0.35787020E+03</rscale>
<asrwt>0</asrwt>
<pdfrwt beam="1">  1        2 0.26819555E+00 0.35787020E+03</pdfrwt>
<pdfrwt beam="2">  1       -2 0.30640207E-01 0.35787020E+03</pdfrwt>
<totfact> 0.98747943E+01</totfact>
</mgrwt>
</event>
<event>
 4    1  0.5387657E-008  0.7346478E+03  0.7818608E-02  0.9659748E-01
         -2   -1    0    0    0  501 -0.00000000000E+00  0.00000000000E+00  0.73808105169E+03  0.73808105170E+03  0.25500000000E-02 0.  1.
          2   -1    0    0  501    0  0.00000000000E+00 -0.00000000000E+00 -0.18851947288E+04  0.18851947288E+04  0.25500000000E-02 0. -1.
    8880022    1    1    2    0    0 -0.85261019035E+02 -0.71347477882E+03 -0.15997568720E+04  0.17603776310E+04  0.15294330000E+03 0.  0.
    8880022    1    1    2    0    0  0.85261019035E+02  0.71347477882E+03  0.45264319491E+03  0.86289814943E+03  0.15294330000E+03 0.  0.
<mgrwt>
<rscale>  0 0.73464778E+03</rscale>
<asrwt>0</asrwt>
<pdfrwt beam="1">  1        2 0.29002996E+00 0.73464778E+03</pdfrwt>
<pdfrwt beam="2">  1       -2 0.11355093E+00 0.73464778E+03</pdfrwt>
<totfact> 0.48758814E+00</totfact>
</mgrwt>
</event>
<event>
 4    1  0.5387657E-008  0.1885553E+03  0.7818608E-02  0.1159771E+00
         -2   -1    0    0    0  501 -0.00000000000E+00  0.00000000000E+00  0.32138007767E+02  0.32138007868E+02  0.25500000000E-02 0.  1.
          2   -1    0    0  501    0  0.00000000000E+00 -0.00000000000E+00 -0.13094886676E+04  0.13094886676E+04  0.25500000000E-02 0. -1.
    8880022    1    1    2    0    0  0.11013329563E+03  0.56656068175E+01 -0.90294048197E+03  0.92241780604E+03  0.15294330000E+03 0. -1.
    8880022    1    1    2    0    0 -0.11013329563E+03 -0.56656068175E+01 -0.37441017786E+03  0.41920886943E+03  0.15294330000E+03 0.  0.
<mgrwt>
<rscale>  0 0.18855528E+03</rscale>
<asrwt>0</asrwt>
<pdfrwt beam="1">  1        2 0.20145975E+00 0.18855528E+03</pdfrwt>
<pdfrwt beam="2">  1       -2 0.49443099E-02 0.18855528E+03</pdfrwt>
<totfact> 0.34351479E+03</totfact>
</mgrwt>
</event>
<event>
 4    1  0.5387657E-008  0.8042460E+03  0.7818608E-02  0.9553891E-01
          2   -1    0    0  501    0  0.00000000000E+00  0.00000000000E+00  0.20328496619E+04  0.20328496619E+04  0.25500000000E-02 0. -1.
         -2   -1    0    0    0  501 -0.00000000000E+00 -0.00000000000E+00 -0.56035188433E+03  0.56035188434E+03  0.25500000000E-02 0.  1.
    8880022    1    1    2    0    0 -0.87508655880E+02  0.78470514826E+03 -0.11614032761E+03  0.81258855718E+03  0.15294330000E+03 0.  0.
    8880022    1    1    2    0    0  0.87508655880E+02 -0.78470514826E+03  0.15886381052E+04  0.17806129891E+04  0.15294330000E+03 0.  0.
<mgrwt>
<rscale>  0 0.80424597E+03</rscale>
<asrwt>0</asrwt>
<pdfrwt beam="1">  1        2 0.31274610E+00 0.80424597E+03</pdfrwt>
<pdfrwt beam="2">  1       -2 0.86207984E-01 0.80424597E+03</pdfrwt>
<totfact> 0.76826873E+00</totfact>
</mgrwt>
</event>
<event>
 4    1  0.5387657E-008  0.5196571E+03  0.7818608E-02  0.1008772E+00
          2   -1    0    0  501    0  0.00000000000E+00  0.00000000000E+00  0.27375223538E+04  0.27375223538E+04  0.25500000000E-02 0. -1.
         -2   -1    0    0    0  501 -0.00000000000E+00 -0.00000000000E+00 -0.12612985017E+03  0.12612985020E+03  0.25500000000E-02 0.  1.
    8880022    1    1    2    0    0 -0.10882189125E+02  0.49652136819E+03  0.19740804010E+04  0.20413321567E+04  0.15294330000E+03 0.  0.
    8880022    1    1    2    0    0  0.10882189125E+02 -0.49652136819E+03  0.63731210261E+03  0.82232004734E+03  0.15294330000E+03 0.  0.
<mgrwt>
<rscale>  0 0.51965714E+03</rscale>
<asrwt>0</asrwt>
<pdfrwt beam="1">  1        2 0.42115724E+00 0.51965714E+03</pdfrwt>
<pdfrwt beam="2">  1       -2 0.19404595E-01 0.51965714E+03</pdfrwt>
<totfact> 0.61649216E+01</totfact>
</mgrwt>
</event>
<event>
 4    1  0.5387657E-008  0.7544854E+03  0.7818608E-02  0.9628340E-01
          2   -1    0    0  501    0  0.00000000000E+00  0.00000000000E+00  0.17617290170E+04  0.17617290170E+04  0.25500000000E-02 0. -1.
         -2   -1    0    0    0  501 -0.00000000000E+00 -0.00000000000E+00 -0.55806740531E+03  0.55806740532E+03  0.25500000000E-02 0.  1.
    8880022    1    1    2    0    0 -0.71249519282E+03  0.19546659468E+03  0.13544282437E+04  0.15503948238E+04  0.15294330000E+03 0.  0.
    8880022    1    1    2    0    0  0.71249519282E+03 -0.19546659468E+03 -0.15076663200E+03  0.76940159850E+03  0.15294330000E+03 0.  0.
<mgrwt>
<rscale>  0 0.75448542E+03</rscale>
<asrwt>0</asrwt>
<pdfrwt beam="1">  1        2 0.27103523E+00 0.75448542E+03</pdfrwt>
<pdfrwt beam="2">  1       -2 0.85856524E-01 0.75448542E+03</pdfrwt>
<totfact> 0.10982798E+01</totfact>
</mgrwt>
</event>
<event>
 4    1  0.5553916E-008  0.6229491E+03  0.7818608E-02  0.9858906E-01
          2   -1    0    0  501    0  0.00000000000E+00  0.00000000000E+00  0.24708419890E+04  0.24708419890E+04  0.25500000000E-02 0. -1.
         -2   -1    0    0    0  501 -0.00000000000E+00 -0.00000000000E+00 -0.66369511676E+03  0.66369511677E+03  0.25500000000E-02 0.  1.
    8880022    1    1    2    0    0 -0.60004071197E+03 -0.68007789660E+02 -0.46575491016E+03  0.77781309119E+03  0.15294330000E+03 0.  0.
    8880022    1    1    2    0    0  0.60004071197E+03  0.68007789660E+02  0.22729017824E+04  0.23567240146E+04  0.15294330000E+03 0.  0.
<mgrwt>
<rscale>  0 0.62294909E+03</rscale>
<asrwt>0</asrwt>
<pdfrwt beam="1">  1        2 0.38012954E+00 0.62294909E+03</pdfrwt>
<pdfrwt beam="2">  1       -2 0.10210694E+00 0.62294909E+03</pdfrwt>
<totfact> 0.30653284E+00</totfact>
</mgrwt>
</event>
<event>
 4    1  0.5387657E-008  0.4535685E+03  0.7818608E-02  0.1026663E+00
          2   -1    0    0  501    0  0.00000000000E+00  0.00000000000E+00  0.18786211338E+04  0.18786211338E+04  0.25500000000E-02 0. -1.
         -2   -1    0    0    0  501 -0.00000000000E+00 -0.00000000000E+00 -0.50411244484E+03  0.50411244485E+03  0.25500000000E-02 0.  1.
    8880022    1    1    2    0    0  0.41498766512E+03  0.10058805121E+03  0.17413078826E+04  0.17994103238E+04  0.15294330000E+03 0. -1.
    8880022    1    1    2    0    0 -0.41498766512E+03 -0.10058805121E+03 -0.36679919362E+03  0.58332325490E+03  0.15294330000E+03 0.  0.
<mgrwt>
<rscale>  0 0.45356849E+03</rscale>
<asrwt>0</asrwt>
<pdfrwt beam="1">  1        2 0.28901864E+00 0.45356849E+03</pdfrwt>
<pdfrwt beam="2">  1       -2 0.77555761E-01 0.45356849E+03</pdfrwt>
<totfact> 0.12615540E+01</totfact>
</mgrwt>
</event>
<event>
 4    1  0.5387657E-008  0.3855247E+03  0.7818608E-02  0.1048910E+00
         -2   -1    0    0    0  501 -0.00000000000E+00  0.00000000000E+00  0.95528040111E+02  0.95528040145E+02  0.25500000000E-02 0.  1.
          2   -1    0    0  501    0  0.00000000000E+00 -0.00000000000E+00 -0.20342826878E+04  0.20342826878E+04  0.25500000000E-02 0. -1.
    8880022    1    1    2    0    0 -0.30902125743E+03 -0.17246311484E+03 -0.14858010771E+04  0.15350029828E+04  0.15294330000E+03 0.  0.
    8880022    1    1    2    0    0  0.30902125743E+03  0.17246311484E+03 -0.45295357052E+03  0.59480774507E+03  0.15294330000E+03 0.  0.
<mgrwt>
<rscale>  0 0.38552473E+03</rscale>
<asrwt>0</asrwt>
<pdfrwt beam="1">  1        2 0.31296654E+00 0.38552473E+03</pdfrwt>
<pdfrwt beam="2">  1       -2 0.14696623E-01 0.38552473E+03</pdfrwt>
<totfact> 0.24793596E+02</totfact>
</mgrwt>
</event>
<event>
 4    1  0.5387657E-008  0.5071880E+03  0.7818608E-02  0.1011920E+00
          2   -1    0    0  501    0  0.00000000000E+00  0.00000000000E+00  0.10925806224E+03  0.10925806227E+03  0.25500000000E-02 0. -1.
         -2   -1    0    0    0  501 -0.00000000000E+00 -0.00000000000E+00 -0.25255894828E+04  0.25255894828E+04  0.25500000000E-02 0.  1.
    8880022    1    1    2    0    0  0.45611700326E+03  0.16064031534E+03 -0.86519771361E+03  0.10028991815E+04  0.15294330000E+03 0.  0.
    8880022    1    1    2    0    0 -0.45611700326E+03 -0.16064031534E+03 -0.15511337069E+04  0.16319483636E+04  0.15294330000E+03 0.  0.
<mgrwt>
<rscale>  0 0.50718802E+03</rscale>
<asrwt>0</asrwt>
<pdfrwt beam="1">  1        2 0.16808935E-01 0.50718802E+03</pdfrwt>
<pdfrwt beam="2">  1       -2 0.38855218E+00 0.50718802E+03</pdfrwt>
<totfact> 0.33993774E+00</totfact>
</mgrwt>
</event>
<event>
 4    1  0.5387657E-008  0.5208769E+03  0.7818608E-02  0.1008469E+00
          2   -1    0    0  501    0  0.00000000000E+00  0.00000000000E+00  0.97601298140E+03  0.97601298141E+03  0.25500000000E-02 0. -1.
         -2   -1    0    0    0  501 -0.00000000000E+00 -0.00000000000E+00 -0.36201034857E+03  0.36201034858E+03  0.25500000000E-02 0.  1.
    8880022    1    1    2    0    0 -0.34056246984E+03 -0.36323313582E+03  0.62932298505E+03  0.81692115859E+03  0.15294330000E+03 0.  0.
    8880022    1    1    2    0    0  0.34056246984E+03  0.36323313582E+03 -0.15320352219E+02  0.52110217139E+03  0.15294330000E+03 0.  0.
<mgrwt>
<rscale>  0 0.52087691E+03</rscale>
<asrwt>0</asrwt>
<pdfrwt beam="1">  1        2 0.15015584E+00 0.52087691E+03</pdfrwt>
<pdfrwt beam="2">  1       -2 0.55693900E-01 0.52087691E+03</pdfrwt>
<totfact> 0.81880651E+01</totfact>
</mgrwt>
</event>
<event>
 4    1  0.5387657E-008  0.3353075E+03  0.7818608E-02  0.1068812E+00
          2   -1    0    0  501    0  0.00000000000E+00  0.00000000000E+00  0.69222247317E+03  0.69222247317E+03  0.25500000000E-02 0. -1.
         -2   -1    0    0    0  501 -0.00000000000E+00 -0.00000000000E+00 -0.77768847394E+03  0.77768847395E+03  0.25500000000E-02 0.  1.
    8880022    1    1    2    0    0 -0.25537171047E+03 -0.15435263645E+03 -0.69645087894E+03  0.77296502293E+03  0.15294330000E+03 0.  0.
    8880022    1    1    2    0    0  0.25537171047E+03  0.15435263645E+03  0.61098487816E+03  0.69694592419E+03  0.15294330000E+03 0. -1.
<mgrwt>
<rscale>  0 0.33530747E+03</rscale>
<asrwt>0</asrwt>
<pdfrwt beam="1">  1        2 0.10649577E+00 0.33530747E+03</pdfrwt>
<pdfrwt beam="2">  1       -2 0.11964438E+00 0.33530747E+03</pdfrwt>
<totfact> 0.23801297E+01</totfact>
</mgrwt>
</event>
<event>
 4    1  0.5387657E-008  0.5642699E+03  0.7818608E-02  0.9982439E-01
          2   -1    0    0  501    0  0.00000000000E+00  0.00000000000E+00  0.21687374460E+04  0.21687374460E+04  0.25500000000E-02 0. -1.
         -2   -1    0    0    0  501 -0.00000000000E+00 -0.00000000000E+00 -0.77104064482E+03  0.77104064482E+03  0.25500000000E-02 0.  1.
    8880022    1    1    2    0    0  0.38288133813E+03 -0.38524122390E+03 -0.62371694828E+03  0.84108465939E+03  0.15294330000E+03 0.  0.
    8880022    1    1    2    0    0 -0.38288133813E+03  0.38524122390E+03  0.20214137495E+04  0.20986934315E+04  0.15294330000E+03 0.  0.
<mgrwt>
<rscale>  0 0.56426995E+03</rscale>
<asrwt>0</asrwt>
<pdfrwt beam="1">  1        2 0.33365191E+00 0.56426995E+03</pdfrwt>
<pdfrwt beam="2">  1       -2 0.11862164E+00 0.56426995E+03</pdfrwt>
<totfact> 0.31795843E+00</totfact>
</mgrwt>
</event>
<event>
 4    1  0.5387657E-008  0.2308607E+03  0.7818608E-02  0.1126035E+00
         -2   -1    0    0    0  501 -0.00000000000E+00  0.00000000000E+00  0.12533037795E+04  0.12533037795E+04  0.25500000000E-02 0.  1.
          2   -1    0    0  501    0  0.00000000000E+00 -0.00000000000E+00 -0.10772577026E+03  0.10772577029E+03  0.25500000000E-02 0. -1.
    8880022    1    1    2    0    0  0.11958557512E+03 -0.12491718330E+03  0.11022138574E+04  0.11261314545E+04  0.15294330000E+03 0.  0.
    8880022    1    1    2    0    0 -0.11958557512E+03  0.12491718330E+03  0.43364151815E+02  0.23489809522E+03  0.15294330000E+03 0. -1.
<mgrwt>
<rscale>  0 0.23086071E+03</rscale>
<asrwt>0</asrwt>
<pdfrwt beam="1">  1        2 0.16573194E-01 0.23086071E+03</pdfrwt>
<pdfrwt beam="2">  1       -2 0.19281598E+00 0.23086071E+03</pdfrwt>
<totfact> 0.55909842E+01</totfact>
</mgrwt>
</event>
<event>
 4    1  0.5387657E-008  0.7160011E+03  0.7818608E-02  0.9690253E-01
          2   -1    0    0  501    0  0.00000000000E+00  0.00000000000E+00  0.25511448435E+04  0.25511448435E+04  0.25500000000E-02 0. -1.
         -2   -1    0    0    0  501 -0.00000000000E+00 -0.00000000000E+00 -0.35153248196E+03  0.35153248197E+03  0.25500000000E-02 0.  1.
    8880022    1    1    2    0    0  0.41153899231E+03  0.56559843597E+03  0.20496898409E+04  0.21711485508E+04  0.15294330000E+03 0.  0.
    8880022    1    1    2    0    0 -0.41153899231E+03 -0.56559843597E+03  0.14992252071E+03  0.73152877468E+03  0.15294330000E+03 0.  0.
<mgrwt>
<rscale>  0 0.71600111E+03</rscale>
<asrwt>0</asrwt>
<pdfrwt beam="1">  1        2 0.39248383E+00 0.71600111E+03</pdfrwt>
<pdfrwt beam="2">  1       -2 0.54081920E-01 0.71600111E+03</pdfrwt>
<totfact> 0.11048692E+01</totfact>
</mgrwt>
</event>
<event>
 4    1  0.5387657E-008  0.3491229E+03  0.7818608E-02  0.1062976E+00
          2   -1    0    0  501    0  0.00000000000E+00  0.00000000000E+00  0.93108249686E+03  0.93108249686E+03  0.25500000000E-02 0. -1.
         -2   -1    0    0    0  501 -0.00000000000E+00 -0.00000000000E+00 -0.24948494108E+03  0.24948494110E+03  0.25500000000E-02 0.  1.
    8880022    1    1    2    0    0 -0.28070942611E+03  0.14034728422E+03  0.74774543386E+03  0.82523331789E+03  0.15294330000E+03 0. -1.
    8880022    1    1    2    0    0  0.28070942611E+03 -0.14034728422E+03 -0.66147878080E+02  0.35533412006E+03  0.15294330000E+03 0.  0.
<mgrwt>
<rscale>  0 0.34912289E+03</rscale>
<asrwt>0</asrwt>
<pdfrwt beam="1">  1        2 0.14324346E+00 0.34912289E+03</pdfrwt>
<pdfrwt beam="2">  1       -2 0.38382298E-01 0.34912289E+03</pdfrwt>
<totfact> 0.18705120E+02</totfact>
</mgrwt>
</event>
<event>
 4    1  0.5387657E-008  0.1224717E+04  0.7818608E-02  0.9091493E-01
         -2   -1    0    0    0  501 -0.00000000000E+00  0.00000000000E+00  0.45005372428E+03  0.45005372428E+03  0.25500000000E-02 0.  1.
          2   -1    0    0  501    0  0.00000000000E+00 -0.00000000000E+00 -0.37707293691E+04  0.37707293691E+04  0.25500000000E-02 0. -1.
    8880022    1    1    2    0    0  0.12138126228E+04  0.56552713524E+02 -0.94111853734E+03  0.15445501115E+04  0.15294330000E+03 0.  0.
    8880022    1    1    2    0    0 -0.12138126228E+04 -0.56552713524E+02 -0.23795571075E+04  0.26762329819E+04  0.15294330000E+03 0.  0.
<mgrwt>
<rscale>  0 0.12247167E+04</rscale>
<asrwt>0</asrwt>
<pdfrwt beam="1">  1        2 0.58011219E+00 0.12247167E+04</pdfrwt>
<pdfrwt beam="2">  1       -2 0.69239037E-01 0.12247167E+04</pdfrwt>
<totfact> 0.99204431E-01</totfact>
</mgrwt>
</event>
<event>
 4    1  0.5387657E-008  0.5852771E+03  0.7818608E-02  0.9936431E-01
         -2   -1    0    0    0  501 -0.00000000000E+00  0.00000000000E+00  0.12325441000E+04  0.12325441000E+04  0.25500000000E-02 0.  1.
          2   -1    0    0  501    0  0.00000000000E+00 -0.00000000000E+00 -0.76522730054E+03  0.76522730054E+03  0.25500000000E-02 0. -1.
    8880022    1    1    2    0    0 -0.52861716293E+03  0.19930251757E+03 -0.56345812387E+03  0.81242495581E+03  0.15294330000E+03 0.  0.
    8880022    1    1    2    0    0  0.52861716293E+03 -0.19930251757E+03  0.10307749233E+04  0.11853464447E+04  0.15294330000E+03 0.  0.
<mgrwt>
<rscale>  0 0.58527707E+03</rscale>
<asrwt>0</asrwt>
<pdfrwt beam="1">  1        2 0.11772728E+00 0.58527707E+03</pdfrwt>
<pdfrwt beam="2">  1       -2 0.18962217E+00 0.58527707E+03</pdfrwt>
<totfact> 0.59486478E+00</totfact>
</mgrwt>
</event>
<event>
 4    1  0.5387657E-008  0.2500691E+03  0.7818608E-02  0.1113261E+00
         -2   -1    0    0    0  501 -0.00000000000E+00  0.00000000000E+00  0.24378386864E+02  0.24378386998E+02  0.25500000000E-02 0.  1.
          2   -1    0    0  501    0  0.00000000000E+00 -0.00000000000E+00 -0.33268222434E+04  0.33268222434E+04  0.25500000000E-02 0. -1.
    8880022    1    1    2    0    0 -0.17327515743E+03 -0.95491553900E+02 -0.24529657042E+04  0.24656794836E+04  0.15294330000E+03 0. -1.
    8880022    1    1    2    0    0  0.17327515743E+03  0.95491553900E+02 -0.84947815236E+03  0.88552114679E+03  0.15294330000E+03 0.  0.
<mgrwt>
<rscale>  0 0.25006913E+03</rscale>
<asrwt>0</asrwt>
<pdfrwt beam="1">  1        2 0.51181845E+00 0.25006913E+03</pdfrwt>
<pdfrwt beam="2">  1       -2 0.37505237E-02 0.25006913E+03</pdfrwt>
<totfact> 0.40031762E+02</totfact>
</mgrwt>
</event>
<event>
 4    1  0.5387657E-008  0.2183749E+03  0.7818608E-02  0.1135100E+00
         -2   -1    0    0    0  501 -0.00000000000E+00  0.00000000000E+00  0.18822968955E+03  0.18822968957E+03  0.25500000000E-02 0.  1.
          2   -1    0    0  501    0  0.00000000000E+00 -0.00000000000E+00 -0.20444135482E+04  0.20444135482E+04  0.25500000000E-02 0. -1.
    8880022    1    1    2    0    0  0.89296398113E+02  0.12775792786E+03  0.11677436094E+03  0.24763650627E+03  0.15294330000E+03 0.  1.
    8880022    1    1    2    0    0 -0.89296398113E+02 -0.12775792786E+03 -0.19729582196E+04  0.19850067315E+04  0.15294330000E+03 0.  0.
<mgrwt>
<rscale>  0 0.21837488E+03</rscale>
<asrwt>0</asrwt>
<pdfrwt beam="1">  1        2 0.31452515E+00 0.21837488E+03</pdfrwt>
<pdfrwt beam="2">  1       -2 0.28958415E-01 0.21837488E+03</pdfrwt>
<totfact> 0.79059118E+01</totfact>
</mgrwt>
</event>
<event>
 4    1  0.5387657E-008  0.2987653E+03  0.7818608E-02  0.1085859E+00
          2   -1    0    0  501    0  0.00000000000E+00  0.00000000000E+00  0.27282931800E+04  0.27282931800E+04  0.25500000000E-02 0. -1.
         -2   -1    0    0    0  501 -0.00000000000E+00 -0.00000000000E+00 -0.46445104909E+02  0.46445104979E+02  0.25500000000E-02 0.  1.
    8880022    1    1    2    0    0 -0.25477407808E+03  0.30971045379E+02  0.58664429415E+03  0.65834050261E+03  0.15294330000E+03 0.  0.
    8880022    1    1    2    0    0  0.25477407808E+03 -0.30971045379E+02  0.20952037810E+04  0.21163977824E+04  0.15294330000E+03 0.  0.
<mgrwt>
<rscale>  0 0.29876527E+03</rscale>
<asrwt>0</asrwt>
<pdfrwt beam="1">  1        2 0.41973735E+00 0.29876527E+03</pdfrwt>
<pdfrwt beam="2">  1       -2 0.71454018E-02 0.29876527E+03</pdfrwt>
<totfact> 0.33580637E+02</totfact>
</mgrwt>
</event>
<event>
 4    1  0.5387657E-008  0.1124101E+04  0.7818608E-02  0.9182015E-01
          2   -1    0    0  501    0  0.00000000000E+00  0.00000000000E+00  0.14536589582E+04  0.14536589582E+04  0.25500000000E-02 0. -1.
         -2   -1    0    0    0  501 -0.00000000000E+00 -0.00000000000E+00 -0.91098789109E+03  0.91098789109E+03  0.25500000000E-02 0.  1.
    8880022    1    1    2    0    0  0.95026212159E+03 -0.58070033259E+03  0.52438822146E+03  0.12403973701E+04  0.15294330000E+03 0.  0.
    8880022    1    1    2    0    0 -0.95026212159E+03  0.58070033259E+03  0.18282845671E+02  0.11242494792E+04  0.15294330000E+03 0.  0.
<mgrwt>
<rscale>  0 0.11241008E+04</rscale>
<asrwt>0</asrwt>
<pdfrwt beam="1">  1        2 0.22363984E+00 0.11241008E+04</pdfrwt>
<pdfrwt beam="2">  1       -2 0.14015198E+00 0.11241008E+04</pdfrwt>
<totfact> 0.47329658E+00</totfact>
</mgrwt>
</event>
<event>
 4    1  0.5387657E-008  0.2619555E+03  0.7818608E-02  0.1105974E+00
         -2   -1    0    0    0  501 -0.00000000000E+00  0.00000000000E+00  0.36666478147E+03  0.36666478148E+03  0.25500000000E-02 0.  1.
          2   -1    0    0  501    0  0.00000000000E+00 -0.00000000000E+00 -0.33675524444E+03  0.33675524445E+03  0.25500000000E-02 0. -1.
    8880022    1    1    2    0    0 -0.12037214952E+03  0.17532709867E+03  0.24937948093E+03  0.36167779090E+03  0.15294330000E+03 0.  0.
    8880022    1    1    2    0    0  0.12037214952E+03 -0.17532709867E+03 -0.21946994390E+03  0.34174223502E+03  0.15294330000E+03 0.  0.
<mgrwt>
<rscale>  0 0.26195553E+03</rscale>
<asrwt>0</asrwt>
<pdfrwt beam="1">  1        2 0.51808499E-01 0.26195553E+03</pdfrwt>
<pdfrwt beam="2">  1       -2 0.56409967E-01 0.26195553E+03</pdfrwt>
<totfact> 0.29172318E+02</totfact>
</mgrwt>
</event>
<event>
 4    1  0.5387657E-008  0.2400115E+03  0.7818608E-02  0.1119785E+00
          2   -1    0    0  501    0  0.00000000000E+00  0.00000000000E+00  0.58922700542E+03  0.58922700542E+03  0.25500000000E-02 0. -1.
         -2   -1    0    0    0  501 -0.00000000000E+00 -0.00000000000E+00 -0.18560093323E+03  0.18560093325E+03  0.25500000000E-02 0.  1.
    8880022    1    1    2    0    0 -0.37745292597E+02 -0.18107780650E+03 -0.64702383598E+02  0.24857982738E+03  0.15294330000E+03 0.  1.
    8880022    1    1    2    0    0  0.37745292597E+02  0.18107780650E+03  0.46832845579E+03  0.52624811129E+03  0.15294330000E+03 0.  0.
<mgrwt>
<rscale>  0 0.24001153E+03</rscale>
<asrwt>0</asrwt>
<pdfrwt beam="1">  1        2 0.90650307E-01 0.24001153E+03</pdfrwt>
<pdfrwt beam="2">  1       -2 0.28553990E-01 0.24001153E+03</pdfrwt>
<totfact> 0.58014128E+02</totfact>
</mgrwt>
</event>
<event>
 4    1  0.5387657E-008  0.3789090E+03  0.7818608E-02  0.1051338E+00
         -2   -1    0    0    0  501 -0.00000000000E+00  0.00000000000E+00  0.39411673258E+03  0.39411673259E+03  0.25500000000E-02 0.  1.
          2   -1    0    0  501    0  0.00000000000E+00 -0.00000000000E+00 -0.10297556640E+04  0.10297556640E+04  0.25500000000E-02 0. -1.
    8880022    1    1    2    0    0  0.34632578524E+03  0.15453585836E+02 -0.89013751553E+03  0.96742793655E+03  0.15294330000E+03 0.  0.
    8880022    1    1    2    0    0 -0.34632578524E+03 -0.15453585836E+02  0.25449858407E+03  0.45644446009E+03  0.15294330000E+03 0.  0.
<mgrwt>
<rscale>  0 0.37890898E+03</rscale>
<asrwt>0</asrwt>
<pdfrwt beam="1">  1        2 0.15842395E+00 0.37890898E+03</pdfrwt>
<pdfrwt beam="2">  1       -2 0.60633344E-01 0.37890898E+03</pdfrwt>
<totfact> 0.64712427E+01</totfact>
</mgrwt>
</event>
<event>
 4    1  0.5387657E-008  0.3232271E+03  0.7818608E-02  0.1074174E+00
          2   -1    0    0  501    0  0.00000000000E+00  0.00000000000E+00  0.27174077583E+04  0.27174077583E+04  0.25500000000E-02 0. -1.
         -2   -1    0    0    0  501 -0.00000000000E+00 -0.00000000000E+00 -0.64633317235E+02  0.64633317285E+02  0.25500000000E-02 0.  1.
    8880022    1    1    2    0    0 -0.21920444072E+03  0.18175120704E+03  0.22117960714E+04  0.22352891541E+04  0.15294330000E+03 0.  0.
    8880022    1    1    2    0    0  0.21920444072E+03 -0.18175120704E+03  0.44097836966E+03  0.54675192145E+03  0.15294330000E+03 0.  1.
<mgrwt>
<rscale>  0 0.32322707E+03</rscale>
<asrwt>0</asrwt>
<pdfrwt beam="1">  1        2 0.41806276E+00 0.32322707E+03</pdfrwt>
<pdfrwt beam="2">  1       -2 0.99435865E-02 0.32322707E+03</pdfrwt>
<totfact> 0.20086374E+02</totfact>
</mgrwt>
</event>
<event>
 4    1  0.5387657E-008  0.4572545E+03  0.7818608E-02  0.1025581E+00
          2   -1    0    0  501    0  0.00000000000E+00  0.00000000000E+00  0.15151706706E+04  0.15151706706E+04  0.25500000000E-02 0. -1.
         -2   -1    0    0    0  501 -0.00000000000E+00 -0.00000000000E+00 -0.34816138314E+03  0.34816138315E+03  0.25500000000E-02 0.  1.
    8880022    1    1    2    0    0  0.23094214815E+03 -0.36380724067E+03  0.13073645864E+04  0.13850212269E+04  0.15294330000E+03 0.  0.
    8880022    1    1    2    0    0 -0.23094214815E+03  0.36380724067E+03 -0.14035529892E+03  0.47831082688E+03  0.15294330000E+03 0.  1.
<mgrwt>
<rscale>  0 0.45725446E+03</rscale>
<asrwt>0</asrwt>
<pdfrwt beam="1">  1        2 0.23310318E+00 0.45725446E+03</pdfrwt>
<pdfrwt beam="2">  1       -2 0.53563291E-01 0.45725446E+03</pdfrwt>
<totfact> 0.43531140E+01</totfact>
</mgrwt>
</event>
<event>
 4    1  0.5387657E-008  0.8795727E+03  0.7818608E-02  0.9451483E-01
         -2   -1    0    0    0  501 -0.00000000000E+00  0.00000000000E+00  0.57015765452E+03  0.57015765453E+03  0.25500000000E-02 0.  1.
          2   -1    0    0  501    0  0.00000000000E+00 -0.00000000000E+00 -0.17322901685E+04  0.17322901685E+04  0.25500000000E-02 0. -1.
    8880022    1    1    2    0    0 -0.20853420249E+03 -0.84069615620E+03 -0.11169735134E+04  0.14217165763E+04  0.15294330000E+03 0.  0.
    8880022    1    1    2    0    0  0.20853420249E+03  0.84069615620E+03 -0.45159000592E+02  0.88073124675E+03  0.15294330000E+03 0.  0.
<mgrwt>
<rscale>  0 0.87957273E+03</rscale>
<asrwt>0</asrwt>
<pdfrwt beam="1">  1        2 0.26650618E+00 0.87957273E+03</pdfrwt>
<pdfrwt beam="2">  1       -2 0.87716563E-01 0.87957273E+03</pdfrwt>
<totfact> 0.10676527E+01</totfact>
</mgrwt>
</event>
<event>
 4    1  0.5387657E-008  0.4303454E+03  0.7818608E-02  0.1033751E+00
          2   -1    0    0  501    0  0.00000000000E+00  0.00000000000E+00  0.63159990051E+03  0.63159990052E+03  0.25500000000E-02 0. -1.
         -2   -1    0    0    0  501 -0.00000000000E+00 -0.00000000000E+00 -0.46310379549E+03  0.46310379550E+03  0.25500000000E-02 0.  1.
    8880022    1    1    2    0    0  0.36688231074E+03 -0.16493285860E+03  0.41576412935E+03  0.59837859424E+03  0.15294330000E+03 0.  0.
    8880022    1    1    2    0    0 -0.36688231074E+03  0.16493285860E+03 -0.24726802433E+03  0.49632510177E+03  0.15294330000E+03 0.  0.
<mgrwt>
<rscale>  0 0.43034536E+03</rscale>
<asrwt>0</asrwt>
<pdfrwt beam="1">  1        2 0.97169215E-01 0.43034536E+03</pdfrwt>
<pdfrwt beam="2">  1       -2 0.71246738E-01 0.43034536E+03</pdfrwt>
<totfact> 0.86481493E+01</totfact>
</mgrwt>
</event>
<event>
 4    1  0.5387657E-008  0.7112405E+03  0.7818608E-02  0.9698200E-01
          2   -1    0    0  501    0  0.00000000000E+00  0.00000000000E+00  0.18901375815E+04  0.18901375815E+04  0.25500000000E-02 0. -1.
         -2   -1    0    0    0  501 -0.00000000000E+00 -0.00000000000E+00 -0.75458462955E+03  0.75458462955E+03  0.25500000000E-02 0.  1.
    8880022    1    1    2    0    0 -0.70408460287E+02  0.69102394747E+03  0.16300565198E+04  0.17784676994E+04  0.15294330000E+03 0.  0.
    8880022    1    1    2    0    0  0.70408460287E+02 -0.69102394747E+03 -0.49450356783E+03  0.86625451161E+03  0.15294330000E+03 0.  0.
<mgrwt>
<rscale>  0 0.71124054E+03</rscale>
<asrwt>0</asrwt>
<pdfrwt beam="1">  1        2 0.29079039E+00 0.71124054E+03</pdfrwt>
<pdfrwt beam="2">  1       -2 0.11608994E+00 0.71124054E+03</pdfrwt>
<totfact> 0.46095163E+00</totfact>
</mgrwt>
</event>
<event>
 4    1  0.5387657E-008  0.3120217E+03  0.7818608E-02  0.1079381E+00
          2   -1    0    0  501    0  0.00000000000E+00  0.00000000000E+00  0.39498310456E+04  0.39498310456E+04  0.25500000000E-02 0. -1.
         -2   -1    0    0    0  501 -0.00000000000E+00 -0.00000000000E+00 -0.43355763259E+02  0.43355763334E+02  0.25500000000E-02 0.  1.
    8880022    1    1    2    0    0 -0.18337355749E+03 -0.20084819498E+03  0.64172933646E+03  0.71356433018E+03  0.15294330000E+03 0.  1.
    8880022    1    1    2    0    0  0.18337355749E+03  0.20084819498E+03  0.32647459459E+04  0.32796224788E+04  0.15294330000E+03 0.  0.
<mgrwt>
<rscale>  0 0.31202165E+03</rscale>
<asrwt>0</asrwt>
<pdfrwt beam="1">  1        2 0.60766634E+00 0.31202165E+03</pdfrwt>
<pdfrwt beam="2">  1       -2 0.66701172E-02 0.31202165E+03</pdfrwt>
<totfact> 0.60360149E+01</totfact>
</mgrwt>
</event>
<event>
 4    1  0.5387657E-008  0.1007334E+04  0.7818608E-02  0.9300537E-01
          2   -1    0    0  501    0  0.00000000000E+00  0.00000000000E+00  0.64203243047E+03  0.64203243047E+03  0.25500000000E-02 0. -1.
         -2   -1    0    0    0  501 -0.00000000000E+00 -0.00000000000E+00 -0.18268304239E+04  0.18268304239E+04  0.25500000000E-02 0.  1.
    8880022    1    1    2    0    0 -0.73001521033E+03  0.67705883004E+03 -0.10457037233E+04  0.14519706597E+04  0.15294330000E+03 0.  0.
    8880022    1    1    2    0    0  0.73001521033E+03 -0.67705883004E+03 -0.13909427015E+03  0.10168921947E+04  0.15294330000E+03 0.  0.
<mgrwt>
<rscale>  0 0.10073344E+04</rscale>
<asrwt>0</asrwt>
<pdfrwt beam="1">  1        2 0.98774221E-01 0.10073344E+04</pdfrwt>
<pdfrwt beam="2">  1       -2 0.28105083E+00 0.10073344E+04</pdfrwt>
<totfact> 0.18981474E+00</totfact>
</mgrwt>
</event>
<event>
 4    1  0.5387657E-008  0.4138915E+03  0.7818608E-02  0.1039073E+00
          2   -1    0    0  501    0  0.00000000000E+00  0.00000000000E+00  0.17235247701E+04  0.17235247701E+04  0.25500000000E-02 0. -1.
         -2   -1    0    0    0  501 -0.00000000000E+00 -0.00000000000E+00 -0.13197824382E+03  0.13197824385E+03  0.25500000000E-02 0.  1.
    8880022    1    1    2    0    0 -0.34765300478E+03  0.16447455586E+03  0.12567633388E+04  0.13231629658E+04  0.15294330000E+03 0.  0.
    8880022    1    1    2    0    0  0.34765300478E+03 -0.16447455586E+03  0.33478318750E+03  0.53234004819E+03  0.15294330000E+03 0.  0.
<mgrwt>
<rscale>  0 0.41389146E+03</rscale>
<asrwt>0</asrwt>
<pdfrwt beam="1">  1        2 0.26515765E+00 0.41389146E+03</pdfrwt>
<pdfrwt beam="2">  1       -2 0.20304346E-01 0.41389146E+03</pdfrwt>
<totfact> 0.20877076E+02</totfact>
</mgrwt>
</event>
<event>
 4    1  0.5387657E-008  0.4807987E+03  0.7818608E-02  0.1018916E+00
          2   -1    0    0  501    0  0.00000000000E+00  0.00000000000E+00  0.34356844587E+03  0.34356844588E+03  0.25500000000E-02 0. -1.
         -2   -1    0    0    0  501 -0.00000000000E+00 -0.00000000000E+00 -0.84670371200E+03  0.84670371201E+03  0.25500000000E-02 0.  1.
    8880022    1    1    2    0    0 -0.12022039131E+03 -0.43968486167E+03  0.18114507017E+02  0.48113980135E+03  0.15294330000E+03 0.  1.
    8880022    1    1    2    0    0  0.12022039131E+03  0.43968486167E+03 -0.52124977315E+03  0.70913235654E+03  0.15294330000E+03 0.  0.
<mgrwt>
<rscale>  0 0.48079868E+03</rscale>
<asrwt>0</asrwt>
<pdfrwt beam="1">  1        2 0.52856684E-01 0.48079868E+03</pdfrwt>
<pdfrwt beam="2">  1       -2 0.13026211E+00 0.48079868E+03</pdfrwt>
<totfact> 0.42109812E+01</totfact>
</mgrwt>
</event>
<event>
 4    1  0.5387657E-008  0.4985304E+03  0.7818608E-02  0.1014163E+00
          2   -1    0    0  501    0  0.00000000000E+00  0.00000000000E+00  0.28054486623E+04  0.28054486623E+04  0.25500000000E-02 0. -1.
         -2   -1    0    0    0  501 -0.00000000000E+00 -0.00000000000E+00 -0.30884481303E+03  0.30884481304E+03  0.25500000000E-02 0.  1.
    8880022    1    1    2    0    0 -0.44952850073E+03  0.15187189735E+03  0.25632930601E+04  0.26113222535E+04  0.15294330000E+03 0.  0.
    8880022    1    1    2    0    0  0.44952850073E+03 -0.15187189735E+03 -0.66689210888E+02  0.50297122187E+03  0.15294330000E+03 0.  0.
<mgrwt>
<rscale>  0 0.49853044E+03</rscale>
<asrwt>0</asrwt>
<pdfrwt beam="1">  1        2 0.43160749E+00 0.49853044E+03</pdfrwt>
<pdfrwt beam="2">  1       -2 0.47514586E-01 0.49853044E+03</pdfrwt>
<totfact> 0.10749564E+01</totfact>
</mgrwt>
</event>
<event>
 4    1  0.5387657E-008  0.2198746E+03  0.7818608E-02  0.1133977E+00
         -2   -1    0    0    0  501 -0.00000000000E+00  0.00000000000E+00  0.91471130720E+03  0.91471130720E+03  0.25500000000E-02 0.  1.
          2   -1    0    0  501    0  0.00000000000E+00 -0.00000000000E+00 -0.28690362940E+03  0.28690362941E+03  0.25500000000E-02 0. -1.
    8880022    1    1    2    0    0  0.13987749872E+03 -0.73399456001E+02 -0.22874965371E+03  0.31728733331E+03  0.15294330000E+03 0. -1.
    8880022    1    1    2    0    0 -0.13987749872E+03  0.73399456001E+02  0.85655733151E+03  0.88432760330E+03  0.15294330000E+03 0.  0.
<mgrwt>
<rscale>  0 0.21987462E+03</rscale>
<asrwt>0</asrwt>
<pdfrwt beam="1">  1        2 0.44139020E-01 0.21987462E+03</pdfrwt>
<pdfrwt beam="2">  1       -2 0.14072482E+00 0.21987462E+03</pdfrwt>
<totfact> 0.43662437E+01</totfact>
</mgrwt>
</event>
<event>
 4    1  0.5387657E-008  0.8701420E+03  0.7818608E-02  0.9463695E-01
          2   -1    0    0  501    0  0.00000000000E+00  0.00000000000E+00  0.35699641287E+04  0.35699641287E+04  0.25500000000E-02 0. -1.
         -2   -1    0    0    0  501 -0.00000000000E+00 -0.00000000000E+00 -0.42140508511E+03  0.42140508512E+03  0.25500000000E-02 0.  1.
    8880022    1    1    2    0    0  0.85240665931E+03 -0.84606624517E+02  0.16776501138E+03  0.88616710941E+03  0.15294330000E+03 0.  0.
    8880022    1    1    2    0    0 -0.85240665931E+03  0.84606624517E+02  0.29807940322E+04  0.31052021044E+04  0.15294330000E+03 0.  0.
<mgrwt>
<rscale>  0 0.87014197E+03</rscale>
<asrwt>0</asrwt>
<pdfrwt beam="1">  1        2 0.54922522E+00 0.87014197E+03</pdfrwt>
<pdfrwt beam="2">  1       -2 0.64831555E-01 0.87014197E+03</pdfrwt>
<totfact> 0.16934506E+00</totfact>
</mgrwt>
</event>
<event>
 4    1  0.5387657E-008  0.1169457E+04  0.7818608E-02  0.9140019E-01
          2   -1    0    0  501    0  0.00000000000E+00  0.00000000000E+00  0.34422820532E+04  0.34422820532E+04  0.25500000000E-02 0. -1.
         -2   -1    0    0    0  501 -0.00000000000E+00 -0.00000000000E+00 -0.61590915140E+03  0.61590915140E+03  0.25500000000E-02 0.  1.
    8880022    1    1    2    0    0  0.11386629027E+04  0.21836815682E+03  0.20432864537E+03  0.11871729891E+04  0.15294330000E+03 0.  0.
    8880022    1    1    2    0    0 -0.11386629027E+04 -0.21836815682E+03  0.26220442564E+04  0.28710182155E+04  0.15294330000E+03 0.  0.
<mgrwt>
<rscale>  0 0.11694569E+04</rscale>
<asrwt>0</asrwt>
<pdfrwt beam="1">  1        2 0.52958184E+00 0.11694569E+04</pdfrwt>
<pdfrwt beam="2">  1       -2 0.94755256E-01 0.11694569E+04</pdfrwt>
<totfact> 0.83983257E-01</totfact>
</mgrwt>
</event>
<event>
 4    1  0.5387657E-008  0.2973672E+03  0.7818608E-02  0.1086564E+00
         -2   -1    0    0    0  501 -0.00000000000E+00  0.00000000000E+00  0.62132124525E+03  0.62132124525E+03  0.25500000000E-02 0.  1.
          2   -1    0    0  501    0  0.00000000000E+00 -0.00000000000E+00 -0.23654313172E+03  0.23654313174E+03  0.25500000000E-02 0. -1.
    8880022    1    1    2    0    0  0.25262090320E+03 -0.34904084673E+02  0.46310208612E+03  0.55035516809E+03  0.15294330000E+03 0.  0.
    8880022    1    1    2    0    0 -0.25262090320E+03  0.34904084673E+02 -0.78323972593E+02  0.30750920890E+03  0.15294330000E+03 0. -1.
<mgrwt>
<rscale>  0 0.29736723E+03</rscale>
<asrwt>0</asrwt>
<pdfrwt beam="1">  1        2 0.36391251E-01 0.29736723E+03</pdfrwt>
<pdfrwt beam="2">  1       -2 0.95587884E-01 0.29736723E+03</pdfrwt>
<totfact> 0.13567139E+02</totfact>
</mgrwt>
</event>
<event>
 4    1  0.5387657E-008  0.1015609E+04  0.7818608E-02  0.9291588E-01
         -2   -1    0    0    0  501 -0.00000000000E+00  0.00000000000E+00  0.10856420941E+04  0.10856420941E+04  0.25500000000E-02 0.  1.
          2   -1    0    0  501    0  0.00000000000E+00 -0.00000000000E+00 -0.15033886501E+04  0.15033886501E+04  0.25500000000E-02 0. -1.
    8880022    1    1    2    0    0  0.90577288414E+03 -0.43318172756E+03 -0.99419863186E+03  0.14212295731E+04  0.15294330000E+03 0.  0.
    8880022    1    1    2    0    0 -0.90577288414E+03  0.43318172756E+03  0.57645207584E+03  0.11678011712E+04  0.15294330000E+03 0.  0.
<mgrwt>
<rscale>  0 0.10156095E+04</rscale>
<asrwt>0</asrwt>
<pdfrwt beam="1">  1        2 0.23129056E+00 0.10156095E+04</pdfrwt>
<pdfrwt beam="2">  1       -2 0.16702186E+00 0.10156095E+04</pdfrwt>
<totfact> 0.28028532E+00</totfact>
</mgrwt>
</event>
<event>
 4    1  0.5387657E-008  0.5308833E+03  0.7818608E-02  0.1006018E+00
          2   -1    0    0  501    0  0.00000000000E+00  0.00000000000E+00  0.85569414244E+03  0.85569414244E+03  0.25500000000E-02 0. -1.
         -2   -1    0    0    0  501 -0.00000000000E+00 -0.00000000000E+00 -0.90954641892E+03  0.90954641892E+03  0.25500000000E-02 0.  1.
    8880022    1    1    2    0    0 -0.58669751935E+02 -0.50497845542E+03  0.67799866783E+03  0.86111510661E+03  0.15294330000E+03 0.  0.
    8880022    1    1    2    0    0  0.58669751935E+02  0.50497845542E+03 -0.73185094431E+03  0.90412545476E+03  0.15294330000E+03 0.  0.
<mgrwt>
<rscale>  0 0.53088326E+03</rscale>
<asrwt>0</asrwt>
<pdfrwt beam="1">  1        2 0.13164525E+00 0.53088326E+03</pdfrwt>
<pdfrwt beam="2">  1       -2 0.13993022E+00 0.53088326E+03</pdfrwt>
<totfact> 0.11830653E+01</totfact>
</mgrwt>
</event>
<event>
 4    1  0.5387657E-008  0.4153522E+03  0.7818608E-02  0.1038590E+00
          2   -1    0    0  501    0  0.00000000000E+00  0.00000000000E+00  0.10158418780E+04  0.10158418781E+04  0.25500000000E-02 0. -1.
         -2   -1    0    0    0  501 -0.00000000000E+00 -0.00000000000E+00 -0.50602397668E+03  0.50602397669E+03  0.25500000000E-02 0.  1.
    8880022    1    1    2    0    0  0.14765140796E+03 -0.35682605351E+03 -0.36532809587E+03  0.55315643482E+03  0.15294330000E+03 0.  0.
    8880022    1    1    2    0    0 -0.14765140796E+03  0.35682605351E+03  0.87514599724E+03  0.96870941992E+03  0.15294330000E+03 0.  0.
<mgrwt>
<rscale>  0 0.41535217E+03</rscale>
<asrwt>0</asrwt>
<pdfrwt beam="1">  1        2 0.15628336E+00 0.41535217E+03</pdfrwt>
<pdfrwt beam="2">  1       -2 0.77849843E-01 0.41535217E+03</pdfrwt>
<totfact> 0.38293283E+01</totfact>
</mgrwt>
</event>
<event>
 4    1  0.5387657E-008  0.2591982E+03  0.7818608E-02  0.1107626E+00
         -2   -1    0    0    0  501 -0.00000000000E+00  0.00000000000E+00  0.52732973837E+03  0.52732973837E+03  0.25500000000E-02 0.  1.
          2   -1    0    0  501    0  0.00000000000E+00 -0.00000000000E+00 -0.65172239315E+03  0.65172239316E+03  0.25500000000E-02 0. -1.
    8880022    1    1    2    0    0 -0.16874698032E+03 -0.12375993631E+03 -0.59096947650E+03  0.64531282365E+03  0.15294330000E+03 0.  0.
    8880022    1    1    2    0    0  0.16874698032E+03  0.12375993631E+03  0.46657682171E+03  0.53373930788E+03  0.15294330000E+03 0.  1.
<mgrwt>
<rscale>  0 0.25919822E+03</rscale>
<asrwt>0</asrwt>
<pdfrwt beam="1">  1        2 0.10026498E+00 0.25919822E+03</pdfrwt>
<pdfrwt beam="2">  1       -2 0.81127652E-01 0.25919822E+03</pdfrwt>
<totfact> 0.64138228E+01</totfact>
</mgrwt>
</event>
<event>
 4    1  0.5387657E-008  0.4371062E+03  0.7818608E-02  0.1031638E+00
          2   -1    0    0  501    0  0.00000000000E+00  0.00000000000E+00  0.62624510216E+03  0.62624510216E+03  0.25500000000E-02 0. -1.
         -2   -1    0    0    0  501 -0.00000000000E+00 -0.00000000000E+00 -0.54040646985E+03  0.54040646986E+03  0.25500000000E-02 0.  1.
    8880022    1    1    2    0    0  0.15156066686E+03  0.38039387585E+03  0.42784428038E+03  0.61164738028E+03  0.15294330000E+03 0. -1.
    8880022    1    1    2    0    0 -0.15156066686E+03 -0.38039387585E+03 -0.34200564808E+03  0.55500419175E+03  0.15294330000E+03 0.  0.
<mgrwt>
<rscale>  0 0.43710615E+03</rscale>
<asrwt>0</asrwt>
<pdfrwt beam="1">  1        2 0.96345399E-01 0.43710615E+03</pdfrwt>
<pdfrwt beam="2">  1       -2 0.83139458E-01 0.43710615E+03</pdfrwt>
<totfact> 0.62056003E+01</totfact>
</mgrwt>
</event>
<event>
 4    1  0.5387657E-008  0.4803657E+03  0.7818608E-02  0.1019035E+00
          2   -1    0    0  501    0  0.00000000000E+00  0.00000000000E+00  0.21089629123E+04  0.21089629123E+04  0.25500000000E-02 0. -1.
         -2   -1    0    0    0  501 -0.00000000000E+00 -0.00000000000E+00 -0.27361299235E+03  0.27361299236E+03  0.25500000000E-02 0.  1.
    8880022    1    1    2    0    0  0.36359834343E+03  0.27414562019E+03  0.18405287655E+04  0.19021822641E+04  0.15294330000E+03 0.  0.
    8880022    1    1    2    0    0 -0.36359834343E+03 -0.27414562019E+03 -0.51788455083E+01  0.48039364054E+03  0.15294330000E+03 0.  0.
<mgrwt>
<rscale>  0 0.48036572E+03</rscale>
<asrwt>0</asrwt>
<pdfrwt beam="1">  1        2 0.32445582E+00 0.48036572E+03</pdfrwt>
<pdfrwt beam="2">  1       -2 0.42094308E-01 0.48036572E+03</pdfrwt>
<totfact> 0.33599141E+01</totfact>
</mgrwt>
</event>
<event>
 4    1  0.5387657E-008  0.3001853E+03  0.7818608E-02  0.1085148E+00
          2   -1    0    0  501    0  0.00000000000E+00  0.00000000000E+00  0.57484991829E+03  0.57484991829E+03  0.25500000000E-02 0. -1.
         -2   -1    0    0    0  501 -0.00000000000E+00 -0.00000000000E+00 -0.70715528696E+03  0.70715528696E+03  0.25500000000E-02 0.  1.
    8880022    1    1    2    0    0  0.16587670138E+03  0.19800113975E+03 -0.63166402751E+03  0.69936444581E+03  0.15294330000E+03 0.  0.
    8880022    1    1    2    0    0 -0.16587670138E+03 -0.19800113975E+03  0.49935865883E+03  0.58264075945E+03  0.15294330000E+03 0.  0.
<mgrwt>
<rscale>  0 0.30018525E+03</rscale>
<asrwt>0</asrwt>
<pdfrwt beam="1">  1        2 0.88438449E-01 0.30018525E+03</pdfrwt>
<pdfrwt beam="2">  1       -2 0.10879312E+00 0.30018525E+03</pdfrwt>
<totfact> 0.37584274E+01</totfact>
</mgrwt>
</event>
<event>
 4    1  0.5387657E-008  0.3917868E+03  0.7818608E-02  0.1046661E+00
          2   -1    0    0  501    0  0.00000000000E+00  0.00000000000E+00  0.15567556181E+04  0.15567556181E+04  0.25500000000E-02 0. -1.
         -2   -1    0    0    0  501 -0.00000000000E+00 -0.00000000000E+00 -0.19377390370E+03  0.19377390372E+03  0.25500000000E-02 0.  1.
    8880022    1    1    2    0    0  0.18964187023E+03  0.30682434183E+03  0.12948991176E+04  0.13528712405E+04  0.15294330000E+03 0.  0.
    8880022    1    1    2    0    0 -0.18964187023E+03 -0.30682434183E+03  0.68082596800E+02  0.39765828129E+03  0.15294330000E+03 0.  0.
<mgrwt>
<rscale>  0 0.39178676E+03</rscale>
<asrwt>0</asrwt>
<pdfrwt beam="1">  1        2 0.23950086E+00 0.39178676E+03</pdfrwt>
<pdfrwt beam="2">  1       -2 0.29811370E-01 0.39178676E+03</pdfrwt>
<totfact> 0.12989580E+02</totfact>
</mgrwt>
</event>
<event>
 4    1  0.5387657E-008  0.7007834E+03  0.7818608E-02  0.9715893E-01
          2   -1    0    0  501    0  0.00000000000E+00  0.00000000000E+00  0.79709188097E+03  0.79709188097E+03  0.25500000000E-02 0. -1.
         -2   -1    0    0    0  501 -0.00000000000E+00 -0.00000000000E+00 -0.68906279612E+03  0.68906279612E+03  0.25500000000E-02 0.  1.
    8880022    1    1    2    0    0 -0.57392070001E+03 -0.37191498324E+03 -0.18776607559E+03  0.72550222385E+03  0.15294330000E+03 0.  0.
    8880022    1    1    2    0    0  0.57392070001E+03  0.37191498324E+03  0.29579516045E+03  0.76065245324E+03  0.15294330000E+03 0.  0.
<mgrwt>
<rscale>  0 0.70078340E+03</rscale>
<asrwt>0</asrwt>
<pdfrwt beam="1">  1        2 0.12262952E+00 0.70078340E+03</pdfrwt>
<pdfrwt beam="2">  1       -2 0.10600966E+00 0.70078340E+03</pdfrwt>
<totfact> 0.25340006E+01</totfact>
</mgrwt>
</event>
<event>
 4    1  0.5387657E-008  0.6064536E+03  0.7818608E-02  0.9892107E-01
         -2   -1    0    0    0  501 -0.00000000000E+00  0.00000000000E+00  0.50674828732E+03  0.50674828732E+03  0.25500000000E-02 0.  1.
          2   -1    0    0  501    0  0.00000000000E+00 -0.00000000000E+00 -0.15632459862E+04  0.15632459862E+04  0.25500000000E-02 0. -1.
    8880022    1    1    2    0    0  0.42719167746E+03  0.40237000872E+03  0.22929884239E+03  0.64835481439E+03  0.15294330000E+03 0.  0.
    8880022    1    1    2    0    0 -0.42719167746E+03 -0.40237000872E+03 -0.12857965412E+04  0.14216394591E+04  0.15294330000E+03 0.  0.
<mgrwt>
<rscale>  0 0.60645363E+03</rscale>
<asrwt>0</asrwt>
<pdfrwt beam="1">  1        2 0.24049938E+00 0.60645363E+03</pdfrwt>
<pdfrwt beam="2">  1       -2 0.77961276E-01 0.60645363E+03</pdfrwt>
<totfact> 0.17921919E+01</totfact>
</mgrwt>
</event>
<event>
 4    1  0.5387657E-008  0.3083352E+03  0.7818608E-02  0.1081147E+00
          2   -1    0    0  501    0  0.00000000000E+00  0.00000000000E+00  0.59322155814E+03  0.59322155815E+03  0.25500000000E-02 0. -1.
         -2   -1    0    0    0  501 -0.00000000000E+00 -0.00000000000E+00 -0.95873486899E+03  0.95873486899E+03  0.25500000000E-02 0.  1.
    8880022    1    1    2    0    0 -0.25482833570E+03  0.82106287382E+02  0.52540186518E+03  0.60919430074E+03  0.15294330000E+03 0.  0.
    8880022    1    1    2    0    0  0.25482833570E+03 -0.82106287382E+02 -0.89091517602E+03  0.94276212640E+03  0.15294330000E+03 0.  1.
<mgrwt>
<rscale>  0 0.30833517E+03</rscale>
<asrwt>0</asrwt>
<pdfrwt beam="1">  1        2 0.91264855E-01 0.30833517E+03</pdfrwt>
<pdfrwt beam="2">  1       -2 0.14749767E+00 0.30833517E+03</pdfrwt>
<totfact> 0.17021187E+01</totfact>
</mgrwt>
</event>
<event>
 4    1  0.5387657E-008  0.7313423E+03  0.7818608E-02  0.9665085E-01
         -2   -1    0    0    0  501 -0.00000000000E+00  0.00000000000E+00  0.29391267935E+04  0.29391267935E+04  0.25500000000E-02 0.  1.
          2   -1    0    0  501    0  0.00000000000E+00 -0.00000000000E+00 -0.25744347830E+03  0.25744347831E+03  0.25500000000E-02 0. -1.
    8880022    1    1    2    0    0 -0.69996329436E+03  0.14670152369E+03  0.22061729292E+04  0.23242333354E+04  0.15294330000E+03 0.  0.
    8880022    1    1    2    0    0  0.69996329436E+03 -0.14670152369E+03  0.47551038594E+03  0.87233693642E+03  0.15294330000E+03 0.  0.
<mgrwt>
<rscale>  0 0.73134233E+03</rscale>
<asrwt>0</asrwt>
<pdfrwt beam="1">  1        2 0.39606686E-01 0.73134233E+03</pdfrwt>
<pdfrwt beam="2">  1       -2 0.45217338E+00 0.73134233E+03</pdfrwt>
<totfact> 0.46689230E-01</totfact>
</mgrwt>
</event>
<event>
 4    1  0.5387657E-008  0.3691098E+03  0.7818608E-02  0.1055034E+00
         -2   -1    0    0    0  501 -0.00000000000E+00  0.00000000000E+00  0.70185574976E+02  0.70185575022E+02  0.25500000000E-02 0.  1.
          2   -1    0    0  501    0  0.00000000000E+00 -0.00000000000E+00 -0.25310929071E+04  0.25310929071E+04  0.25500000000E-02 0. -1.
    8880022    1    1    2    0    0  0.19582120504E+03  0.27295505072E+03 -0.60253869787E+03  0.70660805224E+03  0.15294330000E+03 0. -1.
    8880022    1    1    2    0    0 -0.19582120504E+03 -0.27295505072E+03 -0.18583686343E+04  0.18946704299E+04  0.15294330000E+03 0.  0.
<mgrwt>
<rscale>  0 0.36910982E+03</rscale>
<asrwt>0</asrwt>
<pdfrwt beam="1">  1        2 0.38939884E+00 0.36910982E+03</pdfrwt>
<pdfrwt beam="2">  1       -2 0.10797783E-01 0.36910982E+03</pdfrwt>
<totfact> 0.22157740E+02</totfact>
</mgrwt>
</event>
<event>
 4    1  0.5387657E-008  0.6052298E+03  0.7818608E-02  0.9894615E-01
         -2   -1    0    0    0  501 -0.00000000000E+00  0.00000000000E+00  0.38584749997E+03  0.38584749998E+03  0.25500000000E-02 0.  1.
          2   -1    0    0  501    0  0.00000000000E+00 -0.00000000000E+00 -0.19557589273E+04  0.19557589273E+04  0.25500000000E-02 0. -1.
    8880022    1    1    2    0    0  0.29037774317E+03  0.50851968919E+03  0.54918284013E+02  0.60771636390E+03  0.15294330000E+03 0.  1.
    8880022    1    1    2    0    0 -0.29037774317E+03 -0.50851968919E+03 -0.16248297114E+04  0.17338900634E+04  0.15294330000E+03 0.  0.
<mgrwt>
<rscale>  0 0.60522984E+03</rscale>
<asrwt>0</asrwt>
<pdfrwt beam="1">  1        2 0.30088598E+00 0.60522984E+03</pdfrwt>
<pdfrwt beam="2">  1       -2 0.59361155E-01 0.60522984E+03</pdfrwt>
<totfact> 0.19787695E+01</totfact>
</mgrwt>
</event>
<event>
 4    1  0.5387657E-008  0.3302647E+03  0.7818608E-02  0.1071020E+00
         -2   -1    0    0    0  501 -0.00000000000E+00  0.00000000000E+00  0.28949749525E+03  0.28949749526E+03  0.25500000000E-02 0.  1.
          2   -1    0    0  501    0  0.00000000000E+00 -0.00000000000E+00 -0.24186033183E+04  0.24186033183E+04  0.25500000000E-02 0. -1.
    8880022    1    1    2    0    0  0.52382277767E+02  0.28799172810E+03  0.17956731746E+03  0.37592447777E+03  0.15294330000E+03 0.  1.
    8880022    1    1    2    0    0 -0.52382277767E+02 -0.28799172810E+03 -0.23086731405E+04  0.23321763358E+04  0.15294330000E+03 0.  0.
<mgrwt>
<rscale>  0 0.33026473E+03</rscale>
<asrwt>0</asrwt>
<pdfrwt beam="1">  1        2 0.37209280E+00 0.33026473E+03</pdfrwt>
<pdfrwt beam="2">  1       -2 0.44538078E-01 0.33026473E+03</pdfrwt>
<totfact> 0.21281664E+01</totfact>
</mgrwt>
</event>
<event>
 4    1  0.5387657E-008  0.5834278E+03  0.7818608E-02  0.9940397E-01
          2   -1    0    0  501    0  0.00000000000E+00  0.00000000000E+00  0.12126438360E+04  0.12126438360E+04  0.25500000000E-02 0. -1.
         -2   -1    0    0    0  501 -0.00000000000E+00 -0.00000000000E+00 -0.40617828305E+03  0.40617828305E+03  0.25500000000E-02 0.  1.
    8880022    1    1    2    0    0  0.20635213255E+03  0.52384652200E+03  0.85311271229E+03  0.10335324543E+04  0.15294330000E+03 0.  0.
    8880022    1    1    2    0    0 -0.20635213255E+03 -0.52384652200E+03 -0.46647159297E+02  0.58528966479E+03  0.15294330000E+03 0.  0.
<mgrwt>
<rscale>  0 0.58342783E+03</rscale>
<asrwt>0</asrwt>
<pdfrwt beam="1">  1        2 0.18656059E+00 0.58342783E+03</pdfrwt>
<pdfrwt beam="2">  1       -2 0.62488966E-01 0.58342783E+03</pdfrwt>
<totfact> 0.45848536E+01</totfact>
</mgrwt>
</event>
<event>
 4    1  0.5387657E-008  0.1478374E+04  0.7818608E-02  0.8898962E-01
          2   -1    0    0  501    0  0.00000000000E+00  0.00000000000E+00  0.24603952031E+04  0.24603952031E+04  0.25500000000E-02 0. -1.
         -2   -1    0    0    0  501 -0.00000000000E+00 -0.00000000000E+00 -0.10231043851E+04  0.10231043851E+04  0.25500000000E-02 0.  1.
    8880022    1    1    2    0    0 -0.14593006699E+04  0.18066692517E+03  0.86432036809E+02  0.14808987585E+04  0.15294330000E+03 0.  0.
    8880022    1    1    2    0    0  0.14593006699E+04 -0.18066692517E+03  0.13508587813E+04  0.20026008297E+04  0.15294330000E+03 0.  0.
<mgrwt>
<rscale>  0 0.14783743E+04</rscale>
<asrwt>0</asrwt>
<pdfrwt beam="1">  1        2 0.37852233E+00 0.14783743E+04</pdfrwt>
<pdfrwt beam="2">  1       -2 0.15740068E+00 0.14783743E+04</pdfrwt>
<totfact> 0.91414493E-01</totfact>
</mgrwt>
</event>
<event>
 4    1  0.5387657E-008  0.4340488E+03  0.7818608E-02  0.1032589E+00
         -2   -1    0    0    0  501 -0.00000000000E+00  0.00000000000E+00  0.16552486272E+04  0.16552486272E+04  0.25500000000E-02 0.  1.
          2   -1    0    0  501    0  0.00000000000E+00 -0.00000000000E+00 -0.29698977340E+03  0.29698977341E+03  0.25500000000E-02 0. -1.
    8880022    1    1    2    0    0 -0.40526787653E+03  0.27653043055E+02  0.14457146558E+04  0.15094665486E+04  0.15294330000E+03 0.  0.
    8880022    1    1    2    0    0  0.40526787653E+03 -0.27653043055E+02 -0.87455802024E+02  0.44277185193E+03  0.15294330000E+03 0. -1.
<mgrwt>
<rscale>  0 0.43404884E+03</rscale>
<asrwt>0</asrwt>
<pdfrwt beam="1">  1        2 0.45690734E-01 0.43404884E+03</pdfrwt>
<pdfrwt beam="2">  1       -2 0.25465364E+00 0.43404884E+03</pdfrwt>
<totfact> 0.72034152E+00</totfact>
</mgrwt>
</event>
<event>
 4    1  0.5387657E-008  0.2473596E+03  0.7818608E-02  0.1114985E+00
          2   -1    0    0  501    0  0.00000000000E+00  0.00000000000E+00  0.41288041671E+03  0.41288041672E+03  0.25500000000E-02 0. -1.
         -2   -1    0    0    0  501 -0.00000000000E+00 -0.00000000000E+00 -0.14996935195E+04  0.14996935195E+04  0.25500000000E-02 0.  1.
    8880022    1    1    2    0    0  0.34136051562E+02 -0.19138924462E+03  0.36440307902E+03  0.44042748551E+03  0.15294330000E+03 0.  0.
    8880022    1    1    2    0    0 -0.34136051562E+02  0.19138924462E+03 -0.14512161818E+04  0.14721464507E+04  0.15294330000E+03 0.  1.
<mgrwt>
<rscale>  0 0.24735959E+03</rscale>
<asrwt>0</asrwt>
<pdfrwt beam="1">  1        2 0.63520065E-01 0.24735959E+03</pdfrwt>
<pdfrwt beam="2">  1       -2 0.23072208E+00 0.24735959E+03</pdfrwt>
<totfact> 0.73321925E+00</totfact>
</mgrwt>
</event>
<event>
 4    1  0.5387657E-008  0.4988280E+03  0.7818608E-02  0.1014085E+00
         -2   -1    0    0    0  501 -0.00000000000E+00  0.00000000000E+00  0.47555103756E+03  0.47555103757E+03  0.25500000000E-02 0.  1.
          2   -1    0    0  501    0  0.00000000000E+00 -0.00000000000E+00 -0.12717222997E+04  0.12717222997E+04  0.25500000000E-02 0. -1.
    8880022    1    1    2    0    0  0.43977713392E+03 -0.17897988816E+03  0.27214492517E+03  0.56823607875E+03  0.15294330000E+03 0.  0.
    8880022    1    1    2    0    0 -0.43977713392E+03  0.17897988816E+03 -0.10683161874E+04  0.11790372586E+04  0.15294330000E+03 0.  0.
<mgrwt>
<rscale>  0 0.49882801E+03</rscale>
<asrwt>0</asrwt>
<pdfrwt beam="1">  1        2 0.19564958E+00 0.49882801E+03</pdfrwt>
<pdfrwt beam="2">  1       -2 0.73161699E-01 0.49882801E+03</pdfrwt>
<totfact> 0.30528930E+01</totfact>
</mgrwt>
</event>
<event>
 4    1  0.5387657E-008  0.6892198E+03  0.7818608E-02  0.9735847E-01
         -2   -1    0    0    0  501 -0.00000000000E+00  0.00000000000E+00  0.28819774863E+03  0.28819774865E+03  0.25500000000E-02 0.  1.
          2   -1    0    0  501    0  0.00000000000E+00 -0.00000000000E+00 -0.21873017868E+04  0.21873017868E+04  0.25500000000E-02 0. -1.
    8880022    1    1    2    0    0 -0.64588553798E+03 -0.18564534269E+03 -0.33509586284E+03  0.76636362893E+03  0.15294330000E+03 0.  0.
    8880022    1    1    2    0    0  0.64588553798E+03  0.18564534269E+03 -0.15640081753E+04  0.17091359065E+04  0.15294330000E+03 0.  0.
<mgrwt>
<rscale>  0 0.68921983E+03</rscale>
<asrwt>0</asrwt>
<pdfrwt beam="1">  1        2 0.33650796E+00 0.68921983E+03</pdfrwt>
<pdfrwt beam="2">  1       -2 0.44338117E-01 0.68921983E+03</pdfrwt>
<totfact> 0.26494619E+01</totfact>
</mgrwt>
</event>
<event>
 4    1  0.5387657E-008  0.7895362E+03  0.7818608E-02  0.9575288E-01
         -2   -1    0    0    0  501 -0.00000000000E+00  0.00000000000E+00  0.55425633708E+03  0.55425633709E+03  0.25500000000E-02 0.  1.
          2   -1    0    0  501    0  0.00000000000E+00 -0.00000000000E+00 -0.16002736106E+04  0.16002736106E+04  0.25500000000E-02 0. -1.
    8880022    1    1    2    0    0 -0.63247319853E+03 -0.44716146112E+03 -0.11102791401E+04  0.13623828908E+04  0.15294330000E+03 0.  0.
    8880022    1    1    2    0    0  0.63247319853E+03  0.44716146112E+03  0.64261866618E+02  0.79214705686E+03  0.15294330000E+03 0.  0.
<mgrwt>
<rscale>  0 0.78953618E+03</rscale>
<asrwt>0</asrwt>
<pdfrwt beam="1">  1        2 0.24619594E+00 0.78953618E+03</pdfrwt>
<pdfrwt beam="2">  1       -2 0.85270206E-01 0.78953618E+03</pdfrwt>
<totfact> 0.13616249E+01</totfact>
</mgrwt>
</event>
<event>
 4    1  0.5387657E-008  0.2714744E+03  0.7818608E-02  0.1100439E+00
          2   -1    0    0  501    0  0.00000000000E+00  0.00000000000E+00  0.49768072541E+03  0.49768072542E+03  0.25500000000E-02 0. -1.
         -2   -1    0    0    0  501 -0.00000000000E+00 -0.00000000000E+00 -0.23422131529E+03  0.23422131530E+03  0.25500000000E-02 0.  1.
    8880022    1    1    2    0    0  0.19084924739E+03  0.11782732151E+03 -0.90195365033E+02  0.28606567395E+03  0.15294330000E+03 0.  0.
    8880022    1    1    2    0    0 -0.19084924739E+03 -0.11782732151E+03  0.35365477516E+03  0.44583636676E+03  0.15294330000E+03 0. -1.
<mgrwt>
<rscale>  0 0.27147443E+03</rscale>
<asrwt>0</asrwt>
<pdfrwt beam="1">  1        2 0.76566265E-01 0.27147443E+03</pdfrwt>
<pdfrwt beam="2">  1       -2 0.36034049E-01 0.27147443E+03</pdfrwt>
<totfact> 0.45763106E+02</totfact>
</mgrwt>
</event>
<event>
 4    1  0.5387657E-008  0.4269943E+03  0.7818608E-02  0.1034814E+00
          2   -1    0    0  501    0  0.00000000000E+00  0.00000000000E+00  0.13254179429E+04  0.13254179429E+04  0.25500000000E-02 0. -1.
         -2   -1    0    0    0  501 -0.00000000000E+00 -0.00000000000E+00 -0.77301688814E+03  0.77301688814E+03  0.25500000000E-02 0.  1.
    8880022    1    1    2    0    0 -0.29025686848E+03 -0.27328264184E+03  0.12274931862E+04  0.12996398067E+04  0.15294330000E+03 0.  0.
    8880022    1    1    2    0    0  0.29025686848E+03  0.27328264184E+03 -0.67509213141E+03  0.79879502436E+03  0.15294330000E+03 0.  1.
<mgrwt>
<rscale>  0 0.42699427E+03</rscale>
<asrwt>0</asrwt>
<pdfrwt beam="1">  1        2 0.20391045E+00 0.42699427E+03</pdfrwt>
<pdfrwt beam="2">  1       -2 0.11892567E+00 0.42699427E+03</pdfrwt>
<totfact> 0.93811780E+00</totfact>
</mgrwt>
</event>
<event>
 4    1  0.5387657E-008  0.9120328E+03  0.7818608E-02  0.9410664E-01
         -2   -1    0    0    0  501 -0.00000000000E+00  0.00000000000E+00  0.84833429421E+03  0.84833429422E+03  0.25500000000E-02 0.  1.
          2   -1    0    0  501    0  0.00000000000E+00 -0.00000000000E+00 -0.11395676568E+04  0.11395676568E+04  0.25500000000E-02 0. -1.
    8880022    1    1    2    0    0  0.86983277093E+03 -0.22760318956E+03  0.22571868550E+03  0.93954927454E+03  0.15294330000E+03 0.  0.
    8880022    1    1    2    0    0 -0.86983277093E+03  0.22760318956E+03 -0.51695204812E+03  0.10483526765E+04  0.15294330000E+03 0. -1.
<mgrwt>
<rscale>  0 0.91203285E+03</rscale>
<asrwt>0</asrwt>
<pdfrwt beam="1">  1        2 0.17531810E+00 0.91203285E+03</pdfrwt>
<pdfrwt beam="2">  1       -2 0.13051297E+00 0.91203285E+03</pdfrwt>
<totfact> 0.88638134E+00</totfact>
</mgrwt>
</event>
<event>
 4    1  0.5387657E-008  0.1067155E+04  0.7818608E-02  0.9237810E-01
         -2   -1    0    0    0  501 -0.00000000000E+00  0.00000000000E+00  0.12958516360E+04  0.12958516360E+04  0.25500000000E-02 0.  1.
          2   -1    0    0  501    0  0.00000000000E+00 -0.00000000000E+00 -0.24168732697E+04  0.24168732697E+04  0.25500000000E-02 0. -1.
    8880022    1    1    2    0    0  0.70579714001E+03  0.78567071054E+03  0.92037506221E+03  0.14092231819E+04  0.15294330000E+03 0.  0.
    8880022    1    1    2    0    0 -0.70579714001E+03 -0.78567071054E+03 -0.20413966959E+04  0.23035017238E+04  0.15294330000E+03 0.  0.
<mgrwt>
<rscale>  0 0.10671550E+04</rscale>
<asrwt>0</asrwt>
<pdfrwt beam="1">  1        2 0.37182666E+00 0.10671550E+04</pdfrwt>
<pdfrwt beam="2">  1       -2 0.19936179E+00 0.10671550E+04</pdfrwt>
<totfact> 0.51904445E-01</totfact>
</mgrwt>
</event>
<event>
 4    1  0.5387657E-008  0.4084859E+03  0.7818608E-02  0.1040880E+00
         -2   -1    0    0    0  501 -0.00000000000E+00  0.00000000000E+00  0.56742847108E+03  0.56742847109E+03  0.25500000000E-02 0.  1.
          2   -1    0    0  501    0  0.00000000000E+00 -0.00000000000E+00 -0.35404894401E+03  0.35404894402E+03  0.25500000000E-02 0. -1.
    8880022    1    1    2    0    0 -0.11677592209E+03  0.36032266255E+03 -0.82955324288E+02  0.41682403478E+03  0.15294330000E+03 0.  0.
    8880022    1    1    2    0    0  0.11677592209E+03 -0.36032266255E+03  0.29633485136E+03  0.50465338033E+03  0.15294330000E+03 0.  0.
<mgrwt>
<rscale>  0 0.40848585E+03</rscale>
<asrwt>0</asrwt>
<pdfrwt beam="1">  1        2 0.54469069E-01 0.40848585E+03</pdfrwt>
<pdfrwt beam="2">  1       -2 0.87296687E-01 0.40848585E+03</pdfrwt>
<totfact> 0.10659134E+02</totfact>
</mgrwt>
</event>
<event>
 4    1  0.5387657E-008  0.3964942E+03  0.7818608E-02  0.1045000E+00
          2   -1    0    0  501    0  0.00000000000E+00  0.00000000000E+00  0.18275710706E+04  0.18275710706E+04  0.25500000000E-02 0. -1.
         -2   -1    0    0    0  501 -0.00000000000E+00 -0.00000000000E+00 -0.43233077692E+03  0.43233077693E+03  0.25500000000E-02 0.  1.
    8880022    1    1    2    0    0  0.14395283769E+03 -0.33629393558E+03 -0.31369031809E+03  0.50557818314E+03  0.15294330000E+03 0.  0.
    8880022    1    1    2    0    0 -0.14395283769E+03  0.33629393558E+03  0.17089306118E+04  0.17543236644E+04  0.15294330000E+03 0. -1.
<mgrwt>
<rscale>  0 0.39649424E+03</rscale>
<asrwt>0</asrwt>
<pdfrwt beam="1">  1        2 0.28116478E+00 0.39649424E+03</pdfrwt>
<pdfrwt beam="2">  1       -2 0.66512427E-01 0.39649424E+03</pdfrwt>
<totfact> 0.19040486E+01</totfact>
</mgrwt>
</event>
<event>
 4    1  0.7040301E-008  0.1165145E+04  0.7818608E-02  0.9143924E-01
          2   -1    0    0  501    0  0.00000000000E+00  0.00000000000E+00  0.25419231110E+04  0.25419231110E+04  0.25500000000E-02 0. -1.
         -2   -1    0    0    0  501 -0.00000000000E+00 -0.00000000000E+00 -0.13747651212E+04  0.13747651212E+04  0.25500000000E-02 0.  1.
    8880022    1    1    2    0    0  0.11427637607E+04  0.16811308265E+03  0.21149987394E+04  0.24147012946E+04  0.15294330000E+03 0.  0.
    8880022    1    1    2    0    0 -0.11427637607E+04 -0.16811308265E+03 -0.94784074956E+03  0.15019869377E+04  0.15294330000E+03 0.  0.
<mgrwt>
<rscale>  0 0.11651449E+04</rscale>
<asrwt>0</asrwt>
<pdfrwt beam="1">  1        2 0.39106509E+00 0.11651449E+04</pdfrwt>
<pdfrwt beam="2">  1       -2 0.21150233E+00 0.11651449E+04</pdfrwt>
<totfact> 0.36172317E-01</totfact>
</mgrwt>
</event>
<event>
 4    1  0.5387657E-008  0.2970825E+03  0.7818608E-02  0.1086708E+00
         -2   -1    0    0    0  501 -0.00000000000E+00  0.00000000000E+00  0.40619457898E+03  0.40619457899E+03  0.25500000000E-02 0.  1.
          2   -1    0    0  501    0  0.00000000000E+00 -0.00000000000E+00 -0.60214405820E+03  0.60214405821E+03  0.25500000000E-02 0. -1.
    8880022    1    1    2    0    0 -0.16028143463E+03 -0.19792984869E+03 -0.50104411937E+03  0.58249740417E+03  0.15294330000E+03 0.  0.
    8880022    1    1    2    0    0  0.16028143463E+03  0.19792984869E+03  0.30509464015E+03  0.42584123304E+03  0.15294330000E+03 0.  0.
<mgrwt>
<rscale>  0 0.29708251E+03</rscale>
<asrwt>0</asrwt>
<pdfrwt beam="1">  1        2 0.92637547E-01 0.29708251E+03</pdfrwt>
<pdfrwt beam="2">  1       -2 0.62491474E-01 0.29708251E+03</pdfrwt>
<totfact> 0.12298765E+02</totfact>
</mgrwt>
</event>
<event>
 4    1  0.1043511E-007  0.1513709E+04  0.7818608E-02  0.8875387E-01
         -2   -1    0    0    0  501 -0.00000000000E+00  0.00000000000E+00  0.15928136776E+04  0.15928136776E+04  0.25500000000E-02 0.  1.
          2   -1    0    0  501    0  0.00000000000E+00 -0.00000000000E+00 -0.27931531070E+04  0.27931531070E+04  0.25500000000E-02 0. -1.
    8880022    1    1    2    0    0  0.66249212243E+03  0.13524158688E+04  0.92703275885E+03  0.17750227839E+04  0.15294330000E+03 0.  0.
    8880022    1    1    2    0    0 -0.66249212243E+03 -0.13524158688E+04 -0.21273721882E+04  0.26109440007E+04  0.15294330000E+03 0.  0.
<mgrwt>
<rscale>  0 0.15137094E+04</rscale>
<asrwt>0</asrwt>
<pdfrwt beam="1">  1        2 0.42971586E+00 0.15137094E+04</pdfrwt>
<pdfrwt beam="2">  1       -2 0.24504826E+00 0.15137094E+04</pdfrwt>
<totfact> 0.15090180E-01</totfact>
</mgrwt>
</event>
<event>
 4    1  0.5387657E-008  0.1106104E+04  0.7818608E-02  0.9199263E-01
          2   -1    0    0  501    0  0.00000000000E+00  0.00000000000E+00  0.99757207107E+03  0.99757207108E+03  0.25500000000E-02 0. -1.
         -2   -1    0    0    0  501 -0.00000000000E+00 -0.00000000000E+00 -0.15775466726E+04  0.15775466726E+04  0.25500000000E-02 0.  1.
    8880022    1    1    2    0    0  0.10425270993E+04 -0.33646967083E+03  0.31743851534E+03  0.11507534298E+04  0.15294330000E+03 0.  0.
    8880022    1    1    2    0    0 -0.10425270993E+04  0.33646967083E+03 -0.89741311685E+03  0.14243653139E+04  0.15294330000E+03 0.  0.
<mgrwt>
<rscale>  0 0.11061041E+04</rscale>
<asrwt>0</asrwt>
<pdfrwt beam="1">  1        2 0.15347263E+00 0.11061041E+04</pdfrwt>
<pdfrwt beam="2">  1       -2 0.24269949E+00 0.11061041E+04</pdfrwt>
<totfact> 0.17724462E+00</totfact>
</mgrwt>
</event>
<event>
 4    1  0.5387657E-008  0.4840722E+03  0.7818608E-02  0.1018022E+00
         -2   -1    0    0    0  501 -0.00000000000E+00  0.00000000000E+00  0.43580366356E+03  0.43580366356E+03  0.25500000000E-02 0.  1.
          2   -1    0    0  501    0  0.00000000000E+00 -0.00000000000E+00 -0.63948819843E+03  0.63948819844E+03  0.25500000000E-02 0. -1.
    8880022    1    1    2    0    0  0.35443981272E+03  0.29207311449E+03  0.11267224113E+03  0.49701204410E+03  0.15294330000E+03 0.  0.
    8880022    1    1    2    0    0 -0.35443981272E+03 -0.29207311449E+03 -0.31635677600E+03  0.57827981789E+03  0.15294330000E+03 0.  0.
<mgrwt>
<rscale>  0 0.48407224E+03</rscale>
<asrwt>0</asrwt>
<pdfrwt beam="1">  1        2 0.98382800E-01 0.48407224E+03</pdfrwt>
<pdfrwt beam="2">  1       -2 0.67046717E-01 0.48407224E+03</pdfrwt>
<totfact> 0.96641161E+01</totfact>
</mgrwt>
</event>
<event>
 4    1  0.5387657E-008  0.4766028E+03  0.7818608E-02  0.1020073E+00
         -2   -1    0    0    0  501 -0.00000000000E+00  0.00000000000E+00  0.15715244315E+03  0.15715244317E+03  0.25500000000E-02 0.  1.
          2   -1    0    0  501    0  0.00000000000E+00 -0.00000000000E+00 -0.15389327882E+04  0.15389327882E+04  0.25500000000E-02 0. -1.
    8880022    1    1    2    0    0  0.16606306665E+02 -0.45109065158E+03 -0.89994461467E+03  0.10183567685E+04  0.15294330000E+03 0.  0.
    8880022    1    1    2    0    0 -0.16606306665E+02  0.45109065158E+03 -0.48183573037E+03  0.67772846291E+03  0.15294330000E+03 0.  0.
<mgrwt>
<rscale>  0 0.47660277E+03</rscale>
<asrwt>0</asrwt>
<pdfrwt beam="1">  1        2 0.23675888E+00 0.47660277E+03</pdfrwt>
<pdfrwt beam="2">  1       -2 0.24177300E-01 0.47660277E+03</pdfrwt>
<totfact> 0.19161916E+02</totfact>
</mgrwt>
</event>
<event>
 4    1  0.5387657E-008  0.4394335E+03  0.7818608E-02  0.1030921E+00
         -2   -1    0    0    0  501 -0.00000000000E+00  0.00000000000E+00  0.55511908481E+03  0.55511908481E+03  0.25500000000E-02 0.  1.
          2   -1    0    0  501    0  0.00000000000E+00 -0.00000000000E+00 -0.50089694747E+03  0.50089694748E+03  0.25500000000E-02 0. -1.
    8880022    1    1    2    0    0  0.62930591930E+02 -0.40712391542E+03 -0.26474545394E+03  0.51302236823E+03  0.15294330000E+03 0.  0.
    8880022    1    1    2    0    0 -0.62930591930E+02  0.40712391542E+03  0.31896759128E+03  0.54299366406E+03  0.15294330000E+03 0.  0.
<mgrwt>
<rscale>  0 0.43943349E+03</rscale>
<asrwt>0</asrwt>
<pdfrwt beam="1">  1        2 0.77061069E-01 0.43943349E+03</pdfrwt>
<pdfrwt beam="2">  1       -2 0.85402936E-01 0.43943349E+03</pdfrwt>
<totfact> 0.75825805E+01</totfact>
</mgrwt>
</event>
<event>
 4    1  0.5387657E-008  0.4973315E+03  0.7818608E-02  0.1014478E+00
         -2   -1    0    0    0  501 -0.00000000000E+00  0.00000000000E+00  0.84131598681E+03  0.84131598682E+03  0.25500000000E-02 0.  1.
          2   -1    0    0  501    0  0.00000000000E+00 -0.00000000000E+00 -0.22607661959E+04  0.22607661959E+04  0.25500000000E-02 0. -1.
    8880022    1    1    2    0    0  0.16540685209E+03 -0.44338196098E+03 -0.21564066100E+04  0.22130133553E+04  0.15294330000E+03 0.  0.
    8880022    1    1    2    0    0 -0.16540685209E+03  0.44338196098E+03  0.73695640091E+03  0.88906882743E+03  0.15294330000E+03 0.  0.
<mgrwt>
<rscale>  0 0.49733152E+03</rscale>
<asrwt>0</asrwt>
<pdfrwt beam="1">  1        2 0.34781018E+00 0.49733152E+03</pdfrwt>
<pdfrwt beam="2">  1       -2 0.12943323E+00 0.49733152E+03</pdfrwt>
<totfact> 0.23209389E+00</totfact>
</mgrwt>
</event>
<event>
 4    1  0.6440765E-008  0.5411991E+03  0.7818608E-02  0.1003552E+00
          2   -1    0    0  501    0  0.00000000000E+00  0.00000000000E+00  0.13919233362E+04  0.13919233362E+04  0.25500000000E-02 0. -1.
         -2   -1    0    0    0  501 -0.00000000000E+00 -0.00000000000E+00 -0.11709932519E+04  0.11709932519E+04  0.25500000000E-02 0.  1.
    8880022    1    1    2    0    0  0.41556096595E+02  0.51747256317E+03  0.12710882233E+04  0.13815070348E+04  0.15294330000E+03 0.  0.
    8880022    1    1    2    0    0 -0.41556096595E+02 -0.51747256317E+03 -0.10501581389E+04  0.11814095533E+04  0.15294330000E+03 0.  1.
<mgrwt>
<rscale>  0 0.54119905E+03</rscale>
<asrwt>0</asrwt>
<pdfrwt beam="1">  1        2 0.21414205E+00 0.54119905E+03</pdfrwt>
<pdfrwt beam="2">  1       -2 0.18015281E+00 0.54119905E+03</pdfrwt>
<totfact> 0.28303408E+00</totfact>
</mgrwt>
</event>
<event>
 4    1  0.5387657E-008  0.5437231E+03  0.7818608E-02  0.1002957E+00
          2   -1    0    0  501    0  0.00000000000E+00  0.00000000000E+00  0.13746118166E+04  0.13746118166E+04  0.25500000000E-02 0. -1.
         -2   -1    0    0    0  501 -0.00000000000E+00 -0.00000000000E+00 -0.49341430805E+03  0.49341430806E+03  0.25500000000E-02 0.  1.
    8880022    1    1    2    0    0  0.51264693766E+03 -0.97140241834E+02 -0.26092108250E+03  0.60308753393E+03  0.15294330000E+03 0.  0.
    8880022    1    1    2    0    0 -0.51264693766E+03  0.97140241834E+02  0.11421185910E+04  0.12649385907E+04  0.15294330000E+03 0.  0.
<mgrwt>
<rscale>  0 0.54372306E+03</rscale>
<asrwt>0</asrwt>
<pdfrwt beam="1">  1        2 0.21147874E+00 0.54372306E+03</pdfrwt>
<pdfrwt beam="2">  1       -2 0.75909895E-01 0.54372306E+03</pdfrwt>
<totfact> 0.24436069E+01</totfact>
</mgrwt>
</event>
<event>
 4    1  0.5387657E-008  0.5176801E+03  0.7818608E-02  0.1009264E+00
         -2   -1    0    0    0  501 -0.00000000000E+00  0.00000000000E+00  0.22327889435E+04  0.22327889435E+04  0.25500000000E-02 0.  1.
          2   -1    0    0  501    0  0.00000000000E+00 -0.00000000000E+00 -0.16074067851E+03  0.16074067853E+03  0.25500000000E-02 0. -1.
    8880022    1    1    2    0    0 -0.41579806963E+02  0.49282061825E+03  0.16383360973E+04  0.17181786470E+04  0.15294330000E+03 0.  0.
    8880022    1    1    2    0    0  0.41579806963E+02 -0.49282061825E+03  0.43371216768E+03  0.67535097507E+03  0.15294330000E+03 0.  0.
<mgrwt>
<rscale>  0 0.51768011E+03</rscale>
<asrwt>0</asrwt>
<pdfrwt beam="1">  1        2 0.24729337E-01 0.51768011E+03</pdfrwt>
<pdfrwt beam="2">  1       -2 0.34350596E+00 0.51768011E+03</pdfrwt>
<totfact> 0.41331794E+00</totfact>
</mgrwt>
</event>
<event>
 4    1  0.5387657E-008  0.5700684E+03  0.7818608E-02  0.9969527E-01
         -2   -1    0    0    0  501 -0.00000000000E+00  0.00000000000E+00  0.14068911983E+03  0.14068911985E+03  0.25500000000E-02 0.  1.
          2   -1    0    0  501    0  0.00000000000E+00 -0.00000000000E+00 -0.37888508444E+04  0.37888508444E+04  0.25500000000E-02 0. -1.
    8880022    1    1    2    0    0 -0.40917269405E+02  0.54764230330E+03 -0.30516180337E+04  0.31044082515E+04  0.15294330000E+03 0.  0.
    8880022    1    1    2    0    0  0.40917269405E+02 -0.54764230330E+03 -0.59654369093E+03  0.82513171282E+03  0.15294330000E+03 0.  0.
<mgrwt>
<rscale>  0 0.57006839E+03</rscale>
<asrwt>0</asrwt>
<pdfrwt beam="1">  1        2 0.58290005E+00 0.57006839E+03</pdfrwt>
<pdfrwt beam="2">  1       -2 0.21644483E-01 0.57006839E+03</pdfrwt>
<totfact> 0.10570812E+01</totfact>
</mgrwt>
</event>
<event>
 4    1  0.5387657E-008  0.8065221E+03  0.7818608E-02  0.9550624E-01
         -2   -1    0    0    0  501 -0.00000000000E+00  0.00000000000E+00  0.18477687133E+03  0.18477687135E+03  0.25500000000E-02 0.  1.
          2   -1    0    0  501    0  0.00000000000E+00 -0.00000000000E+00 -0.36722342186E+04  0.36722342186E+04  0.25500000000E-02 0. -1.
    8880022    1    1    2    0    0  0.61656085440E+03  0.49692945634E+03 -0.21359427065E+04  0.22831401775E+04  0.15294330000E+03 0.  0.
    8880022    1    1    2    0    0 -0.61656085440E+03 -0.49692945634E+03 -0.13515146407E+04  0.15738709124E+04  0.15294330000E+03 0.  0.
<mgrwt>
<rscale>  0 0.80652205E+03</rscale>
<asrwt>0</asrwt>
<pdfrwt beam="1">  1        2 0.56495906E+00 0.80652205E+03</pdfrwt>
<pdfrwt beam="2">  1       -2 0.28427214E-01 0.80652205E+03</pdfrwt>
<totfact> 0.74603216E+00</totfact>
</mgrwt>
</event>
<event>
 4    1  0.5387657E-008  0.5458327E+03  0.7818608E-02  0.1002463E+00
          2   -1    0    0  501    0  0.00000000000E+00  0.00000000000E+00  0.14417923477E+04  0.14417923477E+04  0.25500000000E-02 0. -1.
         -2   -1    0    0    0  501 -0.00000000000E+00 -0.00000000000E+00 -0.99195749366E+03  0.99195749366E+03  0.25500000000E-02 0.  1.
    8880022    1    1    2    0    0  0.51642938346E+03 -0.88557183966E+02  0.13076514486E+04  0.14169988169E+04  0.15294330000E+03 0.  0.
    8880022    1    1    2    0    0 -0.51642938346E+03  0.88557183966E+02 -0.85781659456E+03  0.10167510245E+04  0.15294330000E+03 0.  0.
<mgrwt>
<rscale>  0 0.54583270E+03</rscale>
<asrwt>0</asrwt>
<pdfrwt beam="1">  1        2 0.22181421E+00 0.54583270E+03</pdfrwt>
<pdfrwt beam="2">  1       -2 0.15260885E+00 0.54583270E+03</pdfrwt>
<totfact> 0.41721629E+00</totfact>
</mgrwt>
</event>
<event>
 4    1  0.5387657E-008  0.1054929E+04  0.7818608E-02  0.9250270E-01
         -2   -1    0    0    0  501 -0.00000000000E+00  0.00000000000E+00  0.34391525698E+03  0.34391525698E+03  0.25500000000E-02 0.  1.
          2   -1    0    0  501    0  0.00000000000E+00 -0.00000000000E+00 -0.33214871147E+04  0.33214871147E+04  0.25500000000E-02 0. -1.
    8880022    1    1    2    0    0 -0.10528908712E+03  0.10384596579E+04 -0.11945974311E+04  0.15937185851E+04  0.15294330000E+03 0.  0.
    8880022    1    1    2    0    0  0.10528908712E+03 -0.10384596579E+04 -0.17829744266E+04  0.20716837866E+04  0.15294330000E+03 0.  0.
<mgrwt>
<rscale>  0 0.10549293E+04</rscale>
<asrwt>0</asrwt>
<pdfrwt beam="1">  1        2 0.51099800E+00 0.10549293E+04</pdfrwt>
<pdfrwt beam="2">  1       -2 0.52910042E-01 0.10549293E+04</pdfrwt>
<totfact> 0.37148453E+00</totfact>
</mgrwt>
</event>
<event>
 4    1  0.5387657E-008  0.5235490E+03  0.7818608E-02  0.1007809E+00
          2   -1    0    0  501    0  0.00000000000E+00  0.00000000000E+00  0.33613470706E+04  0.33613470706E+04  0.25500000000E-02 0. -1.
         -2   -1    0    0    0  501 -0.00000000000E+00 -0.00000000000E+00 -0.37783665363E+03  0.37783665364E+03  0.25500000000E-02 0.  1.
    8880022    1    1    2    0    0 -0.49087716215E+03 -0.98749955983E+02 -0.16383907897E+03  0.54858621833E+03  0.15294330000E+03 0.  1.
    8880022    1    1    2    0    0  0.49087716215E+03  0.98749955983E+02  0.31473494960E+04  0.31905975059E+04  0.15294330000E+03 0.  0.
<mgrwt>
<rscale>  0 0.52354904E+03</rscale>
<asrwt>0</asrwt>
<pdfrwt beam="1">  1        2 0.51713032E+00 0.52354904E+03</pdfrwt>
<pdfrwt beam="2">  1       -2 0.58128716E-01 0.52354904E+03</pdfrwt>
<totfact> 0.32123222E+00</totfact>
</mgrwt>
</event>
<event>
 4    1  0.5387657E-008  0.8454620E+03  0.7818608E-02  0.9496448E-01
          2   -1    0    0  501    0  0.00000000000E+00  0.00000000000E+00  0.93047888249E+03  0.93047888249E+03  0.25500000000E-02 0. -1.
         -2   -1    0    0    0  501 -0.00000000000E+00 -0.00000000000E+00 -0.78754391690E+03  0.78754391690E+03  0.25500000000E-02 0.  1.
    8880022    1    1    2    0    0  0.28043920177E+03  0.78279506871E+03  0.20604993294E+03  0.87020830458E+03  0.15294330000E+03 0.  0.
    8880022    1    1    2    0    0 -0.28043920177E+03 -0.78279506871E+03 -0.63114967353E+02  0.84781449481E+03  0.15294330000E+03 0.  0.
<mgrwt>
<rscale>  0 0.84546196E+03</rscale>
<asrwt>0</asrwt>
<pdfrwt beam="1">  1        2 0.14315060E+00 0.84546196E+03</pdfrwt>
<pdfrwt beam="2">  1       -2 0.12116060E+00 0.84546196E+03</pdfrwt>
<totfact> 0.14591691E+01</totfact>
</mgrwt>
</event>
<event>
 4    1  0.5387657E-008  0.7149449E+03  0.7818608E-02  0.9692010E-01
          2   -1    0    0  501    0  0.00000000000E+00  0.00000000000E+00  0.19629661993E+04  0.19629661993E+04  0.25500000000E-02 0. -1.
         -2   -1    0    0    0  501 -0.00000000000E+00 -0.00000000000E+00 -0.34246823314E+03  0.34246823315E+03  0.25500000000E-02 0.  1.
    8880022    1    1    2    0    0  0.62445939216E+03  0.31273804542E+03  0.13745538888E+04  0.15493691180E+04  0.15294330000E+03 0.  0.
    8880022    1    1    2    0    0 -0.62445939216E+03 -0.31273804542E+03  0.24594407731E+03  0.75606531444E+03  0.15294330000E+03 0.  0.
<mgrwt>
<rscale>  0 0.71494494E+03</rscale>
<asrwt>0</asrwt>
<pdfrwt beam="1">  1        2 0.30199481E+00 0.71494494E+03</pdfrwt>
<pdfrwt beam="2">  1       -2 0.52687419E-01 0.71494494E+03</pdfrwt>
<totfact> 0.24701672E+01</totfact>
</mgrwt>
</event>
<event>
 4    1  0.5387657E-008  0.4233507E+03  0.7818608E-02  0.1035981E+00
         -2   -1    0    0    0  501 -0.00000000000E+00  0.00000000000E+00  0.76266149810E+03  0.76266149811E+03  0.25500000000E-02 0.  1.
          2   -1    0    0  501    0  0.00000000000E+00 -0.00000000000E+00 -0.76490573533E+03  0.76490573533E+03  0.25500000000E-02 0. -1.
    8880022    1    1    2    0    0 -0.25742047680E+03  0.29928053159E+03 -0.63684158099E+03  0.76471758889E+03  0.15294330000E+03 0.  0.
    8880022    1    1    2    0    0  0.25742047680E+03 -0.29928053159E+03  0.63459734376E+03  0.76284964455E+03  0.15294330000E+03 0.  0.
<mgrwt>
<rscale>  0 0.42335067E+03</rscale>
<asrwt>0</asrwt>
<pdfrwt beam="1">  1        2 0.11767781E+00 0.42335067E+03</pdfrwt>
<pdfrwt beam="2">  1       -2 0.11733254E+00 0.42335067E+03</pdfrwt>
<totfact> 0.21677663E+01</totfact>
</mgrwt>
</event>
<event>
 4    1  0.5387657E-008  0.2977534E+03  0.7818608E-02  0.1086369E+00
          2   -1    0    0  501    0  0.00000000000E+00  0.00000000000E+00  0.67976483080E+03  0.67976483080E+03  0.25500000000E-02 0. -1.
         -2   -1    0    0    0  501 -0.00000000000E+00 -0.00000000000E+00 -0.23351774543E+03  0.23351774545E+03  0.25500000000E-02 0.  1.
    8880022    1    1    2    0    0 -0.24766945182E+03  0.62651965047E+02  0.52653582318E+03  0.60489424877E+03  0.15294330000E+03 0.  0.
    8880022    1    1    2    0    0  0.24766945182E+03 -0.62651965047E+02 -0.80288737818E+02  0.30838832748E+03  0.15294330000E+03 0.  0.
<mgrwt>
<rscale>  0 0.29775339E+03</rscale>
<asrwt>0</asrwt>
<pdfrwt beam="1">  1        2 0.10457920E+00 0.29775339E+03</pdfrwt>
<pdfrwt beam="2">  1       -2 0.35925808E-01 0.29775339E+03</pdfrwt>
<totfact> 0.31967644E+02</totfact>
</mgrwt>
</event>
<event>
 4    1  0.5387657E-008  0.4175793E+03  0.7818608E-02  0.1037857E+00
          2   -1    0    0  501    0  0.00000000000E+00  0.00000000000E+00  0.16075843372E+04  0.16075843372E+04  0.25500000000E-02 0. -1.
         -2   -1    0    0    0  501 -0.00000000000E+00 -0.00000000000E+00 -0.37819687709E+03  0.37819687710E+03  0.25500000000E-02 0.  1.
    8880022    1    1    2    0    0  0.35424922328E+03 -0.15965054301E+03  0.14531987227E+04  0.15120049566E+04  0.15294330000E+03 0.  0.
    8880022    1    1    2    0    0 -0.35424922328E+03  0.15965054301E+03 -0.22381126261E+03  0.47377625770E+03  0.15294330000E+03 0.  0.
<mgrwt>
<rscale>  0 0.41757929E+03</rscale>
<asrwt>0</asrwt>
<pdfrwt beam="1">  1        2 0.24732067E+00 0.41757929E+03</pdfrwt>
<pdfrwt beam="2">  1       -2 0.58184135E-01 0.41757929E+03</pdfrwt>
<totfact> 0.32948124E+01</totfact>
</mgrwt>
</event>
<event>
 4    1  0.5387657E-008  0.8625283E+03  0.7818608E-02  0.9473675E-01
          2   -1    0    0  501    0  0.00000000000E+00  0.00000000000E+00  0.11500294388E+04  0.11500294388E+04  0.25500000000E-02 0. -1.
         -2   -1    0    0    0  501 -0.00000000000E+00 -0.00000000000E+00 -0.77267684615E+03  0.77267684616E+03  0.25500000000E-02 0.  1.
    8880022    1    1    2    0    0  0.68034820986E+03  0.50763142802E+03 -0.19919077104E+03  0.88522989650E+03  0.15294330000E+03 0.  0.
    8880022    1    1    2    0    0 -0.68034820986E+03 -0.50763142802E+03  0.57654336370E+03  0.10374763885E+04  0.15294330000E+03 0.  0.
<mgrwt>
<rscale>  0 0.86252826E+03</rscale>
<asrwt>0</asrwt>
<pdfrwt beam="1">  1        2 0.17692761E+00 0.86252826E+03</pdfrwt>
<pdfrwt beam="2">  1       -2 0.11887336E+00 0.86252826E+03</pdfrwt>
<totfact> 0.11102790E+01</totfact>
</mgrwt>
</event>
<event>
 4    1  0.5387657E-008  0.1827576E+03  0.7818608E-02  0.1165161E+00
         -2   -1    0    0    0  501 -0.00000000000E+00  0.00000000000E+00  0.54550674011E+03  0.54550674012E+03  0.25500000000E-02 0.  1.
          2   -1    0    0  501    0  0.00000000000E+00 -0.00000000000E+00 -0.23647420187E+03  0.23647420188E+03  0.25500000000E-02 0. -1.
    8880022    1    1    2    0    0 -0.96092524883E+02 -0.27837004086E+02 -0.18207163805E+03  0.25797365472E+03  0.15294330000E+03 0. -1.
    8880022    1    1    2    0    0  0.96092524883E+02  0.27837004086E+02  0.49110417629E+03  0.52400728728E+03  0.15294330000E+03 0.  0.
<mgrwt>
<rscale>  0 0.18275756E+03</rscale>
<asrwt>0</asrwt>
<pdfrwt beam="1">  1        2 0.36380647E-01 0.18275756E+03</pdfrwt>
<pdfrwt beam="2">  1       -2 0.83924113E-01 0.18275756E+03</pdfrwt>
<totfact> 0.18363011E+02</totfact>
</mgrwt>
</event>
<event>
 4    1  0.5387657E-008  0.8998925E+03  0.7818608E-02  0.9425716E-01
          2   -1    0    0  501    0  0.00000000000E+00  0.00000000000E+00  0.69869639430E+03  0.69869639431E+03  0.25500000000E-02 0. -1.
         -2   -1    0    0    0  501 -0.00000000000E+00 -0.00000000000E+00 -0.20879007902E+04  0.20879007902E+04  0.25500000000E-02 0.  1.
    8880022    1    1    2    0    0 -0.79036650904E+03 -0.40216368066E+03 -0.16239282698E+04  0.18565962197E+04  0.15294330000E+03 0.  0.
    8880022    1    1    2    0    0  0.79036650904E+03  0.40216368066E+03  0.23472387383E+03  0.93000096485E+03  0.15294330000E+03 0.  0.
<mgrwt>
<rscale>  0 0.89989249E+03</rscale>
<asrwt>0</asrwt>
<pdfrwt beam="1">  1        2 0.10749175E+00 0.89989249E+03</pdfrwt>
<pdfrwt beam="2">  1       -2 0.32121550E+00 0.89989249E+03</pdfrwt>
<totfact> 0.98865835E-01</totfact>
</mgrwt>
</event>
<event>
 4    1  0.5387657E-008  0.4225514E+03  0.7818608E-02  0.1036239E+00
          2   -1    0    0  501    0  0.00000000000E+00  0.00000000000E+00  0.95609365741E+03  0.95609365742E+03  0.25500000000E-02 0. -1.
         -2   -1    0    0    0  501 -0.00000000000E+00 -0.00000000000E+00 -0.40622621202E+03  0.40622621203E+03  0.25500000000E-02 0.  1.
    8880022    1    1    2    0    0 -0.37841543368E+03  0.10936073077E+03 -0.22574565999E+03  0.47907281900E+03  0.15294330000E+03 0.  0.
    8880022    1    1    2    0    0  0.37841543368E+03 -0.10936073077E+03  0.77561310538E+03  0.88324705045E+03  0.15294330000E+03 0. -1.
<mgrwt>
<rscale>  0 0.42255137E+03</rscale>
<asrwt>0</asrwt>
<pdfrwt beam="1">  1        2 0.14709133E+00 0.42255137E+03</pdfrwt>
<pdfrwt beam="2">  1       -2 0.62496340E-01 0.42255137E+03</pdfrwt>
<totfact> 0.67081648E+01</totfact>
</mgrwt>
</event>
<event>
 4    1  0.5387657E-008  0.8456752E+03  0.7818608E-02  0.9496160E-01
         -2   -1    0    0    0  501 -0.00000000000E+00  0.00000000000E+00  0.10249419332E+04  0.10249419332E+04  0.25500000000E-02 0.  1.
          2   -1    0    0  501    0  0.00000000000E+00 -0.00000000000E+00 -0.13227363634E+04  0.13227363634E+04  0.25500000000E-02 0. -1.
    8880022    1    1    2    0    0  0.40975993232E+03  0.72378979164E+03 -0.95576562152E+03  0.12761874631E+04  0.15294330000E+03 0.  0.
    8880022    1    1    2    0    0 -0.40975993232E+03 -0.72378979164E+03  0.65797119136E+03  0.10714908335E+04  0.15294330000E+03 0.  0.
<mgrwt>
<rscale>  0 0.84567518E+03</rscale>
<asrwt>0</asrwt>
<pdfrwt beam="1">  1        2 0.20349790E+00 0.84567518E+03</pdfrwt>
<pdfrwt beam="2">  1       -2 0.15768337E+00 0.84567518E+03</pdfrwt>
<totfact> 0.42455719E+00</totfact>
</mgrwt>
</event>
<event>
 4    1  0.5387657E-008  0.5362470E+03  0.7818608E-02  0.1004728E+00
         -2   -1    0    0    0  501 -0.00000000000E+00  0.00000000000E+00  0.23709230718E+03  0.23709230720E+03  0.25500000000E-02 0.  1.
          2   -1    0    0  501    0  0.00000000000E+00 -0.00000000000E+00 -0.16436231552E+04  0.16436231552E+04  0.25500000000E-02 0. -1.
    8880022    1    1    2    0    0  0.29977366116E+03 -0.41749842735E+03 -0.22186220436E+03  0.58033066049E+03  0.15294330000E+03 0.  1.
    8880022    1    1    2    0    0 -0.29977366116E+03  0.41749842735E+03 -0.11846686436E+04  0.13003848019E+04  0.15294330000E+03 0.  0.
<mgrwt>
<rscale>  0 0.53624699E+03</rscale>
<asrwt>0</asrwt>
<pdfrwt beam="1">  1        2 0.25286509E+00 0.53624699E+03</pdfrwt>
<pdfrwt beam="2">  1       -2 0.36475741E-01 0.53624699E+03</pdfrwt>
<totfact> 0.78174720E+01</totfact>
</mgrwt>
</event>
<event>
 4    1  0.5387657E-008  0.1246589E+04  0.7818608E-02  0.9073027E-01
          2   -1    0    0  501    0  0.00000000000E+00  0.00000000000E+00  0.89433813889E+03  0.89433813889E+03  0.25500000000E-02 0. -1.
         -2   -1    0    0    0  501 -0.00000000000E+00 -0.00000000000E+00 -0.26246461825E+04  0.26246461825E+04  0.25500000000E-02 0.  1.
    8880022    1    1    2    0    0  0.92993418438E+03  0.81597514153E+03  0.15773801587E+03  0.12565293286E+04  0.15294330000E+03 0.  0.
    8880022    1    1    2    0    0 -0.92993418438E+03 -0.81597514153E+03 -0.18880460595E+04  0.22624549928E+04  0.15294330000E+03 0.  1.
<mgrwt>
<rscale>  0 0.12465892E+04</rscale>
<asrwt>0</asrwt>
<pdfrwt beam="1">  1        2 0.13759048E+00 0.12465892E+04</pdfrwt>
<pdfrwt beam="2">  1       -2 0.40379172E+00 0.12465892E+04</pdfrwt>
<totfact> 0.20343180E-01</totfact>
</mgrwt>
</event>
<event>
 4    1  0.5387657E-008  0.5318328E+03  0.7818608E-02  0.1005789E+00
         -2   -1    0    0    0  501 -0.00000000000E+00  0.00000000000E+00  0.57616563964E+03  0.57616563964E+03  0.25500000000E-02 0.  1.
          2   -1    0    0  501    0  0.00000000000E+00 -0.00000000000E+00 -0.23927042134E+04  0.23927042134E+04  0.25500000000E-02 0. -1.
    8880022    1    1    2    0    0  0.26151730144E+03  0.43710775101E+03 -0.22316910927E+04  0.22941864073E+04  0.15294330000E+03 0.  0.
    8880022    1    1    2    0    0 -0.26151730144E+03 -0.43710775101E+03  0.41515251898E+03  0.67468344575E+03  0.15294330000E+03 0.  0.
<mgrwt>
<rscale>  0 0.53183281E+03</rscale>
<asrwt>0</asrwt>
<pdfrwt beam="1">  1        2 0.36810834E+00 0.53183281E+03</pdfrwt>
<pdfrwt beam="2">  1       -2 0.88640869E-01 0.53183281E+03</pdfrwt>
<totfact> 0.48174168E+00</totfact>
</mgrwt>
</event>
<event>
 4    1  0.5387657E-008  0.1639520E+04  0.7818608E-02  0.8796630E-01
          2   -1    0    0  501    0  0.00000000000E+00  0.00000000000E+00  0.13065607852E+04  0.13065607853E+04  0.25500000000E-02 0. -1.
         -2   -1    0    0    0  501 -0.00000000000E+00 -0.00000000000E+00 -0.33773545042E+04  0.33773545042E+04  0.25500000000E-02 0.  1.
    8880022    1    1    2    0    0 -0.60270934799E+03 -0.15170287818E+04  0.42874018641E+03  0.16946517882E+04  0.15294330000E+03 0.  0.
    8880022    1    1    2    0    0  0.60270934799E+03  0.15170287818E+04 -0.24995339054E+04  0.29892635013E+04  0.15294330000E+03 0.  0.
<mgrwt>
<rscale>  0 0.16395202E+04</rscale>
<asrwt>0</asrwt>
<pdfrwt beam="1">  1        2 0.20100935E+00 0.16395202E+04</pdfrwt>
<pdfrwt beam="2">  1       -2 0.51959300E+00 0.16395202E+04</pdfrwt>
<totfact> 0.18862560E-02</totfact>
</mgrwt>
</event>
<event>
 4    1  0.5387657E-008  0.2688252E+03  0.7818608E-02  0.1101954E+00
          2   -1    0    0  501    0  0.00000000000E+00  0.00000000000E+00  0.98897505555E+02  0.98897505588E+02  0.25500000000E-02 0. -1.
         -2   -1    0    0    0  501 -0.00000000000E+00 -0.00000000000E+00 -0.27750306292E+04  0.27750306292E+04  0.25500000000E-02 0.  1.
    8880022    1    1    2    0    0  0.21941218791E+03 -0.27085776282E+02 -0.10472092879E+03  0.28850212031E+03  0.15294330000E+03 0. -1.
    8880022    1    1    2    0    0 -0.21941218791E+03  0.27085776282E+02 -0.25714121949E+04  0.25854260145E+04  0.15294330000E+03 0.  0.
<mgrwt>
<rscale>  0 0.26882522E+03</rscale>
<asrwt>0</asrwt>
<pdfrwt beam="1">  1        2 0.15215003E-01 0.26882522E+03</pdfrwt>
<pdfrwt beam="2">  1       -2 0.42692773E+00 0.26882522E+03</pdfrwt>
<totfact> 0.23210304E+00</totfact>
</mgrwt>
</event>
<event>
 4    1  0.5387657E-008  0.5439640E+03  0.7818608E-02  0.1002901E+00
          2   -1    0    0  501    0  0.00000000000E+00  0.00000000000E+00  0.20444877899E+04  0.20444877899E+04  0.25500000000E-02 0. -1.
         -2   -1    0    0    0  501 -0.00000000000E+00 -0.00000000000E+00 -0.51977868398E+03  0.51977868399E+03  0.25500000000E-02 0.  1.
    8880022    1    1    2    0    0  0.15503630339E+03 -0.49846653862E+03  0.18514558932E+04  0.19297113056E+04  0.15294330000E+03 0.  0.
    8880022    1    1    2    0    0 -0.15503630339E+03  0.49846653862E+03 -0.32674678733E+03  0.63455516824E+03  0.15294330000E+03 0.  0.
<mgrwt>
<rscale>  0 0.54396397E+03</rscale>
<asrwt>0</asrwt>
<pdfrwt beam="1">  1        2 0.31453658E+00 0.54396397E+03</pdfrwt>
<pdfrwt beam="2">  1       -2 0.79965951E-01 0.54396397E+03</pdfrwt>
<totfact> 0.93982970E+00</totfact>
</mgrwt>
</event>
<event>
 4    1  0.5387657E-008  0.3425036E+03  0.7818608E-02  0.1065735E+00
         -2   -1    0    0    0  501 -0.00000000000E+00  0.00000000000E+00  0.75919241813E+03  0.75919241813E+03  0.25500000000E-02 0.  1.
          2   -1    0    0  501    0  0.00000000000E+00 -0.00000000000E+00 -0.69581208552E+03  0.69581208552E+03  0.25500000000E-02 0. -1.
    8880022    1    1    2    0    0  0.27017589801E+03  0.14464448692E+03 -0.60997003524E+03  0.69955138508E+03  0.15294330000E+03 0.  0.
    8880022    1    1    2    0    0 -0.27017589801E+03 -0.14464448692E+03  0.67335036785E+03  0.75545311857E+03  0.15294330000E+03 0.  0.
<mgrwt>
<rscale>  0 0.34250357E+03</rscale>
<asrwt>0</asrwt>
<pdfrwt beam="1">  1        2 0.10704801E+00 0.34250357E+03</pdfrwt>
<pdfrwt beam="2">  1       -2 0.11679883E+00 0.34250357E+03</pdfrwt>
<totfact> 0.25040895E+01</totfact>
</mgrwt>
</event>
<event>
 4    1  0.5387657E-008  0.3979514E+03  0.7818608E-02  0.1044491E+00
         -2   -1    0    0    0  501 -0.00000000000E+00  0.00000000000E+00  0.43177583263E+03  0.43177583264E+03  0.25500000000E-02 0.  1.
          2   -1    0    0  501    0  0.00000000000E+00 -0.00000000000E+00 -0.10844739614E+04  0.10844739614E+04  0.25500000000E-02 0. -1.
    8880022    1    1    2    0    0  0.12347216232E+03  0.34601775443E+03 -0.94308867160E+03  0.10236120148E+04  0.15294330000E+03 0.  0.
    8880022    1    1    2    0    0 -0.12347216232E+03 -0.34601775443E+03  0.29039054279E+03  0.49263777932E+03  0.15294330000E+03 0.  1.
<mgrwt>
<rscale>  0 0.39795140E+03</rscale>
<asrwt>0</asrwt>
<pdfrwt beam="1">  1        2 0.16684215E+00 0.39795140E+03</pdfrwt>
<pdfrwt beam="2">  1       -2 0.66427052E-01 0.39795140E+03</pdfrwt>
<totfact> 0.49256307E+01</totfact>
</mgrwt>
</event>
<event>
 4    1  0.5387657E-008  0.4359717E+03  0.7818608E-02  0.1031990E+00
          2   -1    0    0  501    0  0.00000000000E+00  0.00000000000E+00  0.25756258812E+04  0.25756258812E+04  0.25500000000E-02 0. -1.
         -2   -1    0    0    0  501 -0.00000000000E+00 -0.00000000000E+00 -0.49434106356E+03  0.49434106357E+03  0.25500000000E-02 0.  1.
    8880022    1    1    2    0    0  0.25130911734E+03  0.32175050412E+03 -0.37514010611E+03  0.57515338092E+03  0.15294330000E+03 0.  0.
    8880022    1    1    2    0    0 -0.25130911734E+03 -0.32175050412E+03  0.24564249237E+04  0.24948135638E+04  0.15294330000E+03 0.  0.
<mgrwt>
<rscale>  0 0.43597169E+03</rscale>
<asrwt>0</asrwt>
<pdfrwt beam="1">  1        2 0.39625014E+00 0.43597169E+03</pdfrwt>
<pdfrwt beam="2">  1       -2 0.76052470E-01 0.43597169E+03</pdfrwt>
<totfact> 0.55217789E+00</totfact>
</mgrwt>
</event>
<event>
 4    1  0.5387657E-008  0.3970716E+03  0.7818608E-02  0.1044798E+00
          2   -1    0    0  501    0  0.00000000000E+00  0.00000000000E+00  0.19054905912E+04  0.19054905912E+04  0.25500000000E-02 0. -1.
         -2   -1    0    0    0  501 -0.00000000000E+00 -0.00000000000E+00 -0.27926564407E+03  0.27926564408E+03  0.25500000000E-02 0.  1.
    8880022    1    1    2    0    0 -0.30622623706E+03 -0.20124530972E+03 -0.10325704642E+03  0.41027777614E+03  0.15294330000E+03 0.  0.
    8880022    1    1    2    0    0  0.30622623706E+03  0.20124530972E+03  0.17294819936E+04  0.17744784591E+04  0.15294330000E+03 0.  0.
<mgrwt>
<rscale>  0 0.39707158E+03</rscale>
<asrwt>0</asrwt>
<pdfrwt beam="1">  1        2 0.29315239E+00 0.39707158E+03</pdfrwt>
<pdfrwt beam="2">  1       -2 0.42963946E-01 0.39707158E+03</pdfrwt>
<totfact> 0.42274312E+01</totfact>
</mgrwt>
</event>
<event>
 4    1  0.5387657E-008  0.5344122E+03  0.7818608E-02  0.1005168E+00
          2   -1    0    0  501    0  0.00000000000E+00  0.00000000000E+00  0.81342452953E+03  0.81342452953E+03  0.25500000000E-02 0. -1.
         -2   -1    0    0    0  501 -0.00000000000E+00 -0.00000000000E+00 -0.74060228448E+03  0.74060228448E+03  0.25500000000E-02 0.  1.
    8880022    1    1    2    0    0 -0.16200539892E+03  0.48575616009E+03 -0.52708232552E+03  0.75060790513E+03  0.15294330000E+03 0.  0.
    8880022    1    1    2    0    0  0.16200539892E+03 -0.48575616009E+03  0.59990457057E+03  0.80341890888E+03  0.15294330000E+03 0.  0.
<mgrwt>
<rscale>  0 0.53441225E+03</rscale>
<asrwt>0</asrwt>
<pdfrwt beam="1">  1        2 0.12514224E+00 0.53441225E+03</pdfrwt>
<pdfrwt beam="2">  1       -2 0.11393881E+00 0.53441225E+03</pdfrwt>
<totfact> 0.21133007E+01</totfact>
</mgrwt>
</event>
<event>
 4    1  0.5387657E-008  0.4945902E+03  0.7818608E-02  0.1015201E+00
         -2   -1    0    0    0  501 -0.00000000000E+00  0.00000000000E+00  0.87954748735E+03  0.87954748735E+03  0.25500000000E-02 0.  1.
          2   -1    0    0  501    0  0.00000000000E+00 -0.00000000000E+00 -0.80712266094E+03  0.80712266094E+03  0.25500000000E-02 0. -1.
    8880022    1    1    2    0    0  0.46830426662E+03 -0.43805440709E+02  0.71895887286E+03  0.87265188744E+03  0.15294330000E+03 0.  0.
    8880022    1    1    2    0    0 -0.46830426662E+03  0.43805440709E+02 -0.64653404645E+03  0.81401826085E+03  0.15294330000E+03 0.  0.
<mgrwt>
<rscale>  0 0.49459019E+03</rscale>
<asrwt>0</asrwt>
<pdfrwt beam="1">  1        2 0.12417272E+00 0.49459019E+03</pdfrwt>
<pdfrwt beam="2">  1       -2 0.13531500E+00 0.49459019E+03</pdfrwt>
<totfact> 0.14012644E+01</totfact>
</mgrwt>
</event>
<event>
 4    1  0.5387657E-008  0.5669230E+03  0.7818608E-02  0.9976511E-01
          2   -1    0    0  501    0  0.00000000000E+00  0.00000000000E+00  0.65650936110E+03  0.65650936111E+03  0.25500000000E-02 0. -1.
         -2   -1    0    0    0  501 -0.00000000000E+00 -0.00000000000E+00 -0.70119042301E+03  0.70119042302E+03  0.25500000000E-02 0.  1.
    8880022    1    1    2    0    0  0.35363406453E+03  0.41587621444E+03 -0.39528420137E+03  0.69112323807E+03  0.15294330000E+03 0.  0.
    8880022    1    1    2    0    0 -0.35363406453E+03 -0.41587621444E+03  0.35060313946E+03  0.66657654605E+03  0.15294330000E+03 0.  0.
<mgrwt>
<rscale>  0 0.56692304E+03</rscale>
<asrwt>0</asrwt>
<pdfrwt beam="1">  1        2 0.10100144E+00 0.56692304E+03</pdfrwt>
<pdfrwt beam="2">  1       -2 0.10787545E+00 0.56692304E+03</pdfrwt>
<totfact> 0.31531317E+01</totfact>
</mgrwt>
</event>
<event>
 4    1  0.5387657E-008  0.7776342E+03  0.7818608E-02  0.9592967E-01
         -2   -1    0    0    0  501 -0.00000000000E+00  0.00000000000E+00  0.48468984946E+03  0.48468984947E+03  0.25500000000E-02 0.  1.
          2   -1    0    0  501    0  0.00000000000E+00 -0.00000000000E+00 -0.18541449685E+04  0.18541449685E+04  0.25500000000E-02 0. -1.
    8880022    1    1    2    0    0  0.56995591226E+03 -0.50643223139E+03 -0.13535601650E+04  0.15610381546E+04  0.15294330000E+03 0.  0.
    8880022    1    1    2    0    0 -0.56995591226E+03  0.50643223139E+03 -0.15894954038E+02  0.77779666333E+03  0.15294330000E+03 0.  0.
<mgrwt>
<rscale>  0 0.77763423E+03</rscale>
<asrwt>0</asrwt>
<pdfrwt beam="1">  1        2 0.28525307E+00 0.77763423E+03</pdfrwt>
<pdfrwt beam="2">  1       -2 0.74567670E-01 0.77763423E+03</pdfrwt>
<totfact> 0.13383757E+01</totfact>
</mgrwt>
</event>
<event>
 4    1  0.5387657E-008  0.3196233E+03  0.7818608E-02  0.1075823E+00
         -2   -1    0    0    0  501 -0.00000000000E+00  0.00000000000E+00  0.25231909164E+03  0.25231909165E+03  0.25500000000E-02 0.  1.
          2   -1    0    0  501    0  0.00000000000E+00 -0.00000000000E+00 -0.17927315894E+04  0.17927315894E+04  0.25500000000E-02 0. -1.
    8880022    1    1    2    0    0 -0.27110507712E+03  0.72590948043E+02  0.12947338776E+03  0.34485130090E+03  0.15294330000E+03 0.  0.
    8880022    1    1    2    0    0  0.27110507712E+03 -0.72590948043E+02 -0.16698858855E+04  0.17001993801E+04  0.15294330000E+03 0.  0.
<mgrwt>
<rscale>  0 0.31962331E+03</rscale>
<asrwt>0</asrwt>
<pdfrwt beam="1">  1        2 0.27580485E+00 0.31962331E+03</pdfrwt>
<pdfrwt beam="2">  1       -2 0.38818323E-01 0.31962331E+03</pdfrwt>
<totfact> 0.60197305E+01</totfact>
</mgrwt>
</event>
<event>
 4    1  0.5387657E-008  0.5116297E+03  0.7818608E-02  0.1010787E+00
         -2   -1    0    0    0  501 -0.00000000000E+00  0.00000000000E+00  0.12510149502E+03  0.12510149504E+03  0.25500000000E-02 0.  1.
          2   -1    0    0  501    0  0.00000000000E+00 -0.00000000000E+00 -0.25306747007E+04  0.25306747007E+04  0.25500000000E-02 0. -1.
    8880022    1    1    2    0    0  0.43974635548E+03 -0.21212355884E+03 -0.65019226173E+03  0.82735415126E+03  0.15294330000E+03 0.  1.
    8880022    1    1    2    0    0 -0.43974635548E+03  0.21212355884E+03 -0.17553809440E+04  0.18284220445E+04  0.15294330000E+03 0.  0.
<mgrwt>
<rscale>  0 0.51162967E+03</rscale>
<asrwt>0</asrwt>
<pdfrwt beam="1">  1        2 0.38933453E+00 0.51162967E+03</pdfrwt>
<pdfrwt beam="2">  1       -2 0.19246386E-01 0.51162967E+03</pdfrwt>
<totfact> 0.82165764E+01</totfact>
</mgrwt>
</event>
<event>
 4    1  0.5387657E-008  0.1236872E+04  0.7818608E-02  0.9081181E-01
          2   -1    0    0  501    0  0.00000000000E+00  0.00000000000E+00  0.34005702654E+04  0.34005702654E+04  0.25500000000E-02 0. -1.
         -2   -1    0    0    0  501 -0.00000000000E+00 -0.00000000000E+00 -0.50038928838E+03  0.50038928839E+03  0.25500000000E-02 0.  1.
    8880022    1    1    2    0    0 -0.10968098713E+04 -0.55087926492E+03  0.20697731313E+04  0.24111848387E+04  0.15294330000E+03 0.  0.
    8880022    1    1    2    0    0  0.10968098713E+04  0.55087926492E+03  0.83040784568E+03  0.14897747150E+04  0.15294330000E+03 0.  0.
<mgrwt>
<rscale>  0 0.12368717E+04</rscale>
<asrwt>0</asrwt>
<pdfrwt beam="1">  1        2 0.52316464E+00 0.12368717E+04</pdfrwt>
<pdfrwt beam="2">  1       -2 0.76982970E-01 0.12368717E+04</pdfrwt>
<totfact> 0.14304597E+00</totfact>
</mgrwt>
</event>
<event>
 4    1  0.5387657E-008  0.4219849E+03  0.7818608E-02  0.1036422E+00
          2   -1    0    0  501    0  0.00000000000E+00  0.00000000000E+00  0.16216002584E+04  0.16216002584E+04  0.25500000000E-02 0. -1.
         -2   -1    0    0    0  501 -0.00000000000E+00 -0.00000000000E+00 -0.18686401037E+03  0.18686401039E+03  0.25500000000E-02 0.  1.
    8880022    1    1    2    0    0 -0.34589803049E+03 -0.18717422696E+03  0.12980106974E+04  0.13648820691E+04  0.15294330000E+03 0.  0.
    8880022    1    1    2    0    0  0.34589803049E+03  0.18717422696E+03  0.13672555061E+03  0.44358219976E+03  0.15294330000E+03 0.  0.
<mgrwt>
<rscale>  0 0.42198494E+03</rscale>
<asrwt>0</asrwt>
<pdfrwt beam="1">  1        2 0.24947697E+00 0.42198494E+03</pdfrwt>
<pdfrwt beam="2">  1       -2 0.28748309E-01 0.42198494E+03</pdfrwt>
<totfact> 0.12744306E+02</totfact>
</mgrwt>
</event>
<event>
 4    1  0.5387657E-008  0.5181510E+03  0.7818608E-02  0.1009147E+00
          2   -1    0    0  501    0  0.00000000000E+00  0.00000000000E+00  0.13009797362E+04  0.13009797362E+04  0.25500000000E-02 0. -1.
         -2   -1    0    0    0  501 -0.00000000000E+00 -0.00000000000E+00 -0.22134834468E+03  0.22134834470E+03  0.25500000000E-02 0.  1.
    8880022    1    1    2    0    0  0.18344538701E+03 -0.45982231970E+03  0.73783283478E+03  0.90159731633E+03  0.15294330000E+03 0. -1.
    8880022    1    1    2    0    0 -0.18344538701E+03  0.45982231970E+03  0.34179855677E+03  0.62073076461E+03  0.15294330000E+03 0.  1.
<mgrwt>
<rscale>  0 0.51815097E+03</rscale>
<asrwt>0</asrwt>
<pdfrwt beam="1">  1        2 0.20015073E+00 0.51815097E+03</pdfrwt>
<pdfrwt beam="2">  1       -2 0.34053592E-01 0.51815097E+03</pdfrwt>
<totfact> 0.13811996E+02</totfact>
</mgrwt>
</event>
<event>
 4    1  0.5387657E-008  0.8511439E+03  0.7818608E-02  0.9488803E-01
          2   -1    0    0  501    0  0.00000000000E+00  0.00000000000E+00  0.12526926674E+04  0.12526926674E+04  0.25500000000E-02 0. -1.
         -2   -1    0    0    0  501 -0.00000000000E+00 -0.00000000000E+00 -0.63361080343E+03  0.63361080344E+03  0.25500000000E-02 0.  1.
    8880022    1    1    2    0    0  0.65250760647E+03 -0.52467904849E+03  0.58817365831E+03  0.10345985626E+04  0.15294330000E+03 0.  0.
    8880022    1    1    2    0    0 -0.65250760647E+03  0.52467904849E+03  0.30908205611E+02  0.85170490818E+03  0.15294330000E+03 0.  0.
<mgrwt>
<rscale>  0 0.85114390E+03</rscale>
<asrwt>0</asrwt>
<pdfrwt beam="1">  1        2 0.19272195E+00 0.85114390E+03</pdfrwt>
<pdfrwt beam="2">  1       -2 0.97478586E-01 0.85114390E+03</pdfrwt>
<totfact> 0.15596412E+01</totfact>
</mgrwt>
</event>
<event>
 4    1  0.5387657E-008  0.8147240E+03  0.7818608E-02  0.9538946E-01
         -2   -1    0    0    0  501 -0.00000000000E+00  0.00000000000E+00  0.26699968877E+03  0.26699968878E+03  0.25500000000E-02 0.  1.
          2   -1    0    0  501    0  0.00000000000E+00 -0.00000000000E+00 -0.31317481708E+04  0.31317481708E+04  0.25500000000E-02 0. -1.
    8880022    1    1    2    0    0  0.77902211964E+03 -0.18305217406E+03 -0.22040049615E+04  0.23497687300E+04  0.15294330000E+03 0.  0.
    8880022    1    1    2    0    0 -0.77902211964E+03  0.18305217406E+03 -0.66074352059E+03  0.10489791296E+04  0.15294330000E+03 0.  0.
<mgrwt>
<rscale>  0 0.81472401E+03</rscale>
<asrwt>0</asrwt>
<pdfrwt beam="1">  1        2 0.48180739E+00 0.81472401E+03</pdfrwt>
<pdfrwt beam="2">  1       -2 0.41076877E-01 0.81472401E+03</pdfrwt>
<totfact> 0.85109823E+00</totfact>
</mgrwt>
</event>
<event>
 4    1  0.5387657E-008  0.3524947E+03  0.7818608E-02  0.1061596E+00
          2   -1    0    0  501    0  0.00000000000E+00  0.00000000000E+00  0.44361352123E+04  0.44361352123E+04  0.25500000000E-02 0. -1.
         -2   -1    0    0    0  501 -0.00000000000E+00 -0.00000000000E+00 -0.68075424112E+02  0.68075424160E+02  0.25500000000E-02 0.  1.
    8880022    1    1    2    0    0  0.23207822707E+03  0.21679608141E+03  0.39117876440E+04  0.39276373393E+04  0.15294330000E+03 0.  0.
    8880022    1    1    2    0    0 -0.23207822707E+03 -0.21679608141E+03  0.45627214414E+03  0.57657329710E+03  0.15294330000E+03 0.  0.
<mgrwt>
<rscale>  0 0.35249468E+03</rscale>
<asrwt>0</asrwt>
<pdfrwt beam="1">  1        2 0.68248214E+00 0.35249468E+03</pdfrwt>
<pdfrwt beam="2">  1       -2 0.10473145E-01 0.35249468E+03</pdfrwt>
<totfact> 0.11498114E+01</totfact>
</mgrwt>
</event>
<event>
 4    1  0.5387657E-008  0.6683063E+03  0.7818608E-02  0.9773022E-01
         -2   -1    0    0    0  501 -0.00000000000E+00  0.00000000000E+00  0.62187694922E+03  0.62187694923E+03  0.25500000000E-02 0.  1.
          2   -1    0    0  501    0  0.00000000000E+00 -0.00000000000E+00 -0.14705008787E+04  0.14705008787E+04  0.25500000000E-02 0. -1.
    8880022    1    1    2    0    0 -0.46793357773E+02 -0.64888519066E+03 -0.11726066830E+04  0.13496813309E+04  0.15294330000E+03 0.  0.
    8880022    1    1    2    0    0  0.46793357773E+02  0.64888519066E+03  0.32398275357E+03  0.74269649697E+03  0.15294330000E+03 0.  0.
<mgrwt>
<rscale>  0 0.66830626E+03</rscale>
<asrwt>0</asrwt>
<pdfrwt beam="1">  1        2 0.22623090E+00 0.66830626E+03</pdfrwt>
<pdfrwt beam="2">  1       -2 0.95673377E-01 0.66830626E+03</pdfrwt>
<totfact> 0.12523568E+01</totfact>
</mgrwt>
</event>
<event>
 4    1  0.5387657E-008  0.4591474E+03  0.7818608E-02  0.1025029E+00
          2   -1    0    0  501    0  0.00000000000E+00  0.00000000000E+00  0.14552158996E+04  0.14552158996E+04  0.25500000000E-02 0. -1.
         -2   -1    0    0    0  501 -0.00000000000E+00 -0.00000000000E+00 -0.20953778493E+03  0.20953778495E+03  0.25500000000E-02 0.  1.
    8880022    1    1    2    0    0  0.41349572897E+03  0.12824175720E+03  0.16042111975E+03  0.48636535119E+03  0.15294330000E+03 0.  1.
    8880022    1    1    2    0    0 -0.41349572897E+03 -0.12824175720E+03  0.10852569949E+04  0.11783883334E+04  0.15294330000E+03 0. -1.
<mgrwt>
<rscale>  0 0.45914738E+03</rscale>
<asrwt>0</asrwt>
<pdfrwt beam="1">  1        2 0.22387937E+00 0.45914738E+03</pdfrwt>
<pdfrwt beam="2">  1       -2 0.32236582E-01 0.45914738E+03</pdfrwt>
<totfact> 0.12641088E+02</totfact>
</mgrwt>
</event>
<event>
 4    1  0.5387657E-008  0.2696221E+03  0.7818608E-02  0.1101496E+00
         -2   -1    0    0    0  501 -0.00000000000E+00  0.00000000000E+00  0.10383440668E+03  0.10383440671E+03  0.25500000000E-02 0.  1.
          2   -1    0    0  501    0  0.00000000000E+00 -0.00000000000E+00 -0.10696303610E+04  0.10696303610E+04  0.25500000000E-02 0. -1.
    8880022    1    1    2    0    0  0.21477184788E+03 -0.56368939445E+02 -0.13804079962E+03  0.30290480246E+03  0.15294330000E+03 0.  0.
    8880022    1    1    2    0    0 -0.21477184788E+03  0.56368939445E+02 -0.82775515471E+03  0.87055996527E+03  0.15294330000E+03 0.  0.
<mgrwt>
<rscale>  0 0.26962206E+03</rscale>
<asrwt>0</asrwt>
<pdfrwt beam="1">  1        2 0.16455851E+00 0.26962206E+03</pdfrwt>
<pdfrwt beam="2">  1       -2 0.15974525E-01 0.26962206E+03</pdfrwt>
<totfact> 0.73626897E+02</totfact>
</mgrwt>
</event>
<event>
 4    1  0.5387657E-008  0.4968937E+03  0.7818608E-02  0.1014593E+00
          2   -1    0    0  501    0  0.00000000000E+00  0.00000000000E+00  0.28567504391E+04  0.28567504391E+04  0.25500000000E-02 0. -1.
         -2   -1    0    0    0  501 -0.00000000000E+00 -0.00000000000E+00 -0.11823514515E+03  0.11823514517E+03  0.25500000000E-02 0.  1.
    8880022    1    1    2    0    0  0.61071611974E+02 -0.46880907903E+03  0.21407713306E+04  0.21976817871E+04  0.15294330000E+03 0.  0.
    8880022    1    1    2    0    0 -0.61071611974E+02  0.46880907903E+03  0.59774396333E+03  0.77730379716E+03  0.15294330000E+03 0.  0.
<mgrwt>
<rscale>  0 0.49689370E+03</rscale>
<asrwt>0</asrwt>
<pdfrwt beam="1">  1        2 0.43950006E+00 0.49689370E+03</pdfrwt>
<pdfrwt beam="2">  1       -2 0.18190023E-01 0.49689370E+03</pdfrwt>
<totfact> 0.58980229E+01</totfact>
</mgrwt>
</event>
<event>
 4    1  0.6002816E-008  0.6794325E+03  0.7818608E-02  0.9753067E-01
         -2   -1    0    0    0  501 -0.00000000000E+00  0.00000000000E+00  0.77043186642E+03  0.77043186643E+03  0.25500000000E-02 0.  1.
          2   -1    0    0  501    0  0.00000000000E+00 -0.00000000000E+00 -0.29180658391E+04  0.29180658391E+04  0.25500000000E-02 0. -1.
    8880022    1    1    2    0    0 -0.20041681901E+02 -0.66169115754E+03 -0.27178537460E+04  0.28014920123E+04  0.15294330000E+03 0.  0.
    8880022    1    1    2    0    0  0.20041681901E+02  0.66169115754E+03  0.57021977334E+03  0.88700569328E+03  0.15294330000E+03 0.  0.
<mgrwt>
<rscale>  0 0.67943249E+03</rscale>
<asrwt>0</asrwt>
<pdfrwt beam="1">  1        2 0.44893320E+00 0.67943249E+03</pdfrwt>
<pdfrwt beam="2">  1       -2 0.11852798E+00 0.67943249E+03</pdfrwt>
<totfact> 0.11609114E+00</totfact>
</mgrwt>
</event>
<event>
 4    1  0.5387657E-008  0.3276387E+03  0.7818608E-02  0.1072186E+00
          2   -1    0    0  501    0  0.00000000000E+00  0.00000000000E+00  0.37091031191E+03  0.37091031192E+03  0.25500000000E-02 0. -1.
         -2   -1    0    0    0  501 -0.00000000000E+00 -0.00000000000E+00 -0.80373339184E+03  0.80373339184E+03  0.25500000000E-02 0.  1.
    8880022    1    1    2    0    0  0.13942600074E+03 -0.25399967682E+03 -0.68623649173E+03  0.76043909756E+03  0.15294330000E+03 0.  0.
    8880022    1    1    2    0    0 -0.13942600074E+03  0.25399967682E+03  0.25341341180E+03  0.41420460620E+03  0.15294330000E+03 0.  0.
<mgrwt>
<rscale>  0 0.32763867E+03</rscale>
<asrwt>0</asrwt>
<pdfrwt beam="1">  1        2 0.57063125E-01 0.32763867E+03</pdfrwt>
<pdfrwt beam="2">  1       -2 0.12365129E+00 0.32763867E+03</pdfrwt>
<totfact> 0.44856712E+01</totfact>
</mgrwt>
</event>
<event>
 4    1  0.5387657E-008  0.2507625E+03  0.7818608E-02  0.1112824E+00
          2   -1    0    0  501    0  0.00000000000E+00  0.00000000000E+00  0.22059137565E+04  0.22059137565E+04  0.25500000000E-02 0. -1.
         -2   -1    0    0    0  501 -0.00000000000E+00 -0.00000000000E+00 -0.13864746082E+03  0.13864746084E+03  0.25500000000E-02 0.  1.
    8880022    1    1    2    0    0  0.15798160908E+03  0.12054876201E+03 -0.11209704432E+02  0.25101295449E+03  0.15294330000E+03 0.  0.
    8880022    1    1    2    0    0 -0.15798160908E+03 -0.12054876201E+03  0.20784760002E+04  0.20935482629E+04  0.15294330000E+03 0.  0.
<mgrwt>
<rscale>  0 0.25076253E+03</rscale>
<asrwt>0</asrwt>
<pdfrwt beam="1">  1        2 0.33937136E+00 0.25076253E+03</pdfrwt>
<pdfrwt beam="2">  1       -2 0.21330378E-01 0.25076253E+03</pdfrwt>
<totfact> 0.11020990E+02</totfact>
</mgrwt>
</event>
<event>
 4    1  0.5387657E-008  0.7959793E+03  0.7818608E-02  0.9565855E-01
          2   -1    0    0  501    0  0.00000000000E+00  0.00000000000E+00  0.27945454073E+04  0.27945454073E+04  0.25500000000E-02 0. -1.
         -2   -1    0    0    0  501 -0.00000000000E+00 -0.00000000000E+00 -0.49043882748E+03  0.49043882748E+03  0.25500000000E-02 0.  1.
    8880022    1    1    2    0    0 -0.73482971610E+03 -0.26498427122E+03 -0.52373344735E+02  0.79770044247E+03  0.15294330000E+03 0.  0.
    8880022    1    1    2    0    0  0.73482971610E+03  0.26498427122E+03  0.23564799246E+04  0.24872837923E+04  0.15294330000E+03 0.  0.
<mgrwt>
<rscale>  0 0.79597929E+03</rscale>
<asrwt>0</asrwt>
<pdfrwt beam="1">  1        2 0.42993006E+00 0.79597929E+03</pdfrwt>
<pdfrwt beam="2">  1       -2 0.75452128E-01 0.79597929E+03</pdfrwt>
<totfact> 0.38568266E+00</totfact>
</mgrwt>
</event>
<event>
 4    1  0.7134301E-008  0.1555421E+04  0.7818608E-02  0.8848412E-01
         -2   -1    0    0    0  501 -0.00000000000E+00  0.00000000000E+00  0.14483541115E+04  0.14483541115E+04  0.25500000000E-02 0.  1.
          2   -1    0    0  501    0  0.00000000000E+00 -0.00000000000E+00 -0.28588570281E+04  0.28588570281E+04  0.25500000000E-02 0. -1.
    8880022    1    1    2    0    0  0.15416764068E+04  0.13848496744E+03  0.68329698602E+03  0.16988910070E+04  0.15294330000E+03 0.  0.
    8880022    1    1    2    0    0 -0.15416764068E+04 -0.13848496744E+03 -0.20937999026E+04  0.26083201327E+04  0.15294330000E+03 0.  0.
<mgrwt>
<rscale>  0 0.15554214E+04</rscale>
<asrwt>0</asrwt>
<pdfrwt beam="1">  1        2 0.43982416E+00 0.15554214E+04</pdfrwt>
<pdfrwt beam="2">  1       -2 0.22282371E+00 0.15554214E+04</pdfrwt>
<totfact> 0.18862044E-01</totfact>
</mgrwt>
</event>
<event>
 4    1  0.5387657E-008  0.8135974E+03  0.7818608E-02  0.9540541E-01
         -2   -1    0    0    0  501 -0.00000000000E+00  0.00000000000E+00  0.33973310111E+03  0.33973310112E+03  0.25500000000E-02 0.  1.
          2   -1    0    0  501    0  0.00000000000E+00 -0.00000000000E+00 -0.29234650935E+04  0.29234650935E+04  0.25500000000E-02 0. -1.
    8880022    1    1    2    0    0  0.76403115181E+03  0.23410581669E+03 -0.34958995299E+03  0.88552465950E+03  0.15294330000E+03 0.  0.
    8880022    1    1    2    0    0 -0.76403115181E+03 -0.23410581669E+03 -0.22341420394E+04  0.23776735351E+04  0.15294330000E+03 0.  0.
<mgrwt>
<rscale>  0 0.81359744E+03</rscale>
<asrwt>0</asrwt>
<pdfrwt beam="1">  1        2 0.44976384E+00 0.81359744E+03</pdfrwt>
<pdfrwt beam="2">  1       -2 0.52266633E-01 0.81359744E+03</pdfrwt>
<totfact> 0.70529379E+00</totfact>
</mgrwt>
</event>
<event>
 4    1  0.5387657E-008  0.4751729E+03  0.7818608E-02  0.1020470E+00
         -2   -1    0    0    0  501 -0.00000000000E+00  0.00000000000E+00  0.58402137297E+03  0.58402137297E+03  0.25500000000E-02 0.  1.
          2   -1    0    0  501    0  0.00000000000E+00 -0.00000000000E+00 -0.10019755109E+04  0.10019755109E+04  0.25500000000E-02 0. -1.
    8880022    1    1    2    0    0 -0.41844653325E+03  0.16522763004E+03  0.41247817980E+03  0.62922775904E+03  0.15294330000E+03 0.  0.
    8880022    1    1    2    0    0  0.41844653325E+03 -0.16522763004E+03 -0.83043231777E+03  0.95676912488E+03  0.15294330000E+03 0.  0.
<mgrwt>
<rscale>  0 0.47517294E+03</rscale>
<asrwt>0</asrwt>
<pdfrwt beam="1">  1        2 0.15415008E+00 0.47517294E+03</pdfrwt>
<pdfrwt beam="2">  1       -2 0.89849442E-01 0.47517294E+03</pdfrwt>
<totfact> 0.28010639E+01</totfact>
</mgrwt>
</event>
<event>
 4    1  0.5387657E-008  0.1688650E+03  0.7818608E-02  0.1179037E+00
          2   -1    0    0  501    0  0.00000000000E+00  0.00000000000E+00  0.10572268161E+04  0.10572268161E+04  0.25500000000E-02 0. -1.
         -2   -1    0    0    0  501 -0.00000000000E+00 -0.00000000000E+00 -0.95088390359E+02  0.95088390393E+02  0.25500000000E-02 0.  1.
    8880022    1    1    2    0    0  0.58365959303E+02  0.41438544837E+02  0.96871419064E+03  0.98332221289E+03  0.15294330000E+03 0.  0.
    8880022    1    1    2    0    0 -0.58365959303E+02 -0.41438544837E+02 -0.65757648561E+01  0.16899299365E+03  0.15294330000E+03 0.  1.
<mgrwt>
<rscale>  0 0.16886501E+03</rscale>
<asrwt>0</asrwt>
<pdfrwt beam="1">  1        2 0.16265027E+00 0.16886501E+03</pdfrwt>
<pdfrwt beam="2">  1       -2 0.14628984E-01 0.16886501E+03</pdfrwt>
<totfact> 0.87172222E+02</totfact>
</mgrwt>
</event>
<event>
 4    1  0.5387657E-008  0.5779578E+03  0.7818608E-02  0.9952222E-01
          2   -1    0    0  501    0  0.00000000000E+00  0.00000000000E+00  0.75459416004E+03  0.75459416004E+03  0.25500000000E-02 0. -1.
         -2   -1    0    0    0  501 -0.00000000000E+00 -0.00000000000E+00 -0.12805672100E+04  0.12805672100E+04  0.25500000000E-02 0.  1.
    8880022    1    1    2    0    0  0.26332643042E+03 -0.49122576421E+03  0.56013389585E+03  0.80485103881E+03  0.15294330000E+03 0.  0.
    8880022    1    1    2    0    0 -0.26332643042E+03  0.49122576421E+03 -0.10861069458E+04  0.12303103312E+04  0.15294330000E+03 0.  0.
<mgrwt>
<rscale>  0 0.57795780E+03</rscale>
<asrwt>0</asrwt>
<pdfrwt beam="1">  1        2 0.11609141E+00 0.57795780E+03</pdfrwt>
<pdfrwt beam="2">  1       -2 0.19701034E+00 0.57795780E+03</pdfrwt>
<totfact> 0.54227203E+00</totfact>
</mgrwt>
</event>
<event>
 4    1  0.5387657E-008  0.5436884E+03  0.7818608E-02  0.1002965E+00
         -2   -1    0    0    0  501 -0.00000000000E+00  0.00000000000E+00  0.38284414346E+03  0.38284414347E+03  0.25500000000E-02 0.  1.
          2   -1    0    0  501    0  0.00000000000E+00 -0.00000000000E+00 -0.10259804360E+04  0.10259804360E+04  0.25500000000E-02 0. -1.
    8880022    1    1    2    0    0 -0.43221000625E+02 -0.51993982548E+03  0.28832523170E+02  0.54445242622E+03  0.15294330000E+03 0.  0.
    8880022    1    1    2    0    0  0.43221000625E+02  0.51993982548E+03 -0.67196881574E+03  0.86437215327E+03  0.15294330000E+03 0.  0.
<mgrwt>
<rscale>  0 0.54368845E+03</rscale>
<asrwt>0</asrwt>
<pdfrwt beam="1">  1        2 0.15784314E+00 0.54368845E+03</pdfrwt>
<pdfrwt beam="2">  1       -2 0.58899100E-01 0.54368845E+03</pdfrwt>
<totfact> 0.67607748E+01</totfact>
</mgrwt>
</event>
<event>
 4    1  0.5387657E-008  0.4540865E+03  0.7818608E-02  0.1026510E+00
         -2   -1    0    0    0  501 -0.00000000000E+00  0.00000000000E+00  0.78429160615E+02  0.78429160657E+02  0.25500000000E-02 0.  1.
          2   -1    0    0  501    0  0.00000000000E+00 -0.00000000000E+00 -0.33912715001E+04  0.33912715001E+04  0.25500000000E-02 0. -1.
    8880022    1    1    2    0    0 -0.33576942380E+03  0.26469191955E+03 -0.24788909061E+04  0.25201378327E+04  0.15294330000E+03 0. -1.
    8880022    1    1    2    0    0  0.33576942380E+03 -0.26469191955E+03 -0.83395143335E+03  0.94956282806E+03  0.15294330000E+03 0.  0.
<mgrwt>
<rscale>  0 0.45408652E+03</rscale>
<asrwt>0</asrwt>
<pdfrwt beam="1">  1        2 0.52173396E+00 0.45408652E+03</pdfrwt>
<pdfrwt beam="2">  1       -2 0.12066027E-01 0.45408652E+03</pdfrwt>
<totfact> 0.55300616E+01</totfact>
</mgrwt>
</event>
<event>
 4    1  0.5387657E-008  0.2873801E+03  0.7818608E-02  0.1091725E+00
         -2   -1    0    0    0  501 -0.00000000000E+00  0.00000000000E+00  0.67005912395E+03  0.67005912395E+03  0.25500000000E-02 0.  1.
          2   -1    0    0  501    0  0.00000000000E+00 -0.00000000000E+00 -0.24218183858E+04  0.24218183858E+04  0.25500000000E-02 0. -1.
    8880022    1    1    2    0    0  0.70928191759E+02 -0.23273346909E+03 -0.23819659198E+04  0.23992392486E+04  0.15294330000E+03 0.  0.
    8880022    1    1    2    0    0 -0.70928191759E+02  0.23273346909E+03  0.63020665796E+03  0.69263826112E+03  0.15294330000E+03 0.  1.
<mgrwt>
<rscale>  0 0.28738011E+03</rscale>
<asrwt>0</asrwt>
<pdfrwt beam="1">  1        2 0.37258744E+00 0.28738011E+03</pdfrwt>
<pdfrwt beam="2">  1       -2 0.10308602E+00 0.28738011E+03</pdfrwt>
<totfact> 0.35708204E+00</totfact>
</mgrwt>
</event>
<event>
 4    1  0.5387657E-008  0.9018138E+03  0.7818608E-02  0.9423317E-01
         -2   -1    0    0    0  501 -0.00000000000E+00  0.00000000000E+00  0.65367694243E+03  0.65367694243E+03  0.25500000000E-02 0.  1.
          2   -1    0    0  501    0  0.00000000000E+00 -0.00000000000E+00 -0.25284630722E+04  0.25284630722E+04  0.25500000000E-02 0. -1.
    8880022    1    1    2    0    0  0.41457840400E+03  0.78613056993E+03 -0.20713523585E+04  0.22591522242E+04  0.15294330000E+03 0.  0.
    8880022    1    1    2    0    0 -0.41457840400E+03 -0.78613056993E+03  0.19656622870E+03  0.92298779046E+03  0.15294330000E+03 0.  0.
<mgrwt>
<rscale>  0 0.90181383E+03</rscale>
<asrwt>0</asrwt>
<pdfrwt beam="1">  1        2 0.38899431E+00 0.90181383E+03</pdfrwt>
<pdfrwt beam="2">  1       -2 0.10056568E+00 0.90181383E+03</pdfrwt>
<totfact> 0.27965570E+00</totfact>
</mgrwt>
</event>
<event>
 4    1  0.5387657E-008  0.3023191E+03  0.7818608E-02  0.1084087E+00
         -2   -1    0    0    0  501 -0.00000000000E+00  0.00000000000E+00  0.11642637203E+03  0.11642637206E+03  0.25500000000E-02 0.  1.
          2   -1    0    0  501    0  0.00000000000E+00 -0.00000000000E+00 -0.51103380001E+04  0.51103380001E+04  0.25500000000E-02 0. -1.
    8880022    1    1    2    0    0 -0.13834882021E+03  0.22105381169E+03 -0.49012478539E+04  0.49105628355E+04  0.15294330000E+03 0.  0.
    8880022    1    1    2    0    0  0.13834882021E+03 -0.22105381169E+03 -0.92663774239E+02  0.31620153666E+03  0.15294330000E+03 0.  0.
<mgrwt>
<rscale>  0 0.30231910E+03</rscale>
<asrwt>0</asrwt>
<pdfrwt beam="1">  1        2 0.78620567E+00 0.30231910E+03</pdfrwt>
<pdfrwt beam="2">  1       -2 0.17911754E-01 0.30231910E+03</pdfrwt>
<totfact> 0.92156249E-01</totfact>
</mgrwt>
</event>
<event>
 4    1  0.5387657E-008  0.2960879E+03  0.7818608E-02  0.1087213E+00
         -2   -1    0    0    0  501 -0.00000000000E+00  0.00000000000E+00  0.12892024362E+03  0.12892024365E+03  0.25500000000E-02 0.  1.
          2   -1    0    0  501    0  0.00000000000E+00 -0.00000000000E+00 -0.10872544594E+04  0.10872544594E+04  0.25500000000E-02 0. -1.
    8880022    1    1    2    0    0  0.25200480635E+03 -0.27748833087E+02 -0.85132201655E+03  0.90134191573E+03  0.15294330000E+03 0.  0.
    8880022    1    1    2    0    0 -0.25200480635E+03  0.27748833087E+02 -0.10701219919E+03  0.31483278729E+03  0.15294330000E+03 0.  1.
<mgrwt>
<rscale>  0 0.29608795E+03</rscale>
<asrwt>0</asrwt>
<pdfrwt beam="1">  1        2 0.16726991E+00 0.29608795E+03</pdfrwt>
<pdfrwt beam="2">  1       -2 0.19833884E-01 0.29608795E+03</pdfrwt>
<totfact> 0.49711119E+02</totfact>
</mgrwt>
</event>
<event>
 4    1  0.5387657E-008  0.4741716E+03  0.7818608E-02  0.1020749E+00
         -2   -1    0    0    0  501 -0.00000000000E+00  0.00000000000E+00  0.53136549549E+03  0.53136549549E+03  0.25500000000E-02 0.  1.
          2   -1    0    0  501    0  0.00000000000E+00 -0.00000000000E+00 -0.57985860349E+03  0.57985860349E+03  0.25500000000E-02 0. -1.
    8880022    1    1    2    0    0  0.26732404050E+03  0.36053423208E+03  0.26460812046E+03  0.54300661650E+03  0.15294330000E+03 0.  0.
    8880022    1    1    2    0    0 -0.26732404050E+03 -0.36053423208E+03 -0.31310122846E+03  0.56821748249E+03  0.15294330000E+03 0. -1.
<mgrwt>
<rscale>  0 0.47417162E+03</rscale>
<asrwt>0</asrwt>
<pdfrwt beam="1">  1        2 0.89209016E-01 0.47417162E+03</pdfrwt>
<pdfrwt beam="2">  1       -2 0.81748538E-01 0.47417162E+03</pdfrwt>
<totfact> 0.70358086E+01</totfact>
</mgrwt>
</event>
<event>
 4    1  0.5387657E-008  0.1155822E+04  0.7818608E-02  0.9152429E-01
         -2   -1    0    0    0  501 -0.00000000000E+00  0.00000000000E+00  0.69483958859E+03  0.69483958860E+03  0.25500000000E-02 0.  1.
          2   -1    0    0  501    0  0.00000000000E+00 -0.00000000000E+00 -0.20759745475E+04  0.20759745475E+04  0.25500000000E-02 0. -1.
    8880022    1    1    2    0    0 -0.22063919709E+03  0.11242116124E+04 -0.31404656643E+03  0.11977271407E+04  0.15294330000E+03 0.  0.
    8880022    1    1    2    0    0  0.22063919709E+03 -0.11242116124E+04 -0.10670883925E+04  0.15730869954E+04  0.15294330000E+03 0.  0.
<mgrwt>
<rscale>  0 0.11558222E+04</rscale>
<asrwt>0</asrwt>
<pdfrwt beam="1">  1        2 0.31938070E+00 0.11558222E+04</pdfrwt>
<pdfrwt beam="2">  1       -2 0.10689840E+00 0.11558222E+04</pdfrwt>
<totfact> 0.41945970E+00</totfact>
</mgrwt>
</event>
<event>
 4    1  0.5387657E-008  0.5707555E+03  0.7818608E-02  0.9968008E-01
         -2   -1    0    0    0  501 -0.00000000000E+00  0.00000000000E+00  0.16895324882E+03  0.16895324884E+03  0.25500000000E-02 0.  1.
          2   -1    0    0  501    0  0.00000000000E+00 -0.00000000000E+00 -0.24178944985E+04  0.24178944985E+04  0.25500000000E-02 0. -1.
    8880022    1    1    2    0    0 -0.50914634443E+03  0.20770203127E+03 -0.54233898395E+03  0.78733306825E+03  0.15294330000E+03 0.  0.
    8880022    1    1    2    0    0  0.50914634443E+03 -0.20770203127E+03 -0.17066022657E+04  0.17995146791E+04  0.15294330000E+03 0.  0.
<mgrwt>
<rscale>  0 0.57075545E+03</rscale>
<asrwt>0</asrwt>
<pdfrwt beam="1">  1        2 0.37198374E+00 0.57075545E+03</pdfrwt>
<pdfrwt beam="2">  1       -2 0.25992809E-01 0.57075545E+03</pdfrwt>
<totfact> 0.55291980E+01</totfact>
</mgrwt>
</event>
<event>
 4    1  0.5387657E-008  0.3401292E+03  0.7818608E-02  0.1066741E+00
         -2   -1    0    0    0  501 -0.00000000000E+00  0.00000000000E+00  0.53596479203E+03  0.53596479204E+03  0.25500000000E-02 0.  1.
          2   -1    0    0  501    0  0.00000000000E+00 -0.00000000000E+00 -0.24606972121E+04  0.24606972121E+04  0.25500000000E-02 0. -1.
    8880022    1    1    2    0    0  0.29978901547E+03  0.49221681209E+02  0.46874074516E+03  0.57914226826E+03  0.15294330000E+03 0.  0.
    8880022    1    1    2    0    0 -0.29978901547E+03 -0.49221681209E+02 -0.23934731652E+04  0.24175197359E+04  0.15294330000E+03 0.  0.
<mgrwt>
<rscale>  0 0.34012921E+03</rscale>
<asrwt>0</asrwt>
<pdfrwt beam="1">  1        2 0.37856880E+00 0.34012921E+03</pdfrwt>
<pdfrwt beam="2">  1       -2 0.82456123E-01 0.34012921E+03</pdfrwt>
<totfact> 0.55348830E+00</totfact>
</mgrwt>
</event>
<event>
 4    1  0.5387657E-008  0.6682325E+03  0.7818608E-02  0.9773156E-01
          2   -1    0    0  501    0  0.00000000000E+00  0.00000000000E+00  0.18967272497E+04  0.18967272497E+04  0.25500000000E-02 0. -1.
         -2   -1    0    0    0  501 -0.00000000000E+00 -0.00000000000E+00 -0.24023256802E+03  0.24023256804E+03  0.25500000000E-02 0.  1.
    8880022    1    1    2    0    0  0.88754904346E+02 -0.64441101311E+03  0.97941874159E+03  0.11856625621E+04  0.15294330000E+03 0.  0.
    8880022    1    1    2    0    0 -0.88754904346E+02  0.64441101311E+03  0.67707594009E+03  0.95129725560E+03  0.15294330000E+03 0.  0.
<mgrwt>
<rscale>  0 0.66823247E+03</rscale>
<asrwt>0</asrwt>
<pdfrwt beam="1">  1        2 0.29180418E+00 0.66823247E+03</pdfrwt>
<pdfrwt beam="2">  1       -2 0.36958858E-01 0.66823247E+03</pdfrwt>
<totfact> 0.54598386E+01</totfact>
</mgrwt>
</event>
<event>
 4    1  0.5387657E-008  0.5299420E+03  0.7818608E-02  0.1006246E+00
          2   -1    0    0  501    0  0.00000000000E+00  0.00000000000E+00  0.18840532028E+04  0.18840532028E+04  0.25500000000E-02 0. -1.
         -2   -1    0    0    0  501 -0.00000000000E+00 -0.00000000000E+00 -0.25051539349E+03  0.25051539350E+03  0.25500000000E-02 0.  1.
    8880022    1    1    2    0    0  0.14224249719E+03 -0.48704611512E+03  0.14959705738E+04  0.15870622095E+04  0.15294330000E+03 0.  0.
    8880022    1    1    2    0    0 -0.14224249719E+03  0.48704611512E+03  0.13756723553E+03  0.54750638679E+03  0.15294330000E+03 0.  0.
<mgrwt>
<rscale>  0 0.52994198E+03</rscale>
<asrwt>0</asrwt>
<pdfrwt beam="1">  1        2 0.28985434E+00 0.52994198E+03</pdfrwt>
<pdfrwt beam="2">  1       -2 0.38540830E-01 0.52994198E+03</pdfrwt>
<totfact> 0.52218608E+01</totfact>
</mgrwt>
</event>
<event>
 4    1  0.5387657E-008  0.2664889E+03  0.7818608E-02  0.1103306E+00
          2   -1    0    0  501    0  0.00000000000E+00  0.00000000000E+00  0.16019506512E+04  0.16019506512E+04  0.25500000000E-02 0. -1.
         -2   -1    0    0    0  501 -0.00000000000E+00 -0.00000000000E+00 -0.80879296757E+02  0.80879296797E+02  0.25500000000E-02 0.  1.
    8880022    1    1    2    0    0 -0.14179707465E+03 -0.16588624451E+03  0.19491633503E+03  0.33016463647E+03  0.15294330000E+03 0.  0.
    8880022    1    1    2    0    0  0.14179707465E+03  0.16588624451E+03  0.13261550194E+04  0.13526653115E+04  0.15294330000E+03 0.  0.
<mgrwt>
<rscale>  0 0.26648885E+03</rscale>
<asrwt>0</asrwt>
<pdfrwt beam="1">  1        2 0.24645394E+00 0.26648885E+03</pdfrwt>
<pdfrwt beam="2">  1       -2 0.12442969E-01 0.26648885E+03</pdfrwt>
<totfact> 0.56315613E+02</totfact>
</mgrwt>
</event>
<event>
 4    1  0.5387657E-008  0.7732367E+03  0.7818608E-02  0.9599585E-01
          2   -1    0    0  501    0  0.00000000000E+00  0.00000000000E+00  0.41025163777E+03  0.41025163778E+03  0.25500000000E-02 0. -1.
         -2   -1    0    0    0  501 -0.00000000000E+00 -0.00000000000E+00 -0.22311396035E+04  0.22311396036E+04  0.25500000000E-02 0.  1.
    8880022    1    1    2    0    0  0.73694335693E+03  0.17725077213E+03 -0.16881952057E+04  0.18568516508E+04  0.15294330000E+03 0.  0.
    8880022    1    1    2    0    0 -0.73694335693E+03 -0.17725077213E+03 -0.13269276011E+03  0.78453959055E+03  0.15294330000E+03 0.  0.
<mgrwt>
<rscale>  0 0.77323670E+03</rscale>
<asrwt>0</asrwt>
<pdfrwt beam="1">  1        2 0.63115638E-01 0.77323670E+03</pdfrwt>
<pdfrwt beam="2">  1       -2 0.34325224E+00 0.77323670E+03</pdfrwt>
<totfact> 0.13889944E+00</totfact>
</mgrwt>
</event>
<event>
 4    1  0.5387657E-008  0.1010180E+04  0.7818608E-02  0.9297449E-01
          2   -1    0    0  501    0  0.00000000000E+00  0.00000000000E+00  0.26183294087E+04  0.26183294087E+04  0.25500000000E-02 0. -1.
         -2   -1    0    0    0  501 -0.00000000000E+00 -0.00000000000E+00 -0.74670740588E+03  0.74670740588E+03  0.25500000000E-02 0.  1.
    8880022    1    1    2    0    0  0.15534213795E+03 -0.98637800009E+03 -0.22751020745E+03  0.10354831174E+04  0.15294330000E+03 0.  0.
    8880022    1    1    2    0    0 -0.15534213795E+03  0.98637800009E+03  0.20991322102E+04  0.23295536972E+04  0.15294330000E+03 0.  0.
<mgrwt>
<rscale>  0 0.10101804E+04</rscale>
<asrwt>0</asrwt>
<pdfrwt beam="1">  1        2 0.40281991E+00 0.10101804E+04</pdfrwt>
<pdfrwt beam="2">  1       -2 0.11487806E+00 0.10101804E+04</pdfrwt>
<totfact> 0.17694990E+00</totfact>
</mgrwt>
</event>
<event>
 4    1  0.5387657E-008  0.3373299E+03  0.7818608E-02  0.1067939E+00
         -2   -1    0    0    0  501 -0.00000000000E+00  0.00000000000E+00  0.12095187899E+03  0.12095187902E+03  0.25500000000E-02 0.  1.
          2   -1    0    0  501    0  0.00000000000E+00 -0.00000000000E+00 -0.30816504521E+04  0.30816504521E+04  0.25500000000E-02 0. -1.
    8880022    1    1    2    0    0  0.25171142832E+03 -0.16444205339E+03 -0.28150212364E+04  0.28351606738E+04  0.15294330000E+03 0.  0.
    8880022    1    1    2    0    0 -0.25171142832E+03  0.16444205339E+03 -0.14567733672E+03  0.36744165730E+03  0.15294330000E+03 0.  1.
<mgrwt>
<rscale>  0 0.33732994E+03</rscale>
<asrwt>0</asrwt>
<pdfrwt beam="1">  1        2 0.47410001E+00 0.33732994E+03</pdfrwt>
<pdfrwt beam="2">  1       -2 0.18607984E-01 0.33732994E+03</pdfrwt>
<totfact> 0.43467924E+01</totfact>
</mgrwt>
</event>
<event>
 4    1  0.5387657E-008  0.1357792E+04  0.7818608E-02  0.8984950E-01
          2   -1    0    0  501    0  0.00000000000E+00  0.00000000000E+00  0.11137244626E+04  0.11137244626E+04  0.25500000000E-02 0. -1.
         -2   -1    0    0    0  501 -0.00000000000E+00 -0.00000000000E+00 -0.22384610138E+04  0.22384610138E+04  0.25500000000E-02 0.  1.
    8880022    1    1    2    0    0 -0.13070733706E+04 -0.33431674043E+03 -0.14178290923E+04  0.19631198301E+04  0.15294330000E+03 0.  0.
    8880022    1    1    2    0    0  0.13070733706E+04  0.33431674043E+03  0.29309254116E+03  0.13890656463E+04  0.15294330000E+03 0.  0.
<mgrwt>
<rscale>  0 0.13577924E+04</rscale>
<asrwt>0</asrwt>
<pdfrwt beam="1">  1        2 0.17134223E+00 0.13577924E+04</pdfrwt>
<pdfrwt beam="2">  1       -2 0.34437862E+00 0.13577924E+04</pdfrwt>
<totfact> 0.34699208E-01</totfact>
</mgrwt>
</event>
<event>
 4    1  0.5387657E-008  0.3541177E+03  0.7818608E-02  0.1060938E+00
          2   -1    0    0  501    0  0.00000000000E+00  0.00000000000E+00  0.37566114760E+04  0.37566114760E+04  0.25500000000E-02 0. -1.
         -2   -1    0    0    0  501 -0.00000000000E+00 -0.00000000000E+00 -0.69594201888E+02  0.69594201935E+02  0.25500000000E-02 0.  1.
    8880022    1    1    2    0    0  0.12931293921E+03  0.29203739128E+03  0.32235288331E+04  0.32429211315E+04  0.15294330000E+03 0.  0.
    8880022    1    1    2    0    0 -0.12931293921E+03 -0.29203739128E+03  0.46348844095E+03  0.58328454639E+03  0.15294330000E+03 0.  1.
<mgrwt>
<rscale>  0 0.35411767E+03</rscale>
<asrwt>0</asrwt>
<pdfrwt beam="1">  1        2 0.57794011E+00 0.35411767E+03</pdfrwt>
<pdfrwt beam="2">  1       -2 0.10706803E-01 0.35411767E+03</pdfrwt>
<totfact> 0.38952868E+01</totfact>
</mgrwt>
</event>
<event>
 4    1  0.5387657E-008  0.4863173E+03  0.7818608E-02  0.1017413E+00
         -2   -1    0    0    0  501 -0.00000000000E+00  0.00000000000E+00  0.58117569675E+03  0.58117569675E+03  0.25500000000E-02 0.  1.
          2   -1    0    0  501    0  0.00000000000E+00 -0.00000000000E+00 -0.57200944151E+03  0.57200944152E+03  0.25500000000E-02 0. -1.
    8880022    1    1    2    0    0 -0.45697985058E+03 -0.65438815198E+02  0.31432426452E+03  0.57905459039E+03  0.15294330000E+03 0.  0.
    8880022    1    1    2    0    0  0.45697985058E+03  0.65438815198E+02 -0.30515800928E+03  0.57413054788E+03  0.15294330000E+03 0.  0.
<mgrwt>
<rscale>  0 0.48631726E+03</rscale>
<asrwt>0</asrwt>
<pdfrwt beam="1">  1        2 0.88001453E-01 0.48631726E+03</pdfrwt>
<pdfrwt beam="2">  1       -2 0.89411645E-01 0.48631726E+03</pdfrwt>
<totfact> 0.58291044E+01</totfact>
</mgrwt>
</event>
<event>
 4    1  0.5387657E-008  0.4136764E+03  0.7818608E-02  0.1039144E+00
          2   -1    0    0  501    0  0.00000000000E+00  0.00000000000E+00  0.99371814106E+03  0.99371814106E+03  0.25500000000E-02 0. -1.
         -2   -1    0    0    0  501 -0.00000000000E+00 -0.00000000000E+00 -0.19867170902E+03  0.19867170904E+03  0.25500000000E-02 0.  1.
    8880022    1    1    2    0    0 -0.74758668599E+02  0.37702475580E+03  0.61510843835E+03  0.74127361275E+03  0.15294330000E+03 0.  0.
    8880022    1    1    2    0    0  0.74758668599E+02 -0.37702475580E+03  0.17993799368E+03  0.45111623735E+03  0.15294330000E+03 0.  0.
<mgrwt>
<rscale>  0 0.41367642E+03</rscale>
<asrwt>0</asrwt>
<pdfrwt beam="1">  1        2 0.15287971E+00 0.41367642E+03</pdfrwt>
<pdfrwt beam="2">  1       -2 0.30564878E-01 0.41367642E+03</pdfrwt>
<totfact> 0.25992665E+02</totfact>
</mgrwt>
</event>
<event>
 4    1  0.5387657E-008  0.1455560E+04  0.7818608E-02  0.8914555E-01
         -2   -1    0    0    0  501 -0.00000000000E+00  0.00000000000E+00  0.78973239658E+03  0.78973239658E+03  0.25500000000E-02 0.  1.
          2   -1    0    0  501    0  0.00000000000E+00 -0.00000000000E+00 -0.27893920263E+04  0.27893920263E+04  0.25500000000E-02 0. -1.
    8880022    1    1    2    0    0  0.13931595130E+04 -0.39289934567E+03 -0.64992073637E+03  0.15940677341E+04  0.15294330000E+03 0.  0.
    8880022    1    1    2    0    0 -0.13931595130E+04  0.39289934567E+03 -0.13497388934E+04  0.19850566888E+04  0.15294330000E+03 0.  0.
<mgrwt>
<rscale>  0 0.14555600E+04</rscale>
<asrwt>0</asrwt>
<pdfrwt beam="1">  1        2 0.42913723E+00 0.14555600E+04</pdfrwt>
<pdfrwt beam="2">  1       -2 0.12149729E+00 0.14555600E+04</pdfrwt>
<totfact> 0.11542636E+00</totfact>
</mgrwt>
</event>
<event>
 4    1  0.5387657E-008  0.6793014E+03  0.7818608E-02  0.9753299E-01
          2   -1    0    0  501    0  0.00000000000E+00  0.00000000000E+00  0.20694292883E+04  0.20694292883E+04  0.25500000000E-02 0. -1.
         -2   -1    0    0    0  501 -0.00000000000E+00 -0.00000000000E+00 -0.86626662920E+03  0.86626662920E+03  0.25500000000E-02 0.  1.
    8880022    1    1    2    0    0 -0.32442008173E+03 -0.57689712402E+03  0.18664809917E+04  0.19862531628E+04  0.15294330000E+03 0.  0.
    8880022    1    1    2    0    0  0.32442008173E+03  0.57689712402E+03 -0.66331833261E+03  0.94944275474E+03  0.15294330000E+03 0.  0.
<mgrwt>
<rscale>  0 0.67930136E+03</rscale>
<asrwt>0</asrwt>
<pdfrwt beam="1">  1        2 0.31837373E+00 0.67930136E+03</pdfrwt>
<pdfrwt beam="2">  1       -2 0.13327179E+00 0.67930136E+03</pdfrwt>
<totfact> 0.26236290E+00</totfact>
</mgrwt>
</event>
<event>
 4    1  0.5387657E-008  0.5800456E+03  0.7818608E-02  0.9947692E-01
          2   -1    0    0  501    0  0.00000000000E+00  0.00000000000E+00  0.17370006205E+04  0.17370006205E+04  0.25500000000E-02 0. -1.
         -2   -1    0    0    0  501 -0.00000000000E+00 -0.00000000000E+00 -0.27314854251E+03  0.27314854252E+03  0.25500000000E-02 0.  1.
    8880022    1    1    2    0    0 -0.38148295994E+03  0.40930667426E+03  0.12739872944E+04  0.13998201604E+04  0.15294330000E+03 0.  0.
    8880022    1    1    2    0    0  0.38148295994E+03 -0.40930667426E+03  0.18986478360E+03  0.61032900257E+03  0.15294330000E+03 0.  0.
<mgrwt>
<rscale>  0 0.58004556E+03</rscale>
<asrwt>0</asrwt>
<pdfrwt beam="1">  1        2 0.26723087E+00 0.58004556E+03</pdfrwt>
<pdfrwt beam="2">  1       -2 0.42022852E-01 0.58004556E+03</pdfrwt>
<totfact> 0.52580583E+01</totfact>
</mgrwt>
</event>
<event>
 4    1  0.5387657E-008  0.1337701E+04  0.7818608E-02  0.9000190E-01
         -2   -1    0    0    0  501 -0.00000000000E+00  0.00000000000E+00  0.23919995866E+04  0.23919995866E+04  0.25500000000E-02 0.  1.
          2   -1    0    0  501    0  0.00000000000E+00 -0.00000000000E+00 -0.12112796211E+04  0.12112796211E+04  0.25500000000E-02 0. -1.
    8880022    1    1    2    0    0  0.12881193353E+04 -0.32680606320E+03 -0.52373526126E+03  0.14365736674E+04  0.15294330000E+03 0.  0.
    8880022    1    1    2    0    0 -0.12881193353E+04  0.32680606320E+03  0.17044552267E+04  0.21667055402E+04  0.15294330000E+03 0.  0.
<mgrwt>
<rscale>  0 0.13377015E+04</rscale>
<asrwt>0</asrwt>
<pdfrwt beam="1">  1        2 0.18635071E+00 0.13377015E+04</pdfrwt>
<pdfrwt beam="2">  1       -2 0.36799994E+00 0.13377015E+04</pdfrwt>
<totfact> 0.21509048E-01</totfact>
</mgrwt>
</event>
<event>
 4    1  0.5387657E-008  0.1009707E+04  0.7818608E-02  0.9297962E-01
          2   -1    0    0  501    0  0.00000000000E+00  0.00000000000E+00  0.16770744333E+04  0.16770744334E+04  0.25500000000E-02 0. -1.
         -2   -1    0    0    0  501 -0.00000000000E+00 -0.00000000000E+00 -0.68168795036E+03  0.68168795037E+03  0.25500000000E-02 0.  1.
    8880022    1    1    2    0    0 -0.99660997873E+03  0.53709046644E+02  0.10969552942E+03  0.10156480067E+04  0.15294330000E+03 0.  0.
    8880022    1    1    2    0    0  0.99660997873E+03 -0.53709046644E+02  0.88569095357E+03  0.13431143770E+04  0.15294330000E+03 0.  0.
<mgrwt>
<rscale>  0 0.10097068E+04</rscale>
<asrwt>0</asrwt>
<pdfrwt beam="1">  1        2 0.25801145E+00 0.10097068E+04</pdfrwt>
<pdfrwt beam="2">  1       -2 0.10487507E+00 0.10097068E+04</pdfrwt>
<totfact> 0.74114814E+00</totfact>
</mgrwt>
</event>
<event>
 4    1  0.5387657E-008  0.6506304E+03  0.7818608E-02  0.9805597E-01
         -2   -1    0    0    0  501 -0.00000000000E+00  0.00000000000E+00  0.61360704763E+03  0.61360704764E+03  0.25500000000E-02 0.  1.
          2   -1    0    0  501    0  0.00000000000E+00 -0.00000000000E+00 -0.19185118774E+04  0.19185118774E+04  0.25500000000E-02 0. -1.
    8880022    1    1    2    0    0 -0.19134668408E+03 -0.60275588687E+03  0.36071546186E+03  0.74393246340E+03  0.15294330000E+03 0.  0.
    8880022    1    1    2    0    0  0.19134668408E+03  0.60275588687E+03 -0.16656202916E+04  0.17881864616E+04  0.15294330000E+03 0.  0.
<mgrwt>
<rscale>  0 0.65063036E+03</rscale>
<asrwt>0</asrwt>
<pdfrwt beam="1">  1        2 0.29515567E+00 0.65063036E+03</pdfrwt>
<pdfrwt beam="2">  1       -2 0.94401085E-01 0.65063036E+03</pdfrwt>
<totfact> 0.73731721E+00</totfact>
</mgrwt>
</event>
<event>
 4    1  0.5387657E-008  0.3826686E+03  0.7818608E-02  0.1049952E+00
         -2   -1    0    0    0  501 -0.00000000000E+00  0.00000000000E+00  0.41359854370E+03  0.41359854371E+03  0.25500000000E-02 0.  1.
          2   -1    0    0  501    0  0.00000000000E+00 -0.00000000000E+00 -0.70941974805E+03  0.70941974806E+03  0.25500000000E-02 0. -1.
    8880022    1    1    2    0    0 -0.33169290458E+03 -0.11412029469E+03  0.24950450400E+03  0.45682357113E+03  0.15294330000E+03 0.  0.
    8880022    1    1    2    0    0  0.33169290458E+03  0.11412029469E+03 -0.54532570835E+03  0.66619472064E+03  0.15294330000E+03 0.  0.
<mgrwt>
<rscale>  0 0.38266863E+03</rscale>
<asrwt>0</asrwt>
<pdfrwt beam="1">  1        2 0.10914150E+00 0.38266863E+03</pdfrwt>
<pdfrwt beam="2">  1       -2 0.63630545E-01 0.38266863E+03</pdfrwt>
<totfact> 0.96151251E+01</totfact>
</mgrwt>
</event>
<event>
 4    1  0.5387657E-008  0.5242415E+03  0.7818608E-02  0.1007638E+00
         -2   -1    0    0    0  501 -0.00000000000E+00  0.00000000000E+00  0.38522601159E+03  0.38522601160E+03  0.25500000000E-02 0.  1.
          2   -1    0    0  501    0  0.00000000000E+00 -0.00000000000E+00 -0.12789071901E+04  0.12789071901E+04  0.25500000000E-02 0. -1.
    8880022    1    1    2    0    0  0.18575042817E+03 -0.46576199900E+03 -0.10001254559E+04  0.11291944216E+04  0.15294330000E+03 0. -1.
    8880022    1    1    2    0    0 -0.18575042817E+03  0.46576199900E+03  0.10644427735E+03  0.53493878011E+03  0.15294330000E+03 0.  1.
<mgrwt>
<rscale>  0 0.52424147E+03</rscale>
<asrwt>0</asrwt>
<pdfrwt beam="1">  1        2 0.19675495E+00 0.52424147E+03</pdfrwt>
<pdfrwt beam="2">  1       -2 0.59265541E-01 0.52424147E+03</pdfrwt>
<totfact> 0.47306846E+01</totfact>
</mgrwt>
</event>
<event>
 4    1  0.5387657E-008  0.2563192E+04  0.7818608E-02  0.8380812E-01
          2   -1    0    0  501    0  0.00000000000E+00  0.00000000000E+00  0.38803780452E+04  0.38803780452E+04  0.25500000000E-02 0. -1.
         -2   -1    0    0    0  501 -0.00000000000E+00 -0.00000000000E+00 -0.20127286109E+04  0.20127286109E+04  0.25500000000E-02 0.  1.
    8880022    1    1    2    0    0 -0.25155874643E+04  0.46731526648E+03  0.21079899341E+04  0.33186709786E+04  0.15294330000E+03 0.  0.
    8880022    1    1    2    0    0  0.25155874643E+04 -0.46731526648E+03 -0.24034049979E+03  0.25744356775E+04  0.15294330000E+03 0.  0.
<mgrwt>
<rscale>  0 0.25631924E+04</rscale>
<asrwt>0</asrwt>
<pdfrwt beam="1">  1        2 0.59698123E+00 0.25631924E+04</pdfrwt>
<pdfrwt beam="2">  1       -2 0.30965056E+00 0.25631924E+04</pdfrwt>
<totfact> 0.98378184E-03</totfact>
</mgrwt>
</event>
<event>
 4    1  0.5387657E-008  0.3964848E+03  0.7818608E-02  0.1045004E+00
         -2   -1    0    0    0  501 -0.00000000000E+00  0.00000000000E+00  0.95761273612E+03  0.95761273612E+03  0.25500000000E-02 0.  1.
          2   -1    0    0  501    0  0.00000000000E+00 -0.00000000000E+00 -0.41033934035E+03  0.41033934036E+03  0.25500000000E-02 0. -1.
    8880022    1    1    2    0    0  0.19968340812E+03 -0.30648835795E+03  0.80341781088E+03  0.89592433212E+03  0.15294330000E+03 0.  0.
    8880022    1    1    2    0    0 -0.19968340812E+03  0.30648835795E+03 -0.25614441511E+03  0.47202774436E+03  0.15294330000E+03 0.  0.
<mgrwt>
<rscale>  0 0.39648484E+03</rscale>
<asrwt>0</asrwt>
<pdfrwt beam="1">  1        2 0.63129129E-01 0.39648484E+03</pdfrwt>
<pdfrwt beam="2">  1       -2 0.14732504E+00 0.39648484E+03</pdfrwt>
<totfact> 0.25523223E+01</totfact>
</mgrwt>
</event>
<event>
 4    1  0.5387657E-008  0.8646196E+03  0.7818608E-02  0.9470922E-01
         -2   -1    0    0    0  501 -0.00000000000E+00  0.00000000000E+00  0.90181699963E+03  0.90181699963E+03  0.25500000000E-02 0.  1.
          2   -1    0    0  501    0  0.00000000000E+00 -0.00000000000E+00 -0.83834286115E+03  0.83834286115E+03  0.25500000000E-02 0. -1.
    8880022    1    1    2    0    0 -0.82661295522E+03  0.20220378580E+03 -0.60328773734E+02  0.86672173314E+03  0.15294330000E+03 0.  0.
    8880022    1    1    2    0    0  0.82661295522E+03 -0.20220378580E+03  0.12380291221E+03  0.87343812765E+03  0.15294330000E+03 0. -1.
<mgrwt>
<rscale>  0 0.86461957E+03</rscale>
<asrwt>0</asrwt>
<pdfrwt beam="1">  1        2 0.12897583E+00 0.86461957E+03</pdfrwt>
<pdfrwt beam="2">  1       -2 0.13874108E+00 0.86461957E+03</pdfrwt>
<totfact> 0.11939550E+01</totfact>
</mgrwt>
</event>
<event>
 4    1  0.5387657E-008  0.3386586E+03  0.7818608E-02  0.1067369E+00
         -2   -1    0    0    0  501 -0.00000000000E+00  0.00000000000E+00  0.23374771818E+03  0.23374771819E+03  0.25500000000E-02 0.  1.
          2   -1    0    0  501    0  0.00000000000E+00 -0.00000000000E+00 -0.80420653637E+03  0.80420653637E+03  0.25500000000E-02 0. -1.
    8880022    1    1    2    0    0 -0.25173566483E+03 -0.16711416876E+03  0.38825362547E+02  0.34087688707E+03  0.15294330000E+03 0.  0.
    8880022    1    1    2    0    0  0.25173566483E+03  0.16711416876E+03 -0.60928418074E+03  0.69707736749E+03  0.15294330000E+03 0.  0.
<mgrwt>
<rscale>  0 0.33865859E+03</rscale>
<asrwt>0</asrwt>
<pdfrwt beam="1">  1        2 0.12372408E+00 0.33865859E+03</pdfrwt>
<pdfrwt beam="2">  1       -2 0.35961188E-01 0.33865859E+03</pdfrwt>
<totfact> 0.25767281E+02</totfact>
</mgrwt>
</event>
<event>
 4    1  0.5387657E-008  0.9998933E+03  0.7818608E-02  0.9308662E-01
         -2   -1    0    0    0  501 -0.00000000000E+00  0.00000000000E+00  0.91185462862E+03  0.91185462863E+03  0.25500000000E-02 0.  1.
          2   -1    0    0  501    0  0.00000000000E+00 -0.00000000000E+00 -0.14354666412E+04  0.14354666412E+04  0.25500000000E-02 0. -1.
    8880022    1    1    2    0    0  0.92527334836E+03  0.34679122596E+03  0.30857891504E+03  0.10464260716E+04  0.15294330000E+03 0.  0.
    8880022    1    1    2    0    0 -0.92527334836E+03 -0.34679122596E+03 -0.83219092759E+03  0.13008951982E+04  0.15294330000E+03 0.  0.
<mgrwt>
<rscale>  0 0.99989328E+03</rscale>
<asrwt>0</asrwt>
<pdfrwt beam="1">  1        2 0.22084102E+00 0.99989328E+03</pdfrwt>
<pdfrwt beam="2">  1       -2 0.14028533E+00 0.99989328E+03</pdfrwt>
<totfact> 0.48975935E+00</totfact>
</mgrwt>
</event>
<event>
 4    1  0.5387657E-008  0.6179662E+03  0.7818608E-02  0.9868817E-01
         -2   -1    0    0    0  501 -0.00000000000E+00  0.00000000000E+00  0.34615868082E+03  0.34615868083E+03  0.25500000000E-02 0.  1.
          2   -1    0    0  501    0  0.00000000000E+00 -0.00000000000E+00 -0.16958885724E+04  0.16958885725E+04  0.25500000000E-02 0. -1.
    8880022    1    1    2    0    0 -0.45206950695E+03  0.39258597788E+03 -0.12784666082E+04  0.14199856022E+04  0.15294330000E+03 0.  0.
    8880022    1    1    2    0    0  0.45206950695E+03 -0.39258597788E+03 -0.71263283395E+02  0.62206165106E+03  0.15294330000E+03 0.  0.
<mgrwt>
<rscale>  0 0.61796621E+03</rscale>
<asrwt>0</asrwt>
<pdfrwt beam="1">  1        2 0.26090593E+00 0.61796621E+03</pdfrwt>
<pdfrwt beam="2">  1       -2 0.53255183E-01 0.61796621E+03</pdfrwt>
<totfact> 0.34220243E+01</totfact>
</mgrwt>
</event>
<event>
 4    1  0.5387657E-008  0.3259715E+03  0.7818608E-02  0.1072933E+00
         -2   -1    0    0    0  501 -0.00000000000E+00  0.00000000000E+00  0.72101719838E+03  0.72101719838E+03  0.25500000000E-02 0.  1.
          2   -1    0    0  501    0  0.00000000000E+00 -0.00000000000E+00 -0.89025306584E+03  0.89025306584E+03  0.25500000000E-02 0. -1.
    8880022    1    1    2    0    0 -0.16124461107E+03  0.23846581951E+03  0.65132041309E+03  0.72833763132E+03  0.15294330000E+03 0.  0.
    8880022    1    1    2    0    0  0.16124461107E+03 -0.23846581951E+03 -0.82055628056E+03  0.88293263291E+03  0.15294330000E+03 0. -1.
<mgrwt>
<rscale>  0 0.32597151E+03</rscale>
<asrwt>0</asrwt>
<pdfrwt beam="1">  1        2 0.13696201E+00 0.32597151E+03</pdfrwt>
<pdfrwt beam="2">  1       -2 0.11092572E+00 0.32597151E+03</pdfrwt>
<totfact> 0.20738121E+01</totfact>
</mgrwt>
</event>
<event>
 4    1  0.5387657E-008  0.7682038E+03  0.7818608E-02  0.9607217E-01
          2   -1    0    0  501    0  0.00000000000E+00  0.00000000000E+00  0.93807286513E+03  0.93807286514E+03  0.25500000000E-02 0. -1.
         -2   -1    0    0    0  501 -0.00000000000E+00 -0.00000000000E+00 -0.10150159739E+04  0.10150159739E+04  0.25500000000E-02 0.  1.
    8880022    1    1    2    0    0  0.74536352859E+03  0.10572875691E+03  0.56367848195E+03  0.95282235690E+03  0.15294330000E+03 0.  0.
    8880022    1    1    2    0    0 -0.74536352859E+03 -0.10572875691E+03 -0.64062159072E+03  0.10002664821E+04  0.15294330000E+03 0.  0.
<mgrwt>
<rscale>  0 0.76820376E+03</rscale>
<asrwt>0</asrwt>
<pdfrwt beam="1">  1        2 0.14431890E+00 0.76820376E+03</pdfrwt>
<pdfrwt beam="2">  1       -2 0.15615630E+00 0.76820376E+03</pdfrwt>
<totfact> 0.75574736E+00</totfact>
</mgrwt>
</event>
<event>
 4    1  0.5387657E-008  0.4649063E+03  0.7818608E-02  0.1023368E+00
          2   -1    0    0  501    0  0.00000000000E+00  0.00000000000E+00  0.10192616673E+04  0.10192616673E+04  0.25500000000E-02 0. -1.
         -2   -1    0    0    0  501 -0.00000000000E+00 -0.00000000000E+00 -0.36798107758E+03  0.36798107758E+03  0.25500000000E-02 0.  1.
    8880022    1    1    2    0    0  0.39807096404E+03  0.18516400987E+03 -0.12587388222E+03  0.48164519120E+03  0.15294330000E+03 0.  0.
    8880022    1    1    2    0    0 -0.39807096404E+03 -0.18516400987E+03  0.77715447190E+03  0.90559755365E+03  0.15294330000E+03 0.  0.
<mgrwt>
<rscale>  0 0.46490629E+03</rscale>
<asrwt>0</asrwt>
<pdfrwt beam="1">  1        2 0.15680948E+00 0.46490629E+03</pdfrwt>
<pdfrwt beam="2">  1       -2 0.56612475E-01 0.46490629E+03</pdfrwt>
<totfact> 0.74838662E+01</totfact>
</mgrwt>
</event>
<event>
 4    1  0.5387657E-008  0.3037217E+03  0.7818608E-02  0.1083395E+00
          2   -1    0    0  501    0  0.00000000000E+00  0.00000000000E+00  0.99443997309E+03  0.99443997309E+03  0.25500000000E-02 0. -1.
         -2   -1    0    0    0  501 -0.00000000000E+00 -0.00000000000E+00 -0.14540426922E+03  0.14540426924E+03  0.25500000000E-02 0.  1.
    8880022    1    1    2    0    0  0.14339637547E+03 -0.21975594502E+03  0.81598721578E+02  0.31449197167E+03  0.15294330000E+03 0.  0.
    8880022    1    1    2    0    0 -0.14339637547E+03  0.21975594502E+03  0.76743698229E+03  0.82535227065E+03  0.15294330000E+03 0.  0.
<mgrwt>
<rscale>  0 0.30372166E+03</rscale>
<asrwt>0</asrwt>
<pdfrwt beam="1">  1        2 0.15299076E+00 0.30372166E+03</pdfrwt>
<pdfrwt beam="2">  1       -2 0.22369888E-01 0.30372166E+03</pdfrwt>
<totfact> 0.45906526E+02</totfact>
</mgrwt>
</event>
<event>
 4    1  0.5387657E-008  0.2192502E+03  0.7818608E-02  0.1134443E+00
         -2   -1    0    0    0  501 -0.00000000000E+00  0.00000000000E+00  0.34519765797E+03  0.34519765798E+03  0.25500000000E-02 0.  1.
          2   -1    0    0  501    0  0.00000000000E+00 -0.00000000000E+00 -0.11150062348E+04  0.11150062348E+04  0.25500000000E-02 0. -1.
    8880022    1    1    2    0    0 -0.55894492198E+02  0.14681558117E+03  0.29808565412E+03  0.37003475423E+03  0.15294330000E+03 0.  0.
    8880022    1    1    2    0    0  0.55894492198E+02 -0.14681558117E+03 -0.10678942309E+04  0.10901691385E+04  0.15294330000E+03 0.  0.
<mgrwt>
<rscale>  0 0.21925023E+03</rscale>
<asrwt>0</asrwt>
<pdfrwt beam="1">  1        2 0.17153942E+00 0.21925023E+03</pdfrwt>
<pdfrwt beam="2">  1       -2 0.53107333E-01 0.21925023E+03</pdfrwt>
<totfact> 0.78194707E+01</totfact>
</mgrwt>
</event>
<event>
 4    1  0.5387657E-008  0.5856125E+03  0.7818608E-02  0.9935713E-01
          2   -1    0    0  501    0  0.00000000000E+00  0.00000000000E+00  0.11581837847E+04  0.11581837847E+04  0.25500000000E-02 0. -1.
         -2   -1    0    0    0  501 -0.00000000000E+00 -0.00000000000E+00 -0.61848856446E+03  0.61848856446E+03  0.25500000000E-02 0.  1.
    8880022    1    1    2    0    0  0.32614663706E+03 -0.46171280878E+03 -0.37150833658E+03  0.69351311727E+03  0.15294330000E+03 0.  0.
    8880022    1    1    2    0    0 -0.32614663706E+03  0.46171280878E+03  0.91120355679E+03  0.10831592319E+04  0.15294330000E+03 0.  0.
<mgrwt>
<rscale>  0 0.58561250E+03</rscale>
<asrwt>0</asrwt>
<pdfrwt beam="1">  1        2 0.17818212E+00 0.58561250E+03</pdfrwt>
<pdfrwt beam="2">  1       -2 0.95152088E-01 0.58561250E+03</pdfrwt>
<totfact> 0.19380493E+01</totfact>
</mgrwt>
</event>
<event>
 4    1  0.5387657E-008  0.7448307E+03  0.7818608E-02  0.9643495E-01
         -2   -1    0    0    0  501 -0.00000000000E+00  0.00000000000E+00  0.57103619883E+03  0.57103619883E+03  0.25500000000E-02 0.  1.
          2   -1    0    0  501    0  0.00000000000E+00 -0.00000000000E+00 -0.12713862837E+04  0.12713862837E+04  0.25500000000E-02 0. -1.
    8880022    1    1    2    0    0 -0.24990461073E+03 -0.68478376383E+03  0.97213326224E+02  0.75114792250E+03  0.15294330000E+03 0.  0.
    8880022    1    1    2    0    0  0.24990461073E+03  0.68478376383E+03 -0.79756341114E+03  0.10912745601E+04  0.15294330000E+03 0.  0.
<mgrwt>
<rscale>  0 0.74483070E+03</rscale>
<asrwt>0</asrwt>
<pdfrwt beam="1">  1        2 0.19559789E+00 0.74483070E+03</pdfrwt>
<pdfrwt beam="2">  1       -2 0.87851723E-01 0.74483070E+03</pdfrwt>
<totfact> 0.19596180E+01</totfact>
</mgrwt>
</event>
<event>
 4    1  0.5387657E-008  0.9912474E+03  0.7818608E-02  0.9318197E-01
          2   -1    0    0  501    0  0.00000000000E+00  0.00000000000E+00  0.15063005932E+04  0.15063005932E+04  0.25500000000E-02 0. -1.
         -2   -1    0    0    0  501 -0.00000000000E+00 -0.00000000000E+00 -0.96241320600E+03  0.96241320600E+03  0.25500000000E-02 0.  1.
    8880022    1    1    2    0    0  0.43596966054E+03  0.87698927613E+03 -0.42872827174E+03  0.10799904256E+04  0.15294330000E+03 0.  0.
    8880022    1    1    2    0    0 -0.43596966054E+03 -0.87698927613E+03  0.97261565892E+03  0.13887233736E+04  0.15294330000E+03 0.  0.
<mgrwt>
<rscale>  0 0.99124739E+03</rscale>
<asrwt>0</asrwt>
<pdfrwt beam="1">  1        2 0.23173855E+00 0.99124739E+03</pdfrwt>
<pdfrwt beam="2">  1       -2 0.14806357E+00 0.99124739E+03</pdfrwt>
<totfact> 0.38801926E+00</totfact>
</mgrwt>
</event>
<event>
 4    1  0.5387657E-008  0.3063366E+03  0.7818608E-02  0.1082115E+00
         -2   -1    0    0    0  501 -0.00000000000E+00  0.00000000000E+00  0.15969698447E+03  0.15969698449E+03  0.25500000000E-02 0.  1.
          2   -1    0    0  501    0  0.00000000000E+00 -0.00000000000E+00 -0.15362642295E+04  0.15362642295E+04  0.25500000000E-02 0. -1.
    8880022    1    1    2    0    0  0.11375353434E+03  0.23981367887E+03 -0.21932331349E+02  0.30712073737E+03  0.15294330000E+03 0.  0.
    8880022    1    1    2    0    0 -0.11375353434E+03 -0.23981367887E+03 -0.13546349137E+04  0.13888404766E+04  0.15294330000E+03 0.  0.
<mgrwt>
<rscale>  0 0.30633661E+03</rscale>
<asrwt>0</asrwt>
<pdfrwt beam="1">  1        2 0.23634833E+00 0.30633661E+03</pdfrwt>
<pdfrwt beam="2">  1       -2 0.24568768E-01 0.30633661E+03</pdfrwt>
<totfact> 0.19166134E+02</totfact>
</mgrwt>
</event>
<event>
 4    1  0.5387657E-008  0.5375048E+03  0.7818608E-02  0.1004428E+00
         -2   -1    0    0    0  501 -0.00000000000E+00  0.00000000000E+00  0.50329839414E+03  0.50329839414E+03  0.25500000000E-02 0.  1.
          2   -1    0    0  501    0  0.00000000000E+00 -0.00000000000E+00 -0.60242058720E+03  0.60242058720E+03  0.25500000000E-02 0. -1.
    8880022    1    1    2    0    0 -0.36985975694E+03  0.35878063855E+03  0.70445608868E+02  0.54210148794E+03  0.15294330000E+03 0.  0.
    8880022    1    1    2    0    0  0.36985975694E+03 -0.35878063855E+03 -0.16956780193E+03  0.56361749340E+03  0.15294330000E+03 0.  0.
<mgrwt>
<rscale>  0 0.53750483E+03</rscale>
<asrwt>0</asrwt>
<pdfrwt beam="1">  1        2 0.92680090E-01 0.53750483E+03</pdfrwt>
<pdfrwt beam="2">  1       -2 0.77430522E-01 0.53750483E+03</pdfrwt>
<totfact> 0.75455433E+01</totfact>
</mgrwt>
</event>
<event>
 4    1  0.5387657E-008  0.4065605E+03  0.7818608E-02  0.1041531E+00
         -2   -1    0    0    0  501 -0.00000000000E+00  0.00000000000E+00  0.24198471100E+03  0.24198471101E+03  0.25500000000E-02 0.  1.
          2   -1    0    0  501    0  0.00000000000E+00 -0.00000000000E+00 -0.22479215743E+04  0.22479215743E+04  0.25500000000E-02 0. -1.
    8880022    1    1    2    0    0  0.26846475910E+03  0.26424699879E+03  0.35754214611E+02  0.40812966092E+03  0.15294330000E+03 0.  0.
    8880022    1    1    2    0    0 -0.26846475910E+03 -0.26424699879E+03 -0.20416910779E+04  0.20817766244E+04  0.15294330000E+03 0. -1.
<mgrwt>
<rscale>  0 0.40656052E+03</rscale>
<asrwt>0</asrwt>
<pdfrwt beam="1">  1        2 0.34583407E+00 0.40656052E+03</pdfrwt>
<pdfrwt beam="2">  1       -2 0.37228419E-01 0.40656052E+03</pdfrwt>
<totfact> 0.36434790E+01</totfact>
</mgrwt>
</event>
<event>
 4    1  0.5387657E-008  0.2890205E+03  0.7818608E-02  0.1090862E+00
         -2   -1    0    0    0  501 -0.00000000000E+00  0.00000000000E+00  0.68326259428E+03  0.68326259429E+03  0.25500000000E-02 0.  1.
          2   -1    0    0  501    0  0.00000000000E+00 -0.00000000000E+00 -0.24601268617E+03  0.24601268618E+03  0.25500000000E-02 0. -1.
    8880022    1    1    2    0    0  0.14723763391E+03  0.19611804570E+03 -0.11092420261E+03  0.30957558112E+03  0.15294330000E+03 0.  0.
    8880022    1    1    2    0    0 -0.14723763391E+03 -0.19611804570E+03  0.54817411072E+03  0.61969969935E+03  0.15294330000E+03 0.  0.
<mgrwt>
<rscale>  0 0.28902052E+03</rscale>
<asrwt>0</asrwt>
<pdfrwt beam="1">  1        2 0.37848106E-01 0.28902052E+03</pdfrwt>
<pdfrwt beam="2">  1       -2 0.10511732E+00 0.28902052E+03</pdfrwt>
<totfact> 0.10416710E+02</totfact>
</mgrwt>
</event>
<event>
 4    1  0.5387657E-008  0.5699806E+03  0.7818608E-02  0.9969721E-01
         -2   -1    0    0    0  501 -0.00000000000E+00  0.00000000000E+00  0.85098893621E+03  0.85098893622E+03  0.25500000000E-02 0.  1.
          2   -1    0    0  501    0  0.00000000000E+00 -0.00000000000E+00 -0.12586736523E+04  0.12586736523E+04  0.25500000000E-02 0. -1.
    8880022    1    1    2    0    0  0.52754622681E+03 -0.15225384815E+03 -0.10842900890E+04  0.12249746552E+04  0.15294330000E+03 0.  0.
    8880022    1    1    2    0    0 -0.52754622681E+03  0.15225384815E+03  0.67660537293E+03  0.88468793333E+03  0.15294330000E+03 0.  0.
<mgrwt>
<rscale>  0 0.56998062E+03</rscale>
<asrwt>0</asrwt>
<pdfrwt beam="1">  1        2 0.19364210E+00 0.56998062E+03</pdfrwt>
<pdfrwt beam="2">  1       -2 0.13092138E+00 0.56998062E+03</pdfrwt>
<totfact> 0.78285798E+00</totfact>
</mgrwt>
</event>
<event>
 4    1  0.5387657E-008  0.1422552E+04  0.7818608E-02  0.8937654E-01
          2   -1    0    0  501    0  0.00000000000E+00  0.00000000000E+00  0.20596007803E+04  0.20596007803E+04  0.25500000000E-02 0. -1.
         -2   -1    0    0    0  501 -0.00000000000E+00 -0.00000000000E+00 -0.11692359682E+04  0.11692359682E+04  0.25500000000E-02 0.  1.
    8880022    1    1    2    0    0  0.11688988290E+04  0.79620253824E+03 -0.19991354172E+03  0.14365305536E+04  0.15294330000E+03 0.  0.
    8880022    1    1    2    0    0 -0.11688988290E+04 -0.79620253824E+03  0.10902783538E+04  0.17923061949E+04  0.15294330000E+03 0.  0.
<mgrwt>
<rscale>  0 0.14225521E+04</rscale>
<asrwt>0</asrwt>
<pdfrwt beam="1">  1        2 0.31686166E+00 0.14225521E+04</pdfrwt>
<pdfrwt beam="2">  1       -2 0.17988246E+00 0.14225521E+04</pdfrwt>
<totfact> 0.10662019E+00</totfact>
</mgrwt>
</event>
<event>
 4    1  0.5387657E-008  0.8008375E+03  0.7818608E-02  0.9558806E-01
          2   -1    0    0  501    0  0.00000000000E+00  0.00000000000E+00  0.14368178567E+04  0.14368178567E+04  0.25500000000E-02 0. -1.
         -2   -1    0    0    0  501 -0.00000000000E+00 -0.00000000000E+00 -0.53340572507E+03  0.53340572508E+03  0.25500000000E-02 0.  1.
    8880022    1    1    2    0    0  0.75694281228E+03 -0.21210034836E+03  0.53758486637E+02  0.80263977396E+03  0.15294330000E+03 0.  0.
    8880022    1    1    2    0    0 -0.75694281228E+03  0.21210034836E+03  0.84965364503E+03  0.11675838079E+04  0.15294330000E+03 0.  0.
<mgrwt>
<rscale>  0 0.80083746E+03</rscale>
<asrwt>0</asrwt>
<pdfrwt beam="1">  1        2 0.22104890E+00 0.80083746E+03</pdfrwt>
<pdfrwt beam="2">  1       -2 0.82062420E-01 0.80083746E+03</pdfrwt>
<totfact> 0.18295974E+01</totfact>
</mgrwt>
</event>
<event>
 4    1  0.5387657E-008  0.2082185E+03  0.7818608E-02  0.1142985E+00
          2   -1    0    0  501    0  0.00000000000E+00  0.00000000000E+00  0.37776868613E+03  0.37776868613E+03  0.25500000000E-02 0. -1.
         -2   -1    0    0    0  501 -0.00000000000E+00 -0.00000000000E+00 -0.65826961528E+03  0.65826961529E+03  0.25500000000E-02 0.  1.
    8880022    1    1    2    0    0  0.80146107240E+02 -0.11636098475E+03  0.33045062584E+03  0.39057975678E+03  0.15294330000E+03 0.  0.
    8880022    1    1    2    0    0 -0.80146107240E+02  0.11636098475E+03 -0.61095155500E+03  0.64545854464E+03  0.15294330000E+03 0.  1.
<mgrwt>
<rscale>  0 0.20821847E+03</rscale>
<asrwt>0</asrwt>
<pdfrwt beam="1">  1        2 0.58118260E-01 0.20821847E+03</pdfrwt>
<pdfrwt beam="2">  1       -2 0.10127225E+00 0.20821847E+03</pdfrwt>
<totfact> 0.72208220E+01</totfact>
</mgrwt>
</event>
<event>
 4    1  0.5387657E-008  0.2681400E+03  0.7818608E-02  0.1102349E+00
         -2   -1    0    0    0  501 -0.00000000000E+00  0.00000000000E+00  0.53423208767E+02  0.53423208828E+02  0.25500000000E-02 0.  1.
          2   -1    0    0  501    0  0.00000000000E+00 -0.00000000000E+00 -0.23955520481E+04  0.23955520481E+04  0.25500000000E-02 0. -1.
    8880022    1    1    2    0    0  0.21969827669E+03 -0.15493613258E+02 -0.19816276409E+04  0.19996867617E+04  0.15294330000E+03 0.  0.
    8880022    1    1    2    0    0 -0.21969827669E+03  0.15493613258E+02 -0.36050119843E+03  0.44928849520E+03  0.15294330000E+03 0.  0.
<mgrwt>
<rscale>  0 0.26813996E+03</rscale>
<asrwt>0</asrwt>
<pdfrwt beam="1">  1        2 0.36854638E+00 0.26813996E+03</pdfrwt>
<pdfrwt beam="2">  1       -2 0.82189571E-02 0.26813996E+03</pdfrwt>
<totfact> 0.41510837E+02</totfact>
</mgrwt>
</event>
<event>
 4    1  0.5387657E-008  0.2124969E+03  0.7818608E-02  0.1139604E+00
         -2   -1    0    0    0  501 -0.00000000000E+00  0.00000000000E+00  0.25044834481E+03  0.25044834483E+03  0.25500000000E-02 0.  1.
          2   -1    0    0  501    0  0.00000000000E+00 -0.00000000000E+00 -0.25570735551E+04  0.25570735551E+04  0.25500000000E-02 0. -1.
    8880022    1    1    2    0    0  0.20168946761E+02 -0.14613856970E+03 -0.25066802324E+04  0.25156710255E+04  0.15294330000E+03 0. -1.
    8880022    1    1    2    0    0 -0.20168946761E+02  0.14613856970E+03  0.20005502217E+03  0.29185087438E+03  0.15294330000E+03 0.  0.
<mgrwt>
<rscale>  0 0.21249687E+03</rscale>
<asrwt>0</asrwt>
<pdfrwt beam="1">  1        2 0.39339591E+00 0.21249687E+03</pdfrwt>
<pdfrwt beam="2">  1       -2 0.38530516E-01 0.21249687E+03</pdfrwt>
<totfact> 0.24921928E+01</totfact>
</mgrwt>
</event>
<event>
 4    1  0.5387657E-008  0.9023016E+03  0.7818608E-02  0.9422709E-01
         -2   -1    0    0    0  501 -0.00000000000E+00  0.00000000000E+00  0.10578396316E+04  0.10578396316E+04  0.25500000000E-02 0.  1.
          2   -1    0    0  501    0  0.00000000000E+00 -0.00000000000E+00 -0.15341523586E+04  0.15341523586E+04  0.25500000000E-02 0. -1.
    8880022    1    1    2    0    0 -0.85326189233E+02 -0.88514173679E+03 -0.11530354627E+04  0.14641171005E+04  0.15294330000E+03 0.  0.
    8880022    1    1    2    0    0  0.85326189233E+02  0.88514173679E+03  0.67672273569E+03  0.11278748897E+04  0.15294330000E+03 0.  0.
<mgrwt>
<rscale>  0 0.90230156E+03</rscale>
<asrwt>0</asrwt>
<pdfrwt beam="1">  1        2 0.23602344E+00 0.90230156E+03</pdfrwt>
<pdfrwt beam="2">  1       -2 0.16274456E+00 0.90230156E+03</pdfrwt>
<totfact> 0.29351946E+00</totfact>
</mgrwt>
</event>
<event>
 4    1  0.5387657E-008  0.3354532E+03  0.7818608E-02  0.1068749E+00
          2   -1    0    0  501    0  0.00000000000E+00  0.00000000000E+00  0.66625989776E+03  0.66625989777E+03  0.25500000000E-02 0. -1.
         -2   -1    0    0    0  501 -0.00000000000E+00 -0.00000000000E+00 -0.75015227989E+03  0.75015227990E+03  0.25500000000E-02 0.  1.
    8880022    1    1    2    0    0 -0.29774688687E+03  0.21999249993E+02  0.58145647910E+03  0.67128270181E+03  0.15294330000E+03 0.  0.
    8880022    1    1    2    0    0  0.29774688687E+03 -0.21999249993E+02 -0.66534886123E+03  0.74512947586E+03  0.15294330000E+03 0.  0.
<mgrwt>
<rscale>  0 0.33545317E+03</rscale>
<asrwt>0</asrwt>
<pdfrwt beam="1">  1        2 0.10250152E+00 0.33545317E+03</pdfrwt>
<pdfrwt beam="2">  1       -2 0.11540804E+00 0.33545317E+03</pdfrwt>
<totfact> 0.27213481E+01</totfact>
</mgrwt>
</event>
<event>
 4    1  0.5387657E-008  0.9256726E+03  0.7818608E-02  0.9394046E-01
         -2   -1    0    0    0  501 -0.00000000000E+00  0.00000000000E+00  0.12278518432E+04  0.12278518432E+04  0.25500000000E-02 0.  1.
          2   -1    0    0  501    0  0.00000000000E+00 -0.00000000000E+00 -0.12680408680E+04  0.12680408680E+04  0.25500000000E-02 0. -1.
    8880022    1    1    2    0    0 -0.68694716667E+03  0.60131668309E+03  0.81673167412E+03  0.12344717266E+04  0.15294330000E+03 0.  0.
    8880022    1    1    2    0    0  0.68694716667E+03 -0.60131668309E+03 -0.85692069897E+03  0.12614209846E+04  0.15294330000E+03 0.  0.
<mgrwt>
<rscale>  0 0.92567263E+03</rscale>
<asrwt>0</asrwt>
<pdfrwt beam="1">  1        2 0.19508321E+00 0.92567263E+03</pdfrwt>
<pdfrwt beam="2">  1       -2 0.18890028E+00 0.92567263E+03</pdfrwt>
<totfact> 0.27241032E+00</totfact>
</mgrwt>
</event>
<event>
 4    1  0.5387657E-008  0.3679997E+03  0.7818608E-02  0.1055460E+00
          2   -1    0    0  501    0  0.00000000000E+00  0.00000000000E+00  0.29380759219E+04  0.29380759219E+04  0.25500000000E-02 0. -1.
         -2   -1    0    0    0  501 -0.00000000000E+00 -0.00000000000E+00 -0.66590714147E+02  0.66590714195E+02  0.25500000000E-02 0.  1.
    8880022    1    1    2    0    0  0.32878585641E+03  0.62705756333E+02  0.22692616527E+04  0.22989067517E+04  0.15294330000E+03 0.  0.
    8880022    1    1    2    0    0 -0.32878585641E+03 -0.62705756333E+02  0.60222355507E+03  0.70575988448E+03  0.15294330000E+03 0.  0.
<mgrwt>
<rscale>  0 0.36799973E+03</rscale>
<asrwt>0</asrwt>
<pdfrwt beam="1">  1        2 0.45201170E+00 0.36799973E+03</pdfrwt>
<pdfrwt beam="2">  1       -2 0.10244725E-01 0.36799973E+03</pdfrwt>
<totfact> 0.14103820E+02</totfact>
</mgrwt>
</event>
<event>
 4    1  0.5387657E-008  0.6048946E+03  0.7818608E-02  0.9895303E-01
          2   -1    0    0  501    0  0.00000000000E+00  0.00000000000E+00  0.14991343215E+04  0.14991343215E+04  0.25500000000E-02 0. -1.
         -2   -1    0    0    0  501 -0.00000000000E+00 -0.00000000000E+00 -0.47251923037E+03  0.47251923038E+03  0.25500000000E-02 0.  1.
    8880022    1    1    2    0    0  0.56538235610E+03  0.15115770357E+03 -0.17215433269E+03  0.62891543726E+03  0.15294330000E+03 0.  0.
    8880022    1    1    2    0    0 -0.56538235610E+03 -0.15115770357E+03  0.11987694238E+04  0.13427381146E+04  0.15294330000E+03 0.  0.
<mgrwt>
<rscale>  0 0.60489463E+03</rscale>
<asrwt>0</asrwt>
<pdfrwt beam="1">  1        2 0.23063605E+00 0.60489463E+03</pdfrwt>
<pdfrwt beam="2">  1       -2 0.72695266E-01 0.60489463E+03</pdfrwt>
<totfact> 0.22697375E+01</totfact>
</mgrwt>
</event>
<event>
 4    1  0.5387657E-008  0.1257340E+04  0.7818608E-02  0.9064097E-01
          2   -1    0    0  501    0  0.00000000000E+00  0.00000000000E+00  0.31700273718E+04  0.31700273718E+04  0.25500000000E-02 0. -1.
         -2   -1    0    0    0  501 -0.00000000000E+00 -0.00000000000E+00 -0.66177660039E+03  0.66177660039E+03  0.25500000000E-02 0.  1.
    8880022    1    1    2    0    0  0.12479699229E+04 -0.90781025146E+01  0.30306287210E+03  0.12933484054E+04  0.15294330000E+03 0.  0.
    8880022    1    1    2    0    0 -0.12479699229E+04  0.90781025146E+01  0.22051878993E+04  0.25384555668E+04  0.15294330000E+03 0.  0.
<mgrwt>
<rscale>  0 0.12573396E+04</rscale>
<asrwt>0</asrwt>
<pdfrwt beam="1">  1        2 0.48769652E+00 0.12573396E+04</pdfrwt>
<pdfrwt beam="2">  1       -2 0.10181178E+00 0.12573396E+04</pdfrwt>
<totfact> 0.10580929E+00</totfact>
</mgrwt>
</event>
<event>
 4    1  0.5387657E-008  0.2683187E+03  0.7818608E-02  0.1102246E+00
         -2   -1    0    0    0  501 -0.00000000000E+00  0.00000000000E+00  0.25276532200E+03  0.25276532201E+03  0.25500000000E-02 0.  1.
          2   -1    0    0  501    0  0.00000000000E+00 -0.00000000000E+00 -0.40623834089E+03  0.40623834090E+03  0.25500000000E-02 0. -1.
    8880022    1    1    2    0    0  0.21147702941E+03 -0.62295427273E+02 -0.25686953114E+03  0.37145237012E+03  0.15294330000E+03 0.  0.
    8880022    1    1    2    0    0 -0.21147702941E+03  0.62295427273E+02  0.10339651224E+03  0.28755129279E+03  0.15294330000E+03 0.  0.
<mgrwt>
<rscale>  0 0.26831867E+03</rscale>
<asrwt>0</asrwt>
<pdfrwt beam="1">  1        2 0.62498206E-01 0.26831867E+03</pdfrwt>
<pdfrwt beam="2">  1       -2 0.38886973E-01 0.26831867E+03</pdfrwt>
<totfact> 0.49614350E+02</totfact>
</mgrwt>
</event>
<event>
 4    1  0.5387657E-008  0.3613314E+03  0.7818608E-02  0.1058058E+00
         -2   -1    0    0    0  501 -0.00000000000E+00  0.00000000000E+00  0.24826704587E+03  0.24826704589E+03  0.25500000000E-02 0.  1.
          2   -1    0    0  501    0  0.00000000000E+00 -0.00000000000E+00 -0.15569640486E+04  0.15569640486E+04  0.25500000000E-02 0. -1.
    8880022    1    1    2    0    0 -0.28284267240E+03  0.16482935707E+03 -0.13888778150E+04  0.14351104251E+04  0.15294330000E+03 0.  0.
    8880022    1    1    2    0    0  0.28284267240E+03 -0.16482935707E+03  0.80180812201E+02  0.37012066944E+03  0.15294330000E+03 0.  0.
<mgrwt>
<rscale>  0 0.36133135E+03</rscale>
<asrwt>0</asrwt>
<pdfrwt beam="1">  1        2 0.23953293E+00 0.36133135E+03</pdfrwt>
<pdfrwt beam="2">  1       -2 0.38194931E-01 0.36133135E+03</pdfrwt>
<totfact> 0.82132667E+01</totfact>
</mgrwt>
</event>
<event>
 4    1  0.5387657E-008  0.4719042E+03  0.7818608E-02  0.1021384E+00
         -2   -1    0    0    0  501 -0.00000000000E+00  0.00000000000E+00  0.64807005692E+03  0.64807005693E+03  0.25500000000E-02 0.  1.
          2   -1    0    0  501    0  0.00000000000E+00 -0.00000000000E+00 -0.91696154047E+03  0.91696154048E+03  0.25500000000E-02 0. -1.
    8880022    1    1    2    0    0  0.25114669932E+03 -0.36908975004E+03 -0.75320552674E+03  0.88882626350E+03  0.15294330000E+03 0.  0.
    8880022    1    1    2    0    0 -0.25114669932E+03  0.36908975004E+03  0.48431404319E+03  0.67620533391E+03  0.15294330000E+03 0.  0.
<mgrwt>
<rscale>  0 0.47190419E+03</rscale>
<asrwt>0</asrwt>
<pdfrwt beam="1">  1        2 0.14107101E+00 0.47190419E+03</pdfrwt>
<pdfrwt beam="2">  1       -2 0.99703086E-01 0.47190419E+03</pdfrwt>
<totfact> 0.24959765E+01</totfact>
</mgrwt>
</event>
<event>
 4    1  0.5387657E-008  0.8443788E+03  0.7818608E-02  0.9497913E-01
          2   -1    0    0  501    0  0.00000000000E+00  0.00000000000E+00  0.12124406915E+04  0.12124406915E+04  0.25500000000E-02 0. -1.
         -2   -1    0    0    0  501 -0.00000000000E+00 -0.00000000000E+00 -0.16349005729E+04  0.16349005729E+04  0.25500000000E-02 0.  1.
    8880022    1    1    2    0    0  0.81218018874E+03  0.17305255524E+03 -0.13504463808E+04  0.15926961186E+04  0.15294330000E+03 0.  0.
    8880022    1    1    2    0    0 -0.81218018874E+03 -0.17305255524E+03  0.92798649941E+03  0.12546451458E+04  0.15294330000E+03 0.  0.
<mgrwt>
<rscale>  0 0.84437877E+03</rscale>
<asrwt>0</asrwt>
<pdfrwt beam="1">  1        2 0.18652934E+00 0.84437877E+03</pdfrwt>
<pdfrwt beam="2">  1       -2 0.25152317E+00 0.84437877E+03</pdfrwt>
<totfact> 0.11950587E+00</totfact>
</mgrwt>
</event>
<event>
 4    1  0.5387657E-008  0.9692567E+03  0.7818608E-02  0.9342921E-01
         -2   -1    0    0    0  501 -0.00000000000E+00  0.00000000000E+00  0.86711287855E+03  0.86711287855E+03  0.25500000000E-02 0.  1.
          2   -1    0    0  501    0  0.00000000000E+00 -0.00000000000E+00 -0.31224995106E+04  0.31224995106E+04  0.25500000000E-02 0. -1.
    8880022    1    1    2    0    0 -0.74822381564E+03 -0.59684835558E+03  0.48430744030E+03  0.10835184297E+04  0.15294330000E+03 0.  0.
    8880022    1    1    2    0    0  0.74822381564E+03  0.59684835558E+03 -0.27396940724E+04  0.29060939594E+04  0.15294330000E+03 0.  0.
<mgrwt>
<rscale>  0 0.96925667E+03</rscale>
<asrwt>0</asrwt>
<pdfrwt beam="1">  1        2 0.48038453E+00 0.96925667E+03</pdfrwt>
<pdfrwt beam="2">  1       -2 0.13340198E+00 0.96925667E+03</pdfrwt>
<totfact> 0.60744388E-01</totfact>
</mgrwt>
</event>
<event>
 4    1  0.5387657E-008  0.2802009E+03  0.7818608E-02  0.1095579E+00
         -2   -1    0    0    0  501 -0.00000000000E+00  0.00000000000E+00  0.12165079212E+03  0.12165079215E+03  0.25500000000E-02 0.  1.
          2   -1    0    0  501    0  0.00000000000E+00 -0.00000000000E+00 -0.14717032021E+04  0.14717032021E+04  0.25500000000E-02 0. -1.
    8880022    1    1    2    0    0  0.47877829359E+02  0.22984471794E+03 -0.78068179785E+02  0.29087312461E+03  0.15294330000E+03 0.  0.
    8880022    1    1    2    0    0 -0.47877829359E+02 -0.22984471794E+03 -0.12719842302E+04  0.13024808697E+04  0.15294330000E+03 0.  0.
<mgrwt>
<rscale>  0 0.28020088E+03</rscale>
<asrwt>0</asrwt>
<pdfrwt beam="1">  1        2 0.22641586E+00 0.28020088E+03</pdfrwt>
<pdfrwt beam="2">  1       -2 0.18715508E-01 0.28020088E+03</pdfrwt>
<totfact> 0.33455644E+02</totfact>
</mgrwt>
</event>
<event>
 4    1  0.5387657E-008  0.2766892E+03  0.7818608E-02  0.1097511E+00
          2   -1    0    0  501    0  0.00000000000E+00  0.00000000000E+00  0.37209470675E+04  0.37209470675E+04  0.25500000000E-02 0. -1.
         -2   -1    0    0    0  501 -0.00000000000E+00 -0.00000000000E+00 -0.89633399549E+02  0.89633399585E+02  0.25500000000E-02 0.  1.
    8880022    1    1    2    0    0  0.11100898094E+03  0.20209464097E+03  0.34880400861E+04  0.34989970753E+04  0.15294330000E+03 0.  0.
    8880022    1    1    2    0    0 -0.11100898094E+03 -0.20209464097E+03  0.14327358184E+03  0.31158339176E+03  0.15294330000E+03 0.  0.
<mgrwt>
<rscale>  0 0.27668916E+03</rscale>
<asrwt>0</asrwt>
<pdfrwt beam="1">  1        2 0.57245346E+00 0.27668916E+03</pdfrwt>
<pdfrwt beam="2">  1       -2 0.13789752E-01 0.27668916E+03</pdfrwt>
<totfact> 0.28260887E+01</totfact>
</mgrwt>
</event>
<event>
 4    1  0.5387657E-008  0.1754963E+03  0.7818608E-02  0.1172234E+00
          2   -1    0    0  501    0  0.00000000000E+00  0.00000000000E+00  0.22830686819E+04  0.22830686819E+04  0.25500000000E-02 0. -1.
         -2   -1    0    0    0  501 -0.00000000000E+00 -0.00000000000E+00 -0.30012538662E+02  0.30012538770E+02  0.25500000000E-02 0.  1.
    8880022    1    1    2    0    0  0.60100946226E+02 -0.61605013009E+02  0.26841236848E+03  0.32069323961E+03  0.15294330000E+03 0.  0.
    8880022    1    1    2    0    0 -0.60100946226E+02  0.61605013009E+02  0.19846437748E+04  0.19923879811E+04  0.15294330000E+03 0. -1.
<mgrwt>
<rscale>  0 0.17549631E+03</rscale>
<asrwt>0</asrwt>
<pdfrwt beam="1">  1        2 0.35124128E+00 0.17549631E+03</pdfrwt>
<pdfrwt beam="2">  1       -2 0.46173144E-02 0.17549631E+03</pdfrwt>
<totfact> 0.11788099E+03</totfact>
</mgrwt>
</event>
<event>
 4    1  0.5387657E-008  0.6163873E+03  0.7818608E-02  0.9871979E-01
          2   -1    0    0  501    0  0.00000000000E+00  0.00000000000E+00  0.86721627184E+03  0.86721627184E+03  0.25500000000E-02 0. -1.
         -2   -1    0    0    0  501 -0.00000000000E+00 -0.00000000000E+00 -0.58159418691E+03  0.58159418691E+03  0.25500000000E-02 0.  1.
    8880022    1    1    2    0    0 -0.44940836739E+03 -0.39315872478E+03 -0.21700329324E+03  0.65347053938E+03  0.15294330000E+03 0.  0.
    8880022    1    1    2    0    0  0.44940836739E+03  0.39315872478E+03  0.50262537817E+03  0.79533991937E+03  0.15294330000E+03 0.  0.
<mgrwt>
<rscale>  0 0.61638731E+03</rscale>
<asrwt>0</asrwt>
<pdfrwt beam="1">  1        2 0.13341789E+00 0.61638731E+03</pdfrwt>
<pdfrwt beam="2">  1       -2 0.89476028E-01 0.61638731E+03</pdfrwt>
<totfact> 0.34002391E+01</totfact>
</mgrwt>
</event>
<event>
 4    1  0.5387657E-008  0.5729626E+03  0.7818608E-02  0.9963144E-01
          2   -1    0    0  501    0  0.00000000000E+00  0.00000000000E+00  0.19994476239E+04  0.19994476239E+04  0.25500000000E-02 0. -1.
         -2   -1    0    0    0  501 -0.00000000000E+00 -0.00000000000E+00 -0.33854354031E+03  0.33854354032E+03  0.25500000000E-02 0.  1.
    8880022    1    1    2    0    0 -0.46300357104E+03  0.30086895442E+03 -0.84726820438E+01  0.57302519481E+03  0.15294330000E+03 0.  0.
    8880022    1    1    2    0    0  0.46300357104E+03 -0.30086895442E+03  0.16693767657E+04  0.17649659695E+04  0.15294330000E+03 0. -1.
<mgrwt>
<rscale>  0 0.57296255E+03</rscale>
<asrwt>0</asrwt>
<pdfrwt beam="1">  1        2 0.30760732E+00 0.57296255E+03</pdfrwt>
<pdfrwt beam="2">  1       -2 0.52083622E-01 0.57296255E+03</pdfrwt>
<totfact> 0.24712693E+01</totfact>
</mgrwt>
</event>
<event>
 4    1  0.5387657E-008  0.8467984E+03  0.7818608E-02  0.9494644E-01
          2   -1    0    0  501    0  0.00000000000E+00  0.00000000000E+00  0.99663999420E+03  0.99663999421E+03  0.25500000000E-02 0. -1.
         -2   -1    0    0    0  501 -0.00000000000E+00 -0.00000000000E+00 -0.13582875814E+04  0.13582875814E+04  0.25500000000E-02 0.  1.
    8880022    1    1    2    0    0 -0.30564355037E+03  0.77476312387E+03  0.62666224870E+03  0.10534576902E+04  0.15294330000E+03 0.  0.
    8880022    1    1    2    0    0  0.30564355037E+03 -0.77476312387E+03 -0.98830983588E+03  0.13014698854E+04  0.15294330000E+03 0.  0.
<mgrwt>
<rscale>  0 0.84679840E+03</rscale>
<asrwt>0</asrwt>
<pdfrwt beam="1">  1        2 0.15332923E+00 0.84679840E+03</pdfrwt>
<pdfrwt beam="2">  1       -2 0.20896732E+00 0.84679840E+03</pdfrwt>
<totfact> 0.29775260E+00</totfact>
</mgrwt>
</event>
<event>
 4    1  0.5387657E-008  0.4770692E+03  0.7818608E-02  0.1019944E+00
         -2   -1    0    0    0  501 -0.00000000000E+00  0.00000000000E+00  0.10979556636E+03  0.10979556639E+03  0.25500000000E-02 0.  1.
          2   -1    0    0  501    0  0.00000000000E+00 -0.00000000000E+00 -0.37463800818E+04  0.37463800818E+04  0.25500000000E-02 0. -1.
    8880022    1    1    2    0    0 -0.44519879599E+03  0.77468465966E+02 -0.52965270274E+03  0.71283025308E+03  0.15294330000E+03 0.  0.
    8880022    1    1    2    0    0  0.44519879599E+03 -0.77468465966E+02 -0.31069318127E+04  0.31433453951E+04  0.15294330000E+03 0. -1.
<mgrwt>
<rscale>  0 0.47706916E+03</rscale>
<asrwt>0</asrwt>
<pdfrwt beam="1">  1        2 0.57636607E+00 0.47706916E+03</pdfrwt>
<pdfrwt beam="2">  1       -2 0.16891628E-01 0.47706916E+03</pdfrwt>
<totfact> 0.17885202E+01</totfact>
</mgrwt>
</event>
<event>
 4    1  0.5387657E-008  0.7858346E+03  0.7818608E-02  0.9580750E-01
         -2   -1    0    0    0  501 -0.00000000000E+00  0.00000000000E+00  0.57590384071E+03  0.57590384072E+03  0.25500000000E-02 0.  1.
          2   -1    0    0  501    0  0.00000000000E+00 -0.00000000000E+00 -0.19501774217E+04  0.19501774217E+04  0.25500000000E-02 0. -1.
    8880022    1    1    2    0    0  0.69196210133E+03 -0.33960694167E+03 -0.15345585462E+04  0.17240667067E+04  0.15294330000E+03 0.  0.
    8880022    1    1    2    0    0 -0.69196210133E+03  0.33960694167E+03  0.16028496519E+03  0.80201455572E+03  0.15294330000E+03 0.  0.
<mgrwt>
<rscale>  0 0.78583464E+03</rscale>
<asrwt>0</asrwt>
<pdfrwt beam="1">  1        2 0.30002729E+00 0.78583464E+03</pdfrwt>
<pdfrwt beam="2">  1       -2 0.88600592E-01 0.78583464E+03</pdfrwt>
<totfact> 0.80282257E+00</totfact>
</mgrwt>
</event>
<event>
 4    1  0.5387657E-008  0.8774750E+03  0.7818608E-02  0.9454185E-01
          2   -1    0    0  501    0  0.00000000000E+00  0.00000000000E+00  0.79361706199E+03  0.79361706200E+03  0.25500000000E-02 0. -1.
         -2   -1    0    0    0  501 -0.00000000000E+00 -0.00000000000E+00 -0.14325747300E+04  0.14325747300E+04  0.25500000000E-02 0.  1.
    8880022    1    1    2    0    0 -0.83544055579E+03 -0.22047637381E+03 -0.95185262745E+03  0.12945987143E+04  0.15294330000E+03 0.  0.
    8880022    1    1    2    0    0  0.83544055579E+03  0.22047637381E+03  0.31289495948E+03  0.93159307767E+03  0.15294330000E+03 0.  0.
<mgrwt>
<rscale>  0 0.87747502E+03</rscale>
<asrwt>0</asrwt>
<pdfrwt beam="1">  1        2 0.12209493E+00 0.87747502E+03</pdfrwt>
<pdfrwt beam="2">  1       -2 0.22039611E+00 0.87747502E+03</pdfrwt>
<totfact> 0.34495529E+00</totfact>
</mgrwt>
</event>
<event>
 4    1  0.5387657E-008  0.3474633E+03  0.7818608E-02  0.1063661E+00
          2   -1    0    0  501    0  0.00000000000E+00  0.00000000000E+00  0.47699861953E+04  0.47699861953E+04  0.25500000000E-02 0. -1.
         -2   -1    0    0    0  501 -0.00000000000E+00 -0.00000000000E+00 -0.18523311712E+03  0.18523311714E+03  0.25500000000E-02 0.  1.
    8880022    1    1    2    0    0  0.24825850438E+03 -0.18896244661E+03 -0.97463830584E+01  0.34759996580E+03  0.15294330000E+03 0.  0.
    8880022    1    1    2    0    0 -0.24825850438E+03  0.18896244661E+03  0.45944994613E+04  0.46076193467E+04  0.15294330000E+03 0.  0.
<mgrwt>
<rscale>  0 0.34746330E+03</rscale>
<asrwt>0</asrwt>
<pdfrwt beam="1">  1        2 0.73384390E+00 0.34746330E+03</pdfrwt>
<pdfrwt beam="2">  1       -2 0.28497408E-01 0.34746330E+03</pdfrwt>
<totfact> 0.98764047E-01</totfact>
</mgrwt>
</event>
<event>
 4    1  0.5387657E-008  0.1001853E+04  0.7818608E-02  0.9306514E-01
         -2   -1    0    0    0  501 -0.00000000000E+00  0.00000000000E+00  0.93327711316E+03  0.93327711317E+03  0.25500000000E-02 0.  1.
          2   -1    0    0  501    0  0.00000000000E+00 -0.00000000000E+00 -0.17805983257E+04  0.17805983257E+04  0.25500000000E-02 0. -1.
    8880022    1    1    2    0    0 -0.15639045906E+03  0.97768129781E+03  0.43024803237E+03  0.10903319303E+04  0.15294330000E+03 0.  0.
    8880022    1    1    2    0    0  0.15639045906E+03 -0.97768129781E+03 -0.12775692449E+04  0.16235435086E+04  0.15294330000E+03 0.  0.
<mgrwt>
<rscale>  0 0.10018535E+04</rscale>
<asrwt>0</asrwt>
<pdfrwt beam="1">  1        2 0.27393820E+00 0.10018535E+04</pdfrwt>
<pdfrwt beam="2">  1       -2 0.14358109E+00 0.10018535E+04</pdfrwt>
<totfact> 0.29595732E+00</totfact>
</mgrwt>
</event>
<event>
 4    1  0.5387657E-008  0.3607458E+03  0.7818608E-02  0.1058289E+00
         -2   -1    0    0    0  501 -0.00000000000E+00  0.00000000000E+00  0.11432099328E+04  0.11432099328E+04  0.25500000000E-02 0.  1.
          2   -1    0    0  501    0  0.00000000000E+00 -0.00000000000E+00 -0.15307950524E+04  0.15307950524E+04  0.25500000000E-02 0. -1.
    8880022    1    1    2    0    0 -0.25016024141E+03  0.21015645824E+03 -0.14801227538E+04  0.15234503283E+04  0.15294330000E+03 0.  0.
    8880022    1    1    2    0    0  0.25016024141E+03 -0.21015645824E+03  0.10925376342E+04  0.11505546569E+04  0.15294330000E+03 0.  0.
<mgrwt>
<rscale>  0 0.36074581E+03</rscale>
<asrwt>0</asrwt>
<pdfrwt beam="1">  1        2 0.23550693E+00 0.36074581E+03</pdfrwt>
<pdfrwt beam="2">  1       -2 0.17587845E+00 0.36074581E+03</pdfrwt>
<totfact> 0.26747547E+00</totfact>
</mgrwt>
</event>
<event>
 4    1  0.5387657E-008  0.5751135E+03  0.7818608E-02  0.9958427E-01
          2   -1    0    0  501    0  0.00000000000E+00  0.00000000000E+00  0.22535033391E+04  0.22535033391E+04  0.25500000000E-02 0. -1.
         -2   -1    0    0    0  501 -0.00000000000E+00 -0.00000000000E+00 -0.87601332242E+03  0.87601332242E+03  0.25500000000E-02 0.  1.
    8880022    1    1    2    0    0 -0.41666267834E+03 -0.36572675198E+03 -0.73892219514E+03  0.93635543899E+03  0.15294330000E+03 0.  0.
    8880022    1    1    2    0    0  0.41666267834E+03  0.36572675198E+03  0.21164122118E+04  0.21931612225E+04  0.15294330000E+03 0.  0.
<mgrwt>
<rscale>  0 0.57511347E+03</rscale>
<asrwt>0</asrwt>
<pdfrwt beam="1">  1        2 0.34669282E+00 0.57511347E+03</pdfrwt>
<pdfrwt beam="2">  1       -2 0.13477128E+00 0.57511347E+03</pdfrwt>
<totfact> 0.20708255E+00</totfact>
</mgrwt>
</event>
<event>
 4    1  0.5387657E-008  0.3292952E+03  0.7818608E-02  0.1071449E+00
          2   -1    0    0  501    0  0.00000000000E+00  0.00000000000E+00  0.25885762588E+03  0.25885762590E+03  0.25500000000E-02 0. -1.
         -2   -1    0    0    0  501 -0.00000000000E+00 -0.00000000000E+00 -0.78610261762E+03  0.78610261762E+03  0.25500000000E-02 0.  1.
    8880022    1    1    2    0    0  0.94429452047E+02  0.27591079407E+03 -0.62071711517E+03  0.70265573205E+03  0.15294330000E+03 0.  1.
    8880022    1    1    2    0    0 -0.94429452047E+02 -0.27591079407E+03  0.93472123434E+02  0.34230451147E+03  0.15294330000E+03 0.  0.
<mgrwt>
<rscale>  0 0.32929522E+03</rscale>
<asrwt>0</asrwt>
<pdfrwt beam="1">  1        2 0.39824250E-01 0.32929522E+03</pdfrwt>
<pdfrwt beam="2">  1       -2 0.12093886E+00 0.32929522E+03</pdfrwt>
<totfact> 0.70103238E+01</totfact>
</mgrwt>
</event>
<event>
 4    1  0.5387657E-008  0.5895658E+03  0.7818608E-02  0.9927293E-01
         -2   -1    0    0    0  501 -0.00000000000E+00  0.00000000000E+00  0.25077420441E+03  0.25077420442E+03  0.25500000000E-02 0.  1.
          2   -1    0    0  501    0  0.00000000000E+00 -0.00000000000E+00 -0.17318211086E+04  0.17318211087E+04  0.25500000000E-02 0. -1.
    8880022    1    1    2    0    0  0.12311845402E+03  0.55591186861E+03 -0.29758708352E+03  0.66041341952E+03  0.15294330000E+03 0.  0.
    8880022    1    1    2    0    0 -0.12311845402E+03 -0.55591186861E+03 -0.11834598207E+04  0.13221818936E+04  0.15294330000E+03 0.  0.
<mgrwt>
<rscale>  0 0.58956578E+03</rscale>
<asrwt>0</asrwt>
<pdfrwt beam="1">  1        2 0.26643401E+00 0.58956578E+03</pdfrwt>
<pdfrwt beam="2">  1       -2 0.38580648E-01 0.58956578E+03</pdfrwt>
<totfact> 0.62407698E+01</totfact>
</mgrwt>
</event>
<event>
 4    1  0.5387657E-008  0.3787823E+03  0.7818608E-02  0.1051385E+00
          2   -1    0    0  501    0  0.00000000000E+00  0.00000000000E+00  0.14826803244E+04  0.14826803244E+04  0.25500000000E-02 0. -1.
         -2   -1    0    0    0  501 -0.00000000000E+00 -0.00000000000E+00 -0.36309050302E+03  0.36309050303E+03  0.25500000000E-02 0.  1.
    8880022    1    1    2    0    0 -0.10299338757E+03 -0.33087269331E+03  0.13501900445E+04  0.14023156515E+04  0.15294330000E+03 0.  0.
    8880022    1    1    2    0    0  0.10299338757E+03  0.33087269331E+03 -0.23060022321E+03  0.44345517589E+03  0.15294330000E+03 0.  0.
<mgrwt>
<rscale>  0 0.37878230E+03</rscale>
<asrwt>0</asrwt>
<pdfrwt beam="1">  1        2 0.22810467E+00 0.37878230E+03</pdfrwt>
<pdfrwt beam="2">  1       -2 0.55860076E-01 0.37878230E+03</pdfrwt>
<totfact> 0.42246248E+01</totfact>
</mgrwt>
</event>
<event>
 4    1  0.5387657E-008  0.5624653E+03  0.7818608E-02  0.9986492E-01
          2   -1    0    0  501    0  0.00000000000E+00  0.00000000000E+00  0.62430148757E+03  0.62430148758E+03  0.25500000000E-02 0. -1.
         -2   -1    0    0    0  501 -0.00000000000E+00 -0.00000000000E+00 -0.86646825534E+03  0.86646825534E+03  0.25500000000E-02 0.  1.
    8880022    1    1    2    0    0 -0.16531796079E+03  0.51540807336E+03  0.35918409488E+03  0.66736824713E+03  0.15294330000E+03 0.  0.
    8880022    1    1    2    0    0  0.16531796079E+03 -0.51540807336E+03 -0.60135086264E+03  0.82340149579E+03  0.15294330000E+03 0.  0.
<mgrwt>
<rscale>  0 0.56246526E+03</rscale>
<asrwt>0</asrwt>
<pdfrwt beam="1">  1        2 0.96046383E-01 0.56246526E+03</pdfrwt>
<pdfrwt beam="2">  1       -2 0.13330281E+00 0.56246526E+03</pdfrwt>
<totfact> 0.19906470E+01</totfact>
</mgrwt>
</event>
<event>
 4    1  0.5387657E-008  0.3780504E+03  0.7818608E-02  0.1051657E+00
          2   -1    0    0  501    0  0.00000000000E+00  0.00000000000E+00  0.27331801072E+04  0.27331801072E+04  0.25500000000E-02 0. -1.
         -2   -1    0    0    0  501 -0.00000000000E+00 -0.00000000000E+00 -0.48154842317E+03  0.48154842318E+03  0.25500000000E-02 0.  1.
    8880022    1    1    2    0    0  0.29847447853E+03  0.17448046798E+03 -0.39176899278E+03  0.54443093663E+03  0.15294330000E+03 0.  0.
    8880022    1    1    2    0    0 -0.29847447853E+03 -0.17448046798E+03  0.26434006768E+04  0.26702975937E+04  0.15294330000E+03 0. -1.
<mgrwt>
<rscale>  0 0.37805039E+03</rscale>
<asrwt>0</asrwt>
<pdfrwt beam="1">  1        2 0.42048926E+00 0.37805039E+03</pdfrwt>
<pdfrwt beam="2">  1       -2 0.74084371E-01 0.37805039E+03</pdfrwt>
<totfact> 0.48598169E+00</totfact>
</mgrwt>
</event>
<event>
 4    1  0.5387657E-008  0.6139878E+03  0.7818608E-02  0.9876803E-01
          2   -1    0    0  501    0  0.00000000000E+00  0.00000000000E+00  0.11855477701E+04  0.11855477701E+04  0.25500000000E-02 0. -1.
         -2   -1    0    0    0  501 -0.00000000000E+00 -0.00000000000E+00 -0.32500797907E+03  0.32500797908E+03  0.25500000000E-02 0.  1.
    8880022    1    1    2    0    0  0.22727910323E+03  0.54948485284E+03  0.31920924986E+03  0.69200837602E+03  0.15294330000E+03 0.  0.
    8880022    1    1    2    0    0 -0.22727910323E+03 -0.54948485284E+03  0.54133054113E+03  0.81854737312E+03  0.15294330000E+03 0.  0.
<mgrwt>
<rscale>  0 0.61398782E+03</rscale>
<asrwt>0</asrwt>
<pdfrwt beam="1">  1        2 0.18239196E+00 0.61398782E+03</pdfrwt>
<pdfrwt beam="2">  1       -2 0.50001228E-01 0.61398782E+03</pdfrwt>
<totfact> 0.75273283E+01</totfact>
</mgrwt>
</event>
<event>
 4    1  0.5387657E-008  0.4301670E+03  0.7818608E-02  0.1033807E+00
          2   -1    0    0  501    0  0.00000000000E+00  0.00000000000E+00  0.29545919486E+04  0.29545919486E+04  0.25500000000E-02 0. -1.
         -2   -1    0    0    0  501 -0.00000000000E+00 -0.00000000000E+00 -0.16291029391E+03  0.16291029393E+03  0.25500000000E-02 0.  1.
    8880022    1    1    2    0    0 -0.38303715570E+03 -0.12220689362E+03  0.17288122228E+03  0.46360711549E+03  0.15294330000E+03 0.  0.
    8880022    1    1    2    0    0  0.38303715570E+03  0.12220689362E+03  0.26188004324E+04  0.26538951270E+04  0.15294330000E+03 0.  0.
<mgrwt>
<rscale>  0 0.43016699E+03</rscale>
<asrwt>0</asrwt>
<pdfrwt beam="1">  1        2 0.45455257E+00 0.43016699E+03</pdfrwt>
<pdfrwt beam="2">  1       -2 0.25063124E-01 0.43016699E+03</pdfrwt>
<totfact> 0.29927400E+01</totfact>
</mgrwt>
</event>
<event>
 4    1  0.5387657E-008  0.2036507E+03  0.7818608E-02  0.1146695E+00
          2   -1    0    0  501    0  0.00000000000E+00  0.00000000000E+00  0.75081789042E+02  0.75081789085E+02  0.25500000000E-02 0. -1.
         -2   -1    0    0    0  501 -0.00000000000E+00 -0.00000000000E+00 -0.91889906991E+03  0.91889906991E+03  0.25500000000E-02 0.  1.
    8880022    1    1    2    0    0  0.13244056899E+03 -0.23268648425E+02 -0.10802901322E+03  0.23052951010E+03  0.15294330000E+03 0. -1.
    8880022    1    1    2    0    0 -0.13244056899E+03  0.23268648425E+02 -0.73578826764E+03  0.76345134890E+03  0.15294330000E+03 0.  0.
<mgrwt>
<rscale>  0 0.20365065E+03</rscale>
<asrwt>0</asrwt>
<pdfrwt beam="1">  1        2 0.11551045E-01 0.20365065E+03</pdfrwt>
<pdfrwt beam="2">  1       -2 0.14136908E+00 0.20365065E+03</pdfrwt>
<totfact> 0.19808518E+02</totfact>
</mgrwt>
</event>
<event>
 4    1  0.5387657E-008  0.1114851E+04  0.7818608E-02  0.9190837E-01
          2   -1    0    0  501    0  0.00000000000E+00  0.00000000000E+00  0.23584804971E+04  0.23584804971E+04  0.25500000000E-02 0. -1.
         -2   -1    0    0    0  501 -0.00000000000E+00 -0.00000000000E+00 -0.58812903800E+03  0.58812903801E+03  0.25500000000E-02 0.  1.
    8880022    1    1    2    0    0 -0.30038202693E+03 -0.10626717853E+04  0.41014626198E+03  0.11879024769E+04  0.15294330000E+03 0.  0.
    8880022    1    1    2    0    0  0.30038202693E+03  0.10626717853E+04  0.13602051971E+04  0.17587070582E+04  0.15294330000E+03 0.  0.
<mgrwt>
<rscale>  0 0.11148508E+04</rscale>
<asrwt>0</asrwt>
<pdfrwt beam="1">  1        2 0.36284316E+00 0.11148508E+04</pdfrwt>
<pdfrwt beam="2">  1       -2 0.90481389E-01 0.11148508E+04</pdfrwt>
<totfact> 0.43508853E+00</totfact>
</mgrwt>
</event>
<event>
 4    1  0.5387657E-008  0.4075236E+03  0.7818608E-02  0.1041205E+00
          2   -1    0    0  501    0  0.00000000000E+00  0.00000000000E+00  0.11414662700E+04  0.11414662700E+04  0.25500000000E-02 0. -1.
         -2   -1    0    0    0  501 -0.00000000000E+00 -0.00000000000E+00 -0.23389892359E+03  0.23389892360E+03  0.25500000000E-02 0.  1.
    8880022    1    1    2    0    0 -0.91540200591E+02  0.36647543269E+03  0.31003825689E+02  0.40870128616E+03  0.15294330000E+03 0.  0.
    8880022    1    1    2    0    0  0.91540200591E+02 -0.36647543269E+03  0.87656352076E+03  0.96666390748E+03  0.15294330000E+03 0.  0.
<mgrwt>
<rscale>  0 0.40752362E+03</rscale>
<asrwt>0</asrwt>
<pdfrwt beam="1">  1        2 0.17561019E+00 0.40752362E+03</pdfrwt>
<pdfrwt beam="2">  1       -2 0.35984450E-01 0.40752362E+03</pdfrwt>
<totfact> 0.15594960E+02</totfact>
</mgrwt>
</event>
<event>
 4    1  0.5387657E-008  0.7016895E+03  0.7818608E-02  0.9714347E-01
          2   -1    0    0  501    0  0.00000000000E+00  0.00000000000E+00  0.83389152863E+03  0.83389152863E+03  0.25500000000E-02 0. -1.
         -2   -1    0    0    0  501 -0.00000000000E+00 -0.00000000000E+00 -0.80070643112E+03  0.80070643113E+03  0.25500000000E-02 0.  1.
    8880022    1    1    2    0    0 -0.67592178146E+03 -0.11002863159E+03 -0.40222292093E+03  0.80879631896E+03  0.15294330000E+03 0.  0.
    8880022    1    1    2    0    0  0.67592178146E+03  0.11002863159E+03  0.43540801844E+03  0.82580164080E+03  0.15294330000E+03 0.  0.
<mgrwt>
<rscale>  0 0.70168954E+03</rscale>
<asrwt>0</asrwt>
<pdfrwt beam="1">  1        2 0.12829100E+00 0.70168954E+03</pdfrwt>
<pdfrwt beam="2">  1       -2 0.12318561E+00 0.70168954E+03</pdfrwt>
<totfact> 0.16533113E+01</totfact>
</mgrwt>
</event>
<event>
 4    1  0.5387657E-008  0.1119783E+04  0.7818608E-02  0.9186121E-01
         -2   -1    0    0    0  501 -0.00000000000E+00  0.00000000000E+00  0.39982057938E+04  0.39982057938E+04  0.25500000000E-02 0.  1.
          2   -1    0    0  501    0  0.00000000000E+00 -0.00000000000E+00 -0.14535958290E+04  0.14535958290E+04  0.25500000000E-02 0. -1.
    8880022    1    1    2    0    0 -0.17048896639E+03  0.10961097645E+04  0.36862988228E+04  0.38526242702E+04  0.15294330000E+03 0.  0.
    8880022    1    1    2    0    0  0.17048896639E+03 -0.10961097645E+04 -0.11416888580E+04  0.15991773526E+04  0.15294330000E+03 0.  0.
<mgrwt>
<rscale>  0 0.11197834E+04</rscale>
<asrwt>0</asrwt>
<pdfrwt beam="1">  1        2 0.22363013E+00 0.11197834E+04</pdfrwt>
<pdfrwt beam="2">  1       -2 0.61510858E+00 0.11197834E+04</pdfrwt>
<totfact> 0.57591248E-03</totfact>
</mgrwt>
</event>
<event>
 4    1  0.5387657E-008  0.1901547E+03  0.7818608E-02  0.1158322E+00
         -2   -1    0    0    0  501 -0.00000000000E+00  0.00000000000E+00  0.14102296466E+04  0.14102296466E+04  0.25500000000E-02 0.  1.
          2   -1    0    0  501    0  0.00000000000E+00 -0.00000000000E+00 -0.44629675909E+03  0.44629675910E+03  0.25500000000E-02 0. -1.
    8880022    1    1    2    0    0 -0.56572594307E+01 -0.11285021322E+03  0.13831702276E+04  0.13961800410E+04  0.15294330000E+03 0.  1.
    8880022    1    1    2    0    0  0.56572594307E+01  0.11285021322E+03 -0.41923734009E+03  0.46034636476E+03  0.15294330000E+03 0.  0.
<mgrwt>
<rscale>  0 0.19015475E+03</rscale>
<asrwt>0</asrwt>
<pdfrwt beam="1">  1        2 0.68661041E-01 0.19015475E+03</pdfrwt>
<pdfrwt beam="2">  1       -2 0.21695840E+00 0.19015475E+03</pdfrwt>
<totfact> 0.83382841E+00</totfact>
</mgrwt>
</event>
<event>
 4    1  0.5387657E-008  0.3641970E+03  0.7818608E-02  0.1056934E+00
         -2   -1    0    0    0  501 -0.00000000000E+00  0.00000000000E+00  0.58153376232E+03  0.58153376232E+03  0.25500000000E-02 0.  1.
          2   -1    0    0  501    0  0.00000000000E+00 -0.00000000000E+00 -0.53119037500E+03  0.53119037501E+03  0.25500000000E-02 0. -1.
    8880022    1    1    2    0    0  0.23154065714E+03  0.23587442354E+03  0.44544209939E+03  0.57537651717E+03  0.15294330000E+03 0.  0.
    8880022    1    1    2    0    0 -0.23154065714E+03 -0.23587442354E+03 -0.39509871208E+03  0.53734762016E+03  0.15294330000E+03 0. -1.
<mgrwt>
<rscale>  0 0.36419702E+03</rscale>
<asrwt>0</asrwt>
<pdfrwt beam="1">  1        2 0.81721596E-01 0.36419702E+03</pdfrwt>
<pdfrwt beam="2">  1       -2 0.89466733E-01 0.36419702E+03</pdfrwt>
<totfact> 0.64322381E+01</totfact>
</mgrwt>
</event>
<event>
 4    1  0.5387657E-008  0.1624972E+03  0.7818608E-02  0.1185906E+00
          2   -1    0    0  501    0  0.00000000000E+00  0.00000000000E+00  0.33041571547E+03  0.33041571547E+03  0.25500000000E-02 0. -1.
         -2   -1    0    0    0  501 -0.00000000000E+00 -0.00000000000E+00 -0.82595601070E+02  0.82595601110E+02  0.25500000000E-02 0.  1.
    8880022    1    1    2    0    0  0.54865713421E+02  0.18515955739E+01  0.86711051113E+02  0.18418505454E+03  0.15294330000E+03 0.  0.
    8880022    1    1    2    0    0 -0.54865713421E+02 -0.18515955739E+01  0.16110906328E+03  0.22882626205E+03  0.15294330000E+03 0.  1.
<mgrwt>
<rscale>  0 0.16249716E+03</rscale>
<asrwt>0</asrwt>
<pdfrwt beam="1">  1        2 0.50833188E-01 0.16249716E+03</pdfrwt>
<pdfrwt beam="2">  1       -2 0.12707015E-01 0.16249716E+03</pdfrwt>
<totfact> 0.43054641E+03</totfact>
</mgrwt>
</event>
<event>
 4    1  0.5387657E-008  0.7956245E+03  0.7818608E-02  0.9566372E-01
         -2   -1    0    0    0  501 -0.00000000000E+00  0.00000000000E+00  0.57195507364E+03  0.57195507365E+03  0.25500000000E-02 0.  1.
          2   -1    0    0  501    0  0.00000000000E+00 -0.00000000000E+00 -0.16579669164E+04  0.16579669164E+04  0.25500000000E-02 0. -1.
    8880022    1    1    2    0    0 -0.68737233144E+03 -0.37033232808E+03 -0.11858832372E+04  0.14280537317E+04  0.15294330000E+03 0.  0.
    8880022    1    1    2    0    0  0.68737233144E+03  0.37033232808E+03  0.99871394506E+02  0.80186825832E+03  0.15294330000E+03 0.  0.
<mgrwt>
<rscale>  0 0.79562454E+03</rscale>
<asrwt>0</asrwt>
<pdfrwt beam="1">  1        2 0.25507183E+00 0.79562454E+03</pdfrwt>
<pdfrwt beam="2">  1       -2 0.87993089E-01 0.79562454E+03</pdfrwt>
<totfact> 0.11767707E+01</totfact>
</mgrwt>
</event>
<event>
 4    1  0.5387657E-008  0.1751444E+03  0.7818608E-02  0.1172587E+00
          2   -1    0    0  501    0  0.00000000000E+00  0.00000000000E+00  0.44514536844E+02  0.44514536917E+02  0.25500000000E-02 0. -1.
         -2   -1    0    0    0  501 -0.00000000000E+00 -0.00000000000E+00 -0.13655915176E+04  0.13655915176E+04  0.25500000000E-02 0.  1.
    8880022    1    1    2    0    0  0.45012981581E+02  0.72510222875E+02 -0.16430242544E+03  0.24014753997E+03  0.15294330000E+03 0.  0.
    8880022    1    1    2    0    0 -0.45012981581E+02 -0.72510222875E+02 -0.11567745553E+04  0.11699585145E+04  0.15294330000E+03 0.  1.
<mgrwt>
<rscale>  0 0.17514438E+03</rscale>
<asrwt>0</asrwt>
<pdfrwt beam="1">  1        2 0.68483913E-02 0.17514438E+03</pdfrwt>
<pdfrwt beam="2">  1       -2 0.21009097E+00 0.17514438E+03</pdfrwt>
<totfact> 0.12991160E+02</totfact>
</mgrwt>
</event>
<event>
 4    1  0.5387657E-008  0.7827585E+03  0.7818608E-02  0.9585314E-01
          2   -1    0    0  501    0  0.00000000000E+00  0.00000000000E+00  0.15373184900E+04  0.15373184900E+04  0.25500000000E-02 0. -1.
         -2   -1    0    0    0  501 -0.00000000000E+00 -0.00000000000E+00 -0.42688695791E+03  0.42688695792E+03  0.25500000000E-02 0.  1.
    8880022    1    1    2    0    0  0.37830551861E+03 -0.66798509164E+03  0.80821236511E+03  0.11251302272E+04  0.15294330000E+03 0.  0.
    8880022    1    1    2    0    0 -0.37830551861E+03  0.66798509164E+03  0.30221916694E+03  0.83907522067E+03  0.15294330000E+03 0. -1.
<mgrwt>
<rscale>  0 0.78275846E+03</rscale>
<asrwt>0</asrwt>
<pdfrwt beam="1">  1        2 0.23651054E+00 0.78275846E+03</pdfrwt>
<pdfrwt beam="2">  1       -2 0.65674916E-01 0.78275846E+03</pdfrwt>
<totfact> 0.26344515E+01</totfact>
</mgrwt>
</event>
<event>
 4    1  0.5387657E-008  0.2586645E+03  0.7818608E-02  0.1107948E+00
          2   -1    0    0  501    0  0.00000000000E+00  0.00000000000E+00  0.21611675800E+03  0.21611675801E+03  0.25500000000E-02 0. -1.
         -2   -1    0    0    0  501 -0.00000000000E+00 -0.00000000000E+00 -0.36251944063E+03  0.36251944064E+03  0.25500000000E-02 0.  1.
    8880022    1    1    2    0    0 -0.15552000672E+03 -0.13902940672E+03 -0.18375268560E+03  0.31728906521E+03  0.15294330000E+03 0.  0.
    8880022    1    1    2    0    0  0.15552000672E+03  0.13902940672E+03  0.37350002965E+02  0.26134713344E+03  0.15294330000E+03 0.  0.
<mgrwt>
<rscale>  0 0.25866446E+03</rscale>
<asrwt>0</asrwt>
<pdfrwt beam="1">  1        2 0.33248732E-01 0.25866446E+03</pdfrwt>
<pdfrwt beam="2">  1       -2 0.55772222E-01 0.25866446E+03</pdfrwt>
<totfact> 0.48319648E+02</totfact>
</mgrwt>
</event>
<event>
 4    1  0.5387657E-008  0.6947505E+03  0.7818608E-02  0.9726252E-01
         -2   -1    0    0    0  501 -0.00000000000E+00  0.00000000000E+00  0.45115858264E+03  0.45115858264E+03  0.25500000000E-02 0.  1.
          2   -1    0    0  501    0  0.00000000000E+00 -0.00000000000E+00 -0.22323586512E+04  0.22323586512E+04  0.25500000000E-02 0. -1.
    8880022    1    1    2    0    0  0.72871022489E+02 -0.67377768996E+03  0.77650925148E+02  0.69907644832E+03  0.15294330000E+03 0.  0.
    8880022    1    1    2    0    0 -0.72871022489E+02  0.67377768996E+03 -0.18588509937E+04  0.19844407855E+04  0.15294330000E+03 0.  0.
<mgrwt>
<rscale>  0 0.69475047E+03</rscale>
<asrwt>0</asrwt>
<pdfrwt beam="1">  1        2 0.34343979E+00 0.69475047E+03</pdfrwt>
<pdfrwt beam="2">  1       -2 0.69409014E-01 0.69475047E+03</pdfrwt>
<totfact> 0.98533937E+00</totfact>
</mgrwt>
</event>
<event>
 4    1  0.5387657E-008  0.8268815E+03  0.7818608E-02  0.9521902E-01
          2   -1    0    0  501    0  0.00000000000E+00  0.00000000000E+00  0.31148838499E+04  0.31148838499E+04  0.25500000000E-02 0. -1.
         -2   -1    0    0    0  501 -0.00000000000E+00 -0.00000000000E+00 -0.29658688670E+03  0.29658688671E+03  0.25500000000E-02 0.  1.
    8880022    1    1    2    0    0 -0.75734307651E+03 -0.29457232729E+03  0.22787322597E+04  0.24241191711E+04  0.15294330000E+03 0.  0.
    8880022    1    1    2    0    0  0.75734307651E+03  0.29457232729E+03  0.53956470349E+03  0.98735156545E+03  0.15294330000E+03 0.  0.
<mgrwt>
<rscale>  0 0.82688152E+03</rscale>
<asrwt>0</asrwt>
<pdfrwt beam="1">  1        2 0.47921289E+00 0.82688152E+03</pdfrwt>
<pdfrwt beam="2">  1       -2 0.45628753E-01 0.82688152E+03</pdfrwt>
<totfact> 0.70664231E+00</totfact>
</mgrwt>
</event>
<event>
 4    1  0.5387657E-008  0.3709126E+03  0.7818608E-02  0.1054345E+00
         -2   -1    0    0    0  501 -0.00000000000E+00  0.00000000000E+00  0.47614536770E+03  0.47614536771E+03  0.25500000000E-02 0.  1.
          2   -1    0    0  501    0  0.00000000000E+00 -0.00000000000E+00 -0.76742125617E+03  0.76742125617E+03  0.25500000000E-02 0. -1.
    8880022    1    1    2    0    0 -0.21295478660E+02 -0.33724026271E+03 -0.63660895605E+03  0.73678158781E+03  0.15294330000E+03 0.  0.
    8880022    1    1    2    0    0  0.21295478660E+02  0.33724026271E+03  0.34533306759E+03  0.50678503607E+03  0.15294330000E+03 0.  1.
<mgrwt>
<rscale>  0 0.37091258E+03</rscale>
<asrwt>0</asrwt>
<pdfrwt beam="1">  1        2 0.11806481E+00 0.37091258E+03</pdfrwt>
<pdfrwt beam="2">  1       -2 0.73253134E-01 0.37091258E+03</pdfrwt>
<totfact> 0.64464654E+01</totfact>
</mgrwt>
</event>
<event>
 4    1  0.5387657E-008  0.6745143E+03  0.7818608E-02  0.9761837E-01
          2   -1    0    0  501    0  0.00000000000E+00  0.00000000000E+00  0.26296973646E+04  0.26296973646E+04  0.25500000000E-02 0. -1.
         -2   -1    0    0    0  501 -0.00000000000E+00 -0.00000000000E+00 -0.34324151678E+03  0.34324151678E+03  0.25500000000E-02 0.  1.
    8880022    1    1    2    0    0 -0.65682187797E+03 -0.12766017621E+02  0.96404777847E+02  0.68136883168E+03  0.15294330000E+03 0.  0.
    8880022    1    1    2    0    0  0.65682187797E+03  0.12766017621E+02  0.21900510700E+04  0.22915700497E+04  0.15294330000E+03 0.  0.
<mgrwt>
<rscale>  0 0.67451435E+03</rscale>
<asrwt>0</asrwt>
<pdfrwt beam="1">  1        2 0.40456883E+00 0.67451435E+03</pdfrwt>
<pdfrwt beam="2">  1       -2 0.52806387E-01 0.67451435E+03</pdfrwt>
<totfact> 0.10544766E+01</totfact>
</mgrwt>
</event>
<event>
 4    1  0.5387657E-008  0.7855365E+03  0.7818608E-02  0.9581192E-01
         -2   -1    0    0    0  501 -0.00000000000E+00  0.00000000000E+00  0.59038431975E+03  0.59038431975E+03  0.25500000000E-02 0.  1.
          2   -1    0    0  501    0  0.00000000000E+00 -0.00000000000E+00 -0.12851545232E+04  0.12851545232E+04  0.25500000000E-02 0. -1.
    8880022    1    1    2    0    0 -0.33431357134E+03  0.69419763121E+03  0.57830461491E+02  0.78766232007E+03  0.15294330000E+03 0.  0.
    8880022    1    1    2    0    0  0.33431357134E+03 -0.69419763121E+03 -0.75260066497E+03  0.10878765229E+04  0.15294330000E+03 0.  0.
<mgrwt>
<rscale>  0 0.78553648E+03</rscale>
<asrwt>0</asrwt>
<pdfrwt beam="1">  1        2 0.19771608E+00 0.78553648E+03</pdfrwt>
<pdfrwt beam="2">  1       -2 0.90828357E-01 0.78553648E+03</pdfrwt>
<totfact> 0.17735289E+01</totfact>
</mgrwt>
</event>
<event>
 4    1  0.5387657E-008  0.2892388E+03  0.7818608E-02  0.1090747E+00
          2   -1    0    0  501    0  0.00000000000E+00  0.00000000000E+00  0.14182069385E+04  0.14182069385E+04  0.25500000000E-02 0. -1.
         -2   -1    0    0    0  501 -0.00000000000E+00 -0.00000000000E+00 -0.29391898788E+03  0.29391898789E+03  0.25500000000E-02 0.  1.
    8880022    1    1    2    0    0 -0.18136075152E+03 -0.16545598946E+03 -0.20320731877E+03  0.35348588947E+03  0.15294330000E+03 0.  0.
    8880022    1    1    2    0    0  0.18136075152E+03  0.16545598946E+03  0.13274952694E+04  0.13586400369E+04  0.15294330000E+03 0.  0.
<mgrwt>
<rscale>  0 0.28923876E+03</rscale>
<asrwt>0</asrwt>
<pdfrwt beam="1">  1        2 0.21818568E+00 0.28923876E+03</pdfrwt>
<pdfrwt beam="2">  1       -2 0.45218306E-01 0.28923876E+03</pdfrwt>
<totfact> 0.71547090E+01</totfact>
</mgrwt>
</event>
<event>
 4    1  0.5387657E-008  0.3335731E+03  0.7818608E-02  0.1069567E+00
          2   -1    0    0  501    0  0.00000000000E+00  0.00000000000E+00  0.27193021507E+04  0.27193021507E+04  0.25500000000E-02 0. -1.
         -2   -1    0    0    0  501 -0.00000000000E+00 -0.00000000000E+00 -0.41609156913E+02  0.41609156991E+02  0.25500000000E-02 0.  1.
    8880022    1    1    2    0    0 -0.29640793656E+03 -0.46548517801E+01  0.11610521127E+04  0.12080202788E+04  0.15294330000E+03 0.  1.
    8880022    1    1    2    0    0  0.29640793656E+03  0.46548517801E+01  0.15166408810E+04  0.15528910288E+04  0.15294330000E+03 0. -1.
<mgrwt>
<rscale>  0 0.33357306E+03</rscale>
<asrwt>0</asrwt>
<pdfrwt beam="1">  1        2 0.41835414E+00 0.33357306E+03</pdfrwt>
<pdfrwt beam="2">  1       -2 0.64014094E-02 0.33357306E+03</pdfrwt>
<totfact> 0.40021103E+02</totfact>
</mgrwt>
</event>
<event>
 4    1  0.5387657E-008  0.2095696E+03  0.7818608E-02  0.1141907E+00
         -2   -1    0    0    0  501 -0.00000000000E+00  0.00000000000E+00  0.59773362061E+02  0.59773362115E+02  0.25500000000E-02 0.  1.
          2   -1    0    0  501    0  0.00000000000E+00 -0.00000000000E+00 -0.18821630323E+04  0.18821630323E+04  0.25500000000E-02 0. -1.
    8880022    1    1    2    0    0  0.12012401118E+03 -0.78089733866E+02 -0.15308307079E+03  0.25952623022E+03  0.15294330000E+03 0.  1.
    8880022    1    1    2    0    0 -0.12012401118E+03  0.78089733866E+02 -0.16693065994E+04  0.16824101642E+04  0.15294330000E+03 0.  0.
<mgrwt>
<rscale>  0 0.20956965E+03</rscale>
<asrwt>0</asrwt>
<pdfrwt beam="1">  1        2 0.28956350E+00 0.20956965E+03</pdfrwt>
<pdfrwt beam="2">  1       -2 0.91959033E-02 0.20956965E+03</pdfrwt>
<totfact> 0.65749870E+02</totfact>
</mgrwt>
</event>
<event>
 4    1  0.5387657E-008  0.5036354E+03  0.7818608E-02  0.1012834E+00
         -2   -1    0    0    0  501 -0.00000000000E+00  0.00000000000E+00  0.10086479510E+04  0.10086479510E+04  0.25500000000E-02 0.  1.
          2   -1    0    0  501    0  0.00000000000E+00 -0.00000000000E+00 -0.31652802220E+03  0.31652802221E+03  0.25500000000E-02 0. -1.
    8880022    1    1    2    0    0 -0.46684215426E+03  0.11097456446E+03  0.64644271183E+03  0.81947347953E+03  0.15294330000E+03 0.  0.
    8880022    1    1    2    0    0  0.46684215426E+03 -0.11097456446E+03  0.45677216973E+02  0.50570249368E+03  0.15294330000E+03 0.  0.
<mgrwt>
<rscale>  0 0.50363539E+03</rscale>
<asrwt>0</asrwt>
<pdfrwt beam="1">  1        2 0.48696619E-01 0.50363539E+03</pdfrwt>
<pdfrwt beam="2">  1       -2 0.15517661E+00 0.50363539E+03</pdfrwt>
<totfact> 0.29272672E+01</totfact>
</mgrwt>
</event>
<event>
 4    1  0.5387657E-008  0.5841769E+03  0.7818608E-02  0.9938789E-01
          2   -1    0    0  501    0  0.00000000000E+00  0.00000000000E+00  0.24642959005E+04  0.24642959005E+04  0.25500000000E-02 0. -1.
         -2   -1    0    0    0  501 -0.00000000000E+00 -0.00000000000E+00 -0.40747893538E+03  0.40747893539E+03  0.25500000000E-02 0.  1.
    8880022    1    1    2    0    0  0.56907714488E+02  0.56092108877E+03  0.21950591257E+04  0.22714636634E+04  0.15294330000E+03 0.  0.
    8880022    1    1    2    0    0 -0.56907714488E+02 -0.56092108877E+03 -0.13824216062E+03  0.60031117246E+03  0.15294330000E+03 0.  0.
<mgrwt>
<rscale>  0 0.58417686E+03</rscale>
<asrwt>0</asrwt>
<pdfrwt beam="1">  1        2 0.37912245E+00 0.58417686E+03</pdfrwt>
<pdfrwt beam="2">  1       -2 0.62689066E-01 0.58417686E+03</pdfrwt>
<totfact> 0.93146649E+00</totfact>
</mgrwt>
</event>
<event>
 4    1  0.5387657E-008  0.4637331E+03  0.7818608E-02  0.1023704E+00
          2   -1    0    0  501    0  0.00000000000E+00  0.00000000000E+00  0.10513294692E+04  0.10513294692E+04  0.25500000000E-02 0. -1.
         -2   -1    0    0    0  501 -0.00000000000E+00 -0.00000000000E+00 -0.46606981616E+03  0.46606981617E+03  0.25500000000E-02 0.  1.
    8880022    1    1    2    0    0 -0.19030546186E+03 -0.39425949747E+03 -0.27569618899E+03  0.53949676718E+03  0.15294330000E+03 0.  0.
    8880022    1    1    2    0    0  0.19030546186E+03  0.39425949747E+03  0.86095584199E+03  0.97790251816E+03  0.15294330000E+03 0.  0.
<mgrwt>
<rscale>  0 0.46373308E+03</rscale>
<asrwt>0</asrwt>
<pdfrwt beam="1">  1        2 0.16174299E+00 0.46373308E+03</pdfrwt>
<pdfrwt beam="2">  1       -2 0.71703050E-01 0.46373308E+03</pdfrwt>
<totfact> 0.43290136E+01</totfact>
</mgrwt>
</event>
<event>
 4    1  0.5387657E-008  0.4447714E+03  0.7818608E-02  0.1029293E+00
          2   -1    0    0  501    0  0.00000000000E+00  0.00000000000E+00  0.63323027103E+03  0.63323027103E+03  0.25500000000E-02 0. -1.
         -2   -1    0    0    0  501 -0.00000000000E+00 -0.00000000000E+00 -0.85822626827E+03  0.85822626827E+03  0.25500000000E-02 0.  1.
    8880022    1    1    2    0    0  0.69323361543E+02  0.41185459100E+03 -0.70720991364E+03  0.83544446108E+03  0.15294330000E+03 0.  0.
    8880022    1    1    2    0    0 -0.69323361543E+02 -0.41185459100E+03  0.48221391641E+03  0.65601207822E+03  0.15294330000E+03 0.  0.
<mgrwt>
<rscale>  0 0.44477139E+03</rscale>
<asrwt>0</asrwt>
<pdfrwt beam="1">  1        2 0.97420042E-01 0.44477139E+03</pdfrwt>
<pdfrwt beam="2">  1       -2 0.13203481E+00 0.44477139E+03</pdfrwt>
<totfact> 0.20371305E+01</totfact>
</mgrwt>
</event>
<event>
 4    1  0.5387657E-008  0.1036449E+04  0.7818608E-02  0.9269448E-01
         -2   -1    0    0    0  501 -0.00000000000E+00  0.00000000000E+00  0.68980466761E+03  0.68980466762E+03  0.25500000000E-02 0.  1.
          2   -1    0    0  501    0  0.00000000000E+00 -0.00000000000E+00 -0.20125794787E+04  0.20125794787E+04  0.25500000000E-02 0. -1.
    8880022    1    1    2    0    0  0.76034209014E+03  0.68754225528E+03 -0.18723002443E+02  0.10366178904E+04  0.15294330000E+03 0.  0.
    8880022    1    1    2    0    0 -0.76034209014E+03 -0.68754225528E+03 -0.13040518087E+04  0.16657662560E+04  0.15294330000E+03 0.  0.
<mgrwt>
<rscale>  0 0.10364488E+04</rscale>
<asrwt>0</asrwt>
<pdfrwt beam="1">  1        2 0.30962761E+00 0.10364488E+04</pdfrwt>
<pdfrwt beam="2">  1       -2 0.10612380E+00 0.10364488E+04</pdfrwt>
<totfact> 0.46906862E+00</totfact>
</mgrwt>
</event>
<event>
 4    1  0.5387657E-008  0.3402444E+03  0.7818608E-02  0.1066692E+00
          2   -1    0    0  501    0  0.00000000000E+00  0.00000000000E+00  0.17244481622E+04  0.17244481622E+04  0.25500000000E-02 0. -1.
         -2   -1    0    0    0  501 -0.00000000000E+00 -0.00000000000E+00 -0.12513696710E+03  0.12513696713E+03  0.25500000000E-02 0.  1.
    8880022    1    1    2    0    0  0.30156415036E+03 -0.37864112126E+02  0.17002945974E+03  0.38036337622E+03  0.15294330000E+03 0. -1.
    8880022    1    1    2    0    0 -0.30156415036E+03  0.37864112126E+02  0.14292817353E+04  0.14692217531E+04  0.15294330000E+03 0. -1.
<mgrwt>
<rscale>  0 0.34024444E+03</rscale>
<asrwt>0</asrwt>
<pdfrwt beam="1">  1        2 0.26529973E+00 0.34024444E+03</pdfrwt>
<pdfrwt beam="2">  1       -2 0.19251840E-01 0.34024444E+03</pdfrwt>
<totfact> 0.23127000E+02</totfact>
</mgrwt>
</event>
<event>
 4    1  0.5387657E-008  0.3865915E+03  0.7818608E-02  0.1048524E+00
         -2   -1    0    0    0  501 -0.00000000000E+00  0.00000000000E+00  0.53252586170E+02  0.53252586231E+02  0.25500000000E-02 0.  1.
          2   -1    0    0  501    0  0.00000000000E+00 -0.00000000000E+00 -0.34200673529E+04  0.34200673529E+04  0.25500000000E-02 0. -1.
    8880022    1    1    2    0    0  0.26136079538E+03 -0.24031616952E+03 -0.94782508860E+03  0.10236334199E+04  0.15294330000E+03 0. -1.
    8880022    1    1    2    0    0 -0.26136079538E+03  0.24031616952E+03 -0.24189896782E+04  0.24496865193E+04  0.15294330000E+03 0.  1.
<mgrwt>
<rscale>  0 0.38659149E+03</rscale>
<asrwt>0</asrwt>
<pdfrwt beam="1">  1        2 0.52616404E+00 0.38659149E+03</pdfrwt>
<pdfrwt beam="2">  1       -2 0.81927083E-02 0.38659149E+03</pdfrwt>
<totfact> 0.10054673E+02</totfact>
</mgrwt>
</event>
<event>
 4    1  0.5387657E-008  0.3638705E+03  0.7818608E-02  0.1057062E+00
          2   -1    0    0  501    0  0.00000000000E+00  0.00000000000E+00  0.12321639241E+04  0.12321639241E+04  0.25500000000E-02 0. -1.
         -2   -1    0    0    0  501 -0.00000000000E+00 -0.00000000000E+00 -0.22672857484E+03  0.22672857485E+03  0.25500000000E-02 0.  1.
    8880022    1    1    2    0    0  0.31140083440E+03 -0.10972502790E+03 -0.26352115848E+02  0.36482344831E+03  0.15294330000E+03 0.  0.
    8880022    1    1    2    0    0 -0.31140083440E+03  0.10972502790E+03  0.10317874651E+04  0.10940690506E+04  0.15294330000E+03 0.  0.
<mgrwt>
<rscale>  0 0.36387046E+03</rscale>
<asrwt>0</asrwt>
<pdfrwt beam="1">  1        2 0.18956368E+00 0.36387046E+03</pdfrwt>
<pdfrwt beam="2">  1       -2 0.34881320E-01 0.36387046E+03</pdfrwt>
<totfact> 0.14739078E+02</totfact>
</mgrwt>
</event>
<event>
 4    1  0.5387657E-008  0.5350001E+03  0.7818608E-02  0.1005027E+00
          2   -1    0    0  501    0  0.00000000000E+00  0.00000000000E+00  0.66168853111E+03  0.66168853111E+03  0.25500000000E-02 0. -1.
         -2   -1    0    0    0  501 -0.00000000000E+00 -0.00000000000E+00 -0.13004319619E+04  0.13004319619E+04  0.25500000000E-02 0.  1.
    8880022    1    1    2    0    0 -0.11817952612E+03  0.49886574726E+03  0.48208073760E+03  0.72015756939E+03  0.15294330000E+03 0.  0.
    8880022    1    1    2    0    0  0.11817952612E+03 -0.49886574726E+03 -0.11208241684E+04  0.12419629236E+04  0.15294330000E+03 0.  0.
<mgrwt>
<rscale>  0 0.53500008E+03</rscale>
<asrwt>0</asrwt>
<pdfrwt beam="1">  1        2 0.10179824E+00 0.53500008E+03</pdfrwt>
<pdfrwt beam="2">  1       -2 0.20006645E+00 0.53500008E+03</pdfrwt>
<totfact> 0.61550859E+00</totfact>
</mgrwt>
</event>
<event>
 4    1  0.5387657E-008  0.1088375E+04  0.7818608E-02  0.9216597E-01
          2   -1    0    0  501    0  0.00000000000E+00  0.00000000000E+00  0.10063882032E+04  0.10063882032E+04  0.25500000000E-02 0. -1.
         -2   -1    0    0    0  501 -0.00000000000E+00 -0.00000000000E+00 -0.16465322000E+04  0.16465322000E+04  0.25500000000E-02 0.  1.
    8880022    1    1    2    0    0 -0.52021242443E+03 -0.94368863378E+03  0.38823661926E+03  0.11555468531E+04  0.15294330000E+03 0.  0.
    8880022    1    1    2    0    0  0.52021242443E+03  0.94368863378E+03 -0.10283806161E+04  0.14973735501E+04  0.15294330000E+03 0.  0.
<mgrwt>
<rscale>  0 0.10883753E+04</rscale>
<asrwt>0</asrwt>
<pdfrwt beam="1">  1        2 0.15482896E+00 0.10883753E+04</pdfrwt>
<pdfrwt beam="2">  1       -2 0.25331264E+00 0.10883753E+04</pdfrwt>
<totfact> 0.15093245E+00</totfact>
</mgrwt>
</event>
<event>
 4    1  0.5387657E-008  0.6358878E+03  0.7818608E-02  0.9833626E-01
          2   -1    0    0  501    0  0.00000000000E+00  0.00000000000E+00  0.83443897925E+03  0.83443897926E+03  0.25500000000E-02 0. -1.
         -2   -1    0    0    0  501 -0.00000000000E+00 -0.00000000000E+00 -0.74514236145E+03  0.74514236145E+03  0.25500000000E-02 0.  1.
    8880022    1    1    2    0    0  0.49573031708E+03  0.36771337546E+03 -0.42238443257E+03  0.76338845659E+03  0.15294330000E+03 0.  0.
    8880022    1    1    2    0    0 -0.49573031708E+03 -0.36771337546E+03  0.51168105038E+03  0.81619288412E+03  0.15294330000E+03 0.  0.
<mgrwt>
<rscale>  0 0.63588783E+03</rscale>
<asrwt>0</asrwt>
<pdfrwt beam="1">  1        2 0.12837523E+00 0.63588783E+03</pdfrwt>
<pdfrwt beam="2">  1       -2 0.11463729E+00 0.63588783E+03</pdfrwt>
<totfact> 0.19870749E+01</totfact>
</mgrwt>
</event>
<event>
 4    1  0.5387657E-008  0.4804511E+03  0.7818608E-02  0.1019011E+00
         -2   -1    0    0    0  501 -0.00000000000E+00  0.00000000000E+00  0.14205687263E+03  0.14205687265E+03  0.25500000000E-02 0.  1.
          2   -1    0    0  501    0  0.00000000000E+00 -0.00000000000E+00 -0.31881163700E+04  0.31881163700E+04  0.25500000000E-02 0. -1.
    8880022    1    1    2    0    0 -0.38296833883E+03  0.24652968933E+03 -0.26889647268E+04  0.27315498515E+04  0.15294330000E+03 0.  0.
    8880022    1    1    2    0    0  0.38296833883E+03 -0.24652968933E+03 -0.35709477062E+03  0.59862339120E+03  0.15294330000E+03 0.  1.
<mgrwt>
<rscale>  0 0.48045113E+03</rscale>
<asrwt>0</asrwt>
<pdfrwt beam="1">  1        2 0.49047939E+00 0.48045113E+03</pdfrwt>
<pdfrwt beam="2">  1       -2 0.21854906E-01 0.48045113E+03</pdfrwt>
<totfact> 0.27090174E+01</totfact>
</mgrwt>
</event>
<event>
 4    1  0.5387657E-008  0.6932617E+03  0.7818608E-02  0.9728826E-01
          2   -1    0    0  501    0  0.00000000000E+00  0.00000000000E+00  0.26019149144E+04  0.26019149144E+04  0.25500000000E-02 0. -1.
         -2   -1    0    0    0  501 -0.00000000000E+00 -0.00000000000E+00 -0.45455513167E+03  0.45455513167E+03  0.25500000000E-02 0.  1.
    8880022    1    1    2    0    0 -0.76684929122E+02  0.67181805312E+03 -0.10379170777E+03  0.70098819281E+03  0.15294330000E+03 0.  0.
    8880022    1    1    2    0    0  0.76684929122E+02 -0.67181805312E+03  0.22511514905E+04  0.23554818532E+04  0.15294330000E+03 0.  0.
<mgrwt>
<rscale>  0 0.69326166E+03</rscale>
<asrwt>0</asrwt>
<pdfrwt beam="1">  1        2 0.40029460E+00 0.69326166E+03</pdfrwt>
<pdfrwt beam="2">  1       -2 0.69931559E-01 0.69326166E+03</pdfrwt>
<totfact> 0.60160147E+00</totfact>
</mgrwt>
</event>
<event>
 4    1  0.5387657E-008  0.2471540E+03  0.7818608E-02  0.1115117E+00
         -2   -1    0    0    0  501 -0.00000000000E+00  0.00000000000E+00  0.53256603100E+03  0.53256603100E+03  0.25500000000E-02 0.  1.
          2   -1    0    0  501    0  0.00000000000E+00 -0.00000000000E+00 -0.90379267923E+03  0.90379267924E+03  0.25500000000E-02 0. -1.
    8880022    1    1    2    0    0 -0.35330463659E+02 -0.19090622688E+03 -0.85667531205E+03  0.89161520423E+03  0.15294330000E+03 0.  0.
    8880022    1    1    2    0    0  0.35330463659E+02  0.19090622688E+03  0.48544866381E+03  0.54474350601E+03  0.15294330000E+03 0.  0.
<mgrwt>
<rscale>  0 0.24715396E+03</rscale>
<asrwt>0</asrwt>
<pdfrwt beam="1">  1        2 0.13904503E+00 0.24715396E+03</pdfrwt>
<pdfrwt beam="2">  1       -2 0.81933236E-01 0.24715396E+03</pdfrwt>
<totfact> 0.41679139E+01</totfact>
</mgrwt>
</event>
<event>
 4    1  0.5387657E-008  0.9952848E+03  0.7818608E-02  0.9313732E-01
         -2   -1    0    0    0  501 -0.00000000000E+00  0.00000000000E+00  0.12709048309E+04  0.12709048309E+04  0.25500000000E-02 0.  1.
          2   -1    0    0  501    0  0.00000000000E+00 -0.00000000000E+00 -0.13877720783E+04  0.13877720783E+04  0.25500000000E-02 0. -1.
    8880022    1    1    2    0    0 -0.30323366230E+03  0.93554771364E+03 -0.93856495349E+03  0.13680263168E+04  0.15294330000E+03 0.  0.
    8880022    1    1    2    0    0  0.30323366230E+03 -0.93554771364E+03  0.82169770610E+03  0.12906505924E+04  0.15294330000E+03 0.  0.
<mgrwt>
<rscale>  0 0.99528480E+03</rscale>
<asrwt>0</asrwt>
<pdfrwt beam="1">  1        2 0.21350340E+00 0.99528480E+03</pdfrwt>
<pdfrwt beam="2">  1       -2 0.19552382E+00 0.99528480E+03</pdfrwt>
<totfact> 0.20797332E+00</totfact>
</mgrwt>
</event>
<event>
 4    1  0.5387657E-008  0.2726601E+03  0.7818608E-02  0.1099767E+00
          2   -1    0    0  501    0  0.00000000000E+00  0.00000000000E+00  0.53907729008E+03  0.53907729009E+03  0.25500000000E-02 0. -1.
         -2   -1    0    0    0  501 -0.00000000000E+00 -0.00000000000E+00 -0.28734303891E+03  0.28734303892E+03  0.25500000000E-02 0.  1.
    8880022    1    1    2    0    0  0.21190134991E+03 -0.77779862207E+02 -0.17211870003E+03  0.32244129539E+03  0.15294330000E+03 0.  1.
    8880022    1    1    2    0    0 -0.21190134991E+03  0.77779862207E+02  0.42385295120E+03  0.50397903361E+03  0.15294330000E+03 0.  0.
<mgrwt>
<rscale>  0 0.27266012E+03</rscale>
<asrwt>0</asrwt>
<pdfrwt beam="1">  1        2 0.82934967E-01 0.27266012E+03</pdfrwt>
<pdfrwt beam="2">  1       -2 0.44206622E-01 0.27266012E+03</pdfrwt>
<totfact> 0.28248038E+02</totfact>
</mgrwt>
</event>
<event>
 4    1  0.5387657E-008  0.5360745E+03  0.7818608E-02  0.1004770E+00
          2   -1    0    0  501    0  0.00000000000E+00  0.00000000000E+00  0.28525015563E+04  0.28525015563E+04  0.25500000000E-02 0. -1.
         -2   -1    0    0    0  501 -0.00000000000E+00 -0.00000000000E+00 -0.17883373935E+03  0.17883373936E+03  0.25500000000E-02 0.  1.
    8880022    1    1    2    0    0 -0.46521099497E+03  0.21808920822E+03  0.33528326254E+03  0.63229003767E+03  0.15294330000E+03 0.  0.
    8880022    1    1    2    0    0  0.46521099497E+03 -0.21808920822E+03  0.23383845544E+04  0.23990452580E+04  0.15294330000E+03 0.  0.
<mgrwt>
<rscale>  0 0.53607446E+03</rscale>
<asrwt>0</asrwt>
<pdfrwt beam="1">  1        2 0.43884640E+00 0.53607446E+03</pdfrwt>
<pdfrwt beam="2">  1       -2 0.27512882E-01 0.53607446E+03</pdfrwt>
<totfact> 0.28326819E+01</totfact>
</mgrwt>
</event>
<event>
 4    1  0.5387657E-008  0.1242889E+04  0.7818608E-02  0.9076123E-01
          2   -1    0    0  501    0  0.00000000000E+00  0.00000000000E+00  0.10293508627E+04  0.10293508627E+04  0.25500000000E-02 0. -1.
         -2   -1    0    0    0  501 -0.00000000000E+00 -0.00000000000E+00 -0.15193231166E+04  0.15193231166E+04  0.25500000000E-02 0.  1.
    8880022    1    1    2    0    0  0.11703332605E+04 -0.38948858381E+03 -0.38597648775E+03  0.13014418157E+04  0.15294330000E+03 0.  1.
    8880022    1    1    2    0    0 -0.11703332605E+04  0.38948858381E+03 -0.10399576612E+03  0.12472321636E+04  0.15294330000E+03 0. -1.
<mgrwt>
<rscale>  0 0.12428890E+04</rscale>
<asrwt>0</asrwt>
<pdfrwt beam="1">  1        2 0.15836167E+00 0.12428890E+04</pdfrwt>
<pdfrwt beam="2">  1       -2 0.23374202E+00 0.12428890E+04</pdfrwt>
<totfact> 0.18936705E+00</totfact>
</mgrwt>
</event>
<event>
 4    1  0.5387657E-008  0.2133508E+03  0.7818608E-02  0.1138940E+00
         -2   -1    0    0    0  501 -0.00000000000E+00  0.00000000000E+00  0.43656140621E+03  0.43656140622E+03  0.25500000000E-02 0.  1.
          2   -1    0    0  501    0  0.00000000000E+00 -0.00000000000E+00 -0.17420354847E+04  0.17420354847E+04  0.25500000000E-02 0. -1.
    8880022    1    1    2    0    0  0.60547319194E+02 -0.13587109230E+03  0.40345952536E+03  0.45639694696E+03  0.15294330000E+03 0.  1.
    8880022    1    1    2    0    0 -0.60547319194E+02  0.13587109230E+03 -0.17089336039E+04  0.17221999440E+04  0.15294330000E+03 0.  0.
<mgrwt>
<rscale>  0 0.21335085E+03</rscale>
<asrwt>0</asrwt>
<pdfrwt beam="1">  1        2 0.26800546E+00 0.21335085E+03</pdfrwt>
<pdfrwt beam="2">  1       -2 0.67163294E-01 0.21335085E+03</pdfrwt>
<totfact> 0.22057180E+01</totfact>
</mgrwt>
</event>
<event>
 4    1  0.5387657E-008  0.5768935E+03  0.7818608E-02  0.9954539E-01
         -2   -1    0    0    0  501 -0.00000000000E+00  0.00000000000E+00  0.49213601878E+03  0.49213601878E+03  0.25500000000E-02 0.  1.
          2   -1    0    0  501    0  0.00000000000E+00 -0.00000000000E+00 -0.12598298530E+04  0.12598298530E+04  0.25500000000E-02 0. -1.
    8880022    1    1    2    0    0 -0.50402728643E+03  0.23531031168E+03  0.21235107653E+03  0.61473496807E+03  0.15294330000E+03 0.  0.
    8880022    1    1    2    0    0  0.50402728643E+03 -0.23531031168E+03 -0.98004491075E+03  0.11372309037E+04  0.15294330000E+03 0.  0.
<mgrwt>
<rscale>  0 0.57689349E+03</rscale>
<asrwt>0</asrwt>
<pdfrwt beam="1">  1        2 0.19381998E+00 0.57689349E+03</pdfrwt>
<pdfrwt beam="2">  1       -2 0.75713234E-01 0.57689349E+03</pdfrwt>
<totfact> 0.28421960E+01</totfact>
</mgrwt>
</event>
<event>
 4    1  0.5387657E-008  0.9378634E+03  0.7818608E-02  0.9379450E-01
          2   -1    0    0  501    0  0.00000000000E+00  0.00000000000E+00  0.16090024260E+04  0.16090024260E+04  0.25500000000E-02 0. -1.
         -2   -1    0    0    0  501 -0.00000000000E+00 -0.00000000000E+00 -0.80679805289E+03  0.80679805290E+03  0.25500000000E-02 0.  1.
    8880022    1    1    2    0    0  0.79239210699E+03  0.47781891317E+03 -0.28477303738E+03  0.98014463262E+03  0.15294330000E+03 0.  0.
    8880022    1    1    2    0    0 -0.79239210699E+03 -0.47781891317E+03  0.10869774104E+04  0.14356558462E+04  0.15294330000E+03 0.  0.
<mgrwt>
<rscale>  0 0.93786343E+03</rscale>
<asrwt>0</asrwt>
<pdfrwt beam="1">  1        2 0.24753883E+00 0.93786343E+03</pdfrwt>
<pdfrwt beam="2">  1       -2 0.12412278E+00 0.93786343E+03</pdfrwt>
<totfact> 0.53893671E+00</totfact>
</mgrwt>
</event>
<event>
 4    1  0.5387657E-008  0.5911625E+03  0.7818608E-02  0.9923913E-01
         -2   -1    0    0    0  501 -0.00000000000E+00  0.00000000000E+00  0.85026392237E+03  0.85026392237E+03  0.25500000000E-02 0.  1.
          2   -1    0    0  501    0  0.00000000000E+00 -0.00000000000E+00 -0.20015804900E+04  0.20015804900E+04  0.25500000000E-02 0. -1.
    8880022    1    1    2    0    0 -0.54553197031E+03  0.16874931250E+03 -0.18467730898E+04  0.19390832781E+04  0.15294330000E+03 0. -1.
    8880022    1    1    2    0    0  0.54553197031E+03 -0.16874931250E+03  0.69545652215E+03  0.91276113431E+03  0.15294330000E+03 0.  0.
<mgrwt>
<rscale>  0 0.59116251E+03</rscale>
<asrwt>0</asrwt>
<pdfrwt beam="1">  1        2 0.30793546E+00 0.59116251E+03</pdfrwt>
<pdfrwt beam="2">  1       -2 0.13080983E+00 0.59116251E+03</pdfrwt>
<totfact> 0.30508685E+00</totfact>
</mgrwt>
</event>
<event>
 4    1  0.5387657E-008  0.6000343E+03  0.7818608E-02  0.9905335E-01
         -2   -1    0    0    0  501 -0.00000000000E+00  0.00000000000E+00  0.97270612087E+03  0.97270612087E+03  0.25500000000E-02 0.  1.
          2   -1    0    0  501    0  0.00000000000E+00 -0.00000000000E+00 -0.84370518648E+03  0.84370518649E+03  0.25500000000E-02 0. -1.
    8880022    1    1    2    0    0  0.55519162366E+03  0.16855805546E+03 -0.61591934431E+03  0.85988246217E+03  0.15294330000E+03 0.  0.
    8880022    1    1    2    0    0 -0.55519162366E+03 -0.16855805546E+03  0.74492027870E+03  0.95652884518E+03  0.15294330000E+03 0.  0.
<mgrwt>
<rscale>  0 0.60003434E+03</rscale>
<asrwt>0</asrwt>
<pdfrwt beam="1">  1        2 0.12980080E+00 0.60003434E+03</pdfrwt>
<pdfrwt beam="2">  1       -2 0.14964710E+00 0.60003434E+03</pdfrwt>
<totfact> 0.10018504E+01</totfact>
</mgrwt>
</event>
<event>
 4    1  0.5387657E-008  0.2640645E+03  0.7818608E-02  0.1104726E+00
         -2   -1    0    0    0  501 -0.00000000000E+00  0.00000000000E+00  0.86911579525E+03  0.86911579525E+03  0.25500000000E-02 0.  1.
          2   -1    0    0  501    0  0.00000000000E+00 -0.00000000000E+00 -0.17587288975E+04  0.17587288975E+04  0.25500000000E-02 0. -1.
    8880022    1    1    2    0    0 -0.12191799771E+03  0.17741022814E+03 -0.17284093291E+04  0.17484647120E+04  0.15294330000E+03 0. -1.
    8880022    1    1    2    0    0  0.12191799771E+03 -0.17741022814E+03  0.83879622688E+03  0.87937998070E+03  0.15294330000E+03 0.  0.
<mgrwt>
<rscale>  0 0.26406446E+03</rscale>
<asrwt>0</asrwt>
<pdfrwt beam="1">  1        2 0.27057368E+00 0.26406446E+03</pdfrwt>
<pdfrwt beam="2">  1       -2 0.13371012E+00 0.26406446E+03</pdfrwt>
<totfact> 0.43273298E+00</totfact>
</mgrwt>
</event>
<event>
 4    1  0.5387657E-008  0.6009284E+03  0.7818608E-02  0.9903482E-01
          2   -1    0    0  501    0  0.00000000000E+00  0.00000000000E+00  0.40014675281E+03  0.40014675282E+03  0.25500000000E-02 0. -1.
         -2   -1    0    0    0  501 -0.00000000000E+00 -0.00000000000E+00 -0.14003955808E+04  0.14003955808E+04  0.25500000000E-02 0.  1.
    8880022    1    1    2    0    0 -0.14844874021E+03 -0.56185963666E+03  0.36704867665E+02  0.60204832041E+03  0.15294330000E+03 0.  0.
    8880022    1    1    2    0    0  0.14844874021E+03  0.56185963666E+03 -0.10369536957E+04  0.11984940133E+04  0.15294330000E+03 0.  0.
<mgrwt>
<rscale>  0 0.60092839E+03</rscale>
<asrwt>0</asrwt>
<pdfrwt beam="1">  1        2 0.61561040E-01 0.60092839E+03</pdfrwt>
<pdfrwt beam="2">  1       -2 0.21544547E+00 0.60092839E+03</pdfrwt>
<totfact> 0.87321929E+00</totfact>
</mgrwt>
</event>
<event>
 4    1  0.5387657E-008  0.7226758E+03  0.7818608E-02  0.9679220E-01
         -2   -1    0    0    0  501 -0.00000000000E+00  0.00000000000E+00  0.13685626404E+04  0.13685626404E+04  0.25500000000E-02 0.  1.
          2   -1    0    0  501    0  0.00000000000E+00 -0.00000000000E+00 -0.10348369106E+04  0.10348369106E+04  0.25500000000E-02 0. -1.
    8880022    1    1    2    0    0  0.48996610241E+03 -0.50872577954E+03 -0.78789070306E+03  0.10691267994E+04  0.15294330000E+03 0. -1.
    8880022    1    1    2    0    0 -0.48996610241E+03  0.50872577954E+03  0.11216164329E+04  0.13342727516E+04  0.15294330000E+03 0.  0.
<mgrwt>
<rscale>  0 0.72267583E+03</rscale>
<asrwt>0</asrwt>
<pdfrwt beam="1">  1        2 0.15920568E+00 0.72267583E+03</pdfrwt>
<pdfrwt beam="2">  1       -2 0.21054810E+00 0.72267583E+03</pdfrwt>
<totfact> 0.28018528E+00</totfact>
</mgrwt>
</event>
<event>
 4    1  0.5387657E-008  0.6698810E+03  0.7818608E-02  0.9770173E-01
         -2   -1    0    0    0  501 -0.00000000000E+00  0.00000000000E+00  0.36707416980E+03  0.36707416980E+03  0.25500000000E-02 0.  1.
          2   -1    0    0  501    0  0.00000000000E+00 -0.00000000000E+00 -0.12625694791E+04  0.12625694791E+04  0.25500000000E-02 0. -1.
    8880022    1    1    2    0    0  0.40205095759E+03 -0.51352116550E+03 -0.30255206143E+03  0.73503630034E+03  0.15294330000E+03 0.  0.
    8880022    1    1    2    0    0 -0.40205095759E+03  0.51352116550E+03 -0.59294324790E+03  0.89460734860E+03  0.15294330000E+03 0.  0.
<mgrwt>
<rscale>  0 0.66988104E+03</rscale>
<asrwt>0</asrwt>
<pdfrwt beam="1">  1        2 0.19424146E+00 0.66988104E+03</pdfrwt>
<pdfrwt beam="2">  1       -2 0.56472950E-01 0.66988104E+03</pdfrwt>
<totfact> 0.52522593E+01</totfact>
</mgrwt>
</event>
<event>
 4    1  0.5387657E-008  0.5001630E+03  0.7818608E-02  0.1013736E+00
         -2   -1    0    0    0  501 -0.00000000000E+00  0.00000000000E+00  0.18029331628E+03  0.18029331630E+03  0.25500000000E-02 0.  1.
          2   -1    0    0  501    0  0.00000000000E+00 -0.00000000000E+00 -0.29212502995E+04  0.29212502995E+04  0.25500000000E-02 0. -1.
    8880022    1    1    2    0    0 -0.35805751166E+03  0.31395256055E+03 -0.24941414821E+04  0.25437973146E+04  0.15294330000E+03 0.  0.
    8880022    1    1    2    0    0  0.35805751166E+03 -0.31395256055E+03 -0.24681550114E+03  0.55774630125E+03  0.15294330000E+03 0.  0.
<mgrwt>
<rscale>  0 0.50016302E+03</rscale>
<asrwt>0</asrwt>
<pdfrwt beam="1">  1        2 0.44942309E+00 0.50016302E+03</pdfrwt>
<pdfrwt beam="2">  1       -2 0.27737435E-01 0.50016302E+03</pdfrwt>
<totfact> 0.25619745E+01</totfact>
</mgrwt>
</event>
<event>
 4    1  0.5387657E-008  0.3235583E+03  0.7818608E-02  0.1074023E+00
          2   -1    0    0  501    0  0.00000000000E+00  0.00000000000E+00  0.70224192275E+03  0.70224192276E+03  0.25500000000E-02 0. -1.
         -2   -1    0    0    0  501 -0.00000000000E+00 -0.00000000000E+00 -0.12863170407E+04  0.12863170407E+04  0.25500000000E-02 0.  1.
    8880022    1    1    2    0    0 -0.26730509576E+03 -0.99228522012E+02  0.64285140785E+03  0.71968597276E+03  0.15294330000E+03 0.  0.
    8880022    1    1    2    0    0  0.26730509576E+03  0.99228522012E+02 -0.12269265258E+04  0.12688729907E+04  0.15294330000E+03 0.  0.
<mgrwt>
<rscale>  0 0.32355829E+03</rscale>
<asrwt>0</asrwt>
<pdfrwt beam="1">  1        2 0.10803722E+00 0.32355829E+03</pdfrwt>
<pdfrwt beam="2">  1       -2 0.19789493E+00 0.32355829E+03</pdfrwt>
<totfact> 0.61978170E+00</totfact>
</mgrwt>
</event>
<event>
 4    1  0.5387657E-008  0.2399955E+03  0.7818608E-02  0.1119796E+00
          2   -1    0    0  501    0  0.00000000000E+00  0.00000000000E+00  0.11524197478E+04  0.11524197478E+04  0.25500000000E-02 0. -1.
         -2   -1    0    0    0  501 -0.00000000000E+00 -0.00000000000E+00 -0.16208545688E+03  0.16208545690E+03  0.25500000000E-02 0.  1.
    8880022    1    1    2    0    0 -0.14979672502E+03 -0.10847630236E+03 -0.51438189366E+02  0.24544593568E+03  0.15294330000E+03 0.  1.
    8880022    1    1    2    0    0  0.14979672502E+03  0.10847630236E+03  0.10417724803E+04  0.10690592690E+04  0.15294330000E+03 0.  0.
<mgrwt>
<rscale>  0 0.23999546E+03</rscale>
<asrwt>0</asrwt>
<pdfrwt beam="1">  1        2 0.17729535E+00 0.23999546E+03</pdfrwt>
<pdfrwt beam="2">  1       -2 0.24936224E-01 0.23999546E+03</pdfrwt>
<totfact> 0.30765640E+02</totfact>
</mgrwt>
</event>
<event>
 4    1  0.5387657E-008  0.1459315E+04  0.7818608E-02  0.8911968E-01
          2   -1    0    0  501    0  0.00000000000E+00  0.00000000000E+00  0.21363817953E+04  0.21363817953E+04  0.25500000000E-02 0. -1.
         -2   -1    0    0    0  501 -0.00000000000E+00 -0.00000000000E+00 -0.12733083233E+04  0.12733083233E+04  0.25500000000E-02 0.  1.
    8880022    1    1    2    0    0 -0.12459753798E+04 -0.74414560419E+03  0.12259610438E+04  0.19059327012E+04  0.15294330000E+03 0.  0.
    8880022    1    1    2    0    0  0.12459753798E+04  0.74414560419E+03 -0.36288757182E+03  0.15037574173E+04  0.15294330000E+03 0.  0.
<mgrwt>
<rscale>  0 0.14593146E+04</rscale>
<asrwt>0</asrwt>
<pdfrwt beam="1">  1        2 0.32867412E+00 0.14593146E+04</pdfrwt>
<pdfrwt beam="2">  1       -2 0.19589359E+00 0.14593146E+04</pdfrwt>
<totfact> 0.74885997E-01</totfact>
</mgrwt>
</event>
<event>
 4    1  0.5387657E-008  0.6635719E+03  0.7818608E-02  0.9781641E-01
         -2   -1    0    0    0  501 -0.00000000000E+00  0.00000000000E+00  0.19104718393E+04  0.19104718393E+04  0.25500000000E-02 0.  1.
          2   -1    0    0  501    0  0.00000000000E+00 -0.00000000000E+00 -0.52988071874E+03  0.52988071874E+03  0.25500000000E-02 0. -1.
    8880022    1    1    2    0    0 -0.44550615565E+03 -0.46739737039E+03  0.16074851701E+04  0.17390618912E+04  0.15294330000E+03 0.  0.
    8880022    1    1    2    0    0  0.44550615565E+03  0.46739737039E+03 -0.22689404953E+03  0.70129066677E+03  0.15294330000E+03 0.  0.
<mgrwt>
<rscale>  0 0.66357192E+03</rscale>
<asrwt>0</asrwt>
<pdfrwt beam="1">  1        2 0.81520111E-01 0.66357192E+03</pdfrwt>
<pdfrwt beam="2">  1       -2 0.29391874E+00 0.66357192E+03</pdfrwt>
<totfact> 0.21023106E+00</totfact>
</mgrwt>
</event>
<event>
 4    1  0.5387657E-008  0.3817532E+03  0.7818608E-02  0.1050288E+00
          2   -1    0    0  501    0  0.00000000000E+00  0.00000000000E+00  0.16531645404E+04  0.16531645404E+04  0.25500000000E-02 0. -1.
         -2   -1    0    0    0  501 -0.00000000000E+00 -0.00000000000E+00 -0.10886994277E+03  0.10886994280E+03  0.25500000000E-02 0.  1.
    8880022    1    1    2    0    0 -0.16118563591E+03 -0.31042393061E+03  0.11564447175E+04  0.12178258757E+04  0.15294330000E+03 0.  0.
    8880022    1    1    2    0    0  0.16118563591E+03  0.31042393061E+03  0.38784988013E+03  0.54420860747E+03  0.15294330000E+03 0.  0.
<mgrwt>
<rscale>  0 0.38175316E+03</rscale>
<asrwt>0</asrwt>
<pdfrwt beam="1">  1        2 0.25433302E+00 0.38175316E+03</pdfrwt>
<pdfrwt beam="2">  1       -2 0.16749221E-01 0.38175316E+03</pdfrwt>
<totfact> 0.31803276E+02</totfact>
</mgrwt>
</event>
<event>
 4    1  0.5387657E-008  0.9628079E+03  0.7818608E-02  0.9350304E-01
          2   -1    0    0  501    0  0.00000000000E+00  0.00000000000E+00  0.20046893405E+04  0.20046893405E+04  0.25500000000E-02 0. -1.
         -2   -1    0    0    0  501 -0.00000000000E+00 -0.00000000000E+00 -0.10269446763E+04  0.10269446763E+04  0.25500000000E-02 0.  1.
    8880022    1    1    2    0    0 -0.65026590874E+03  0.69336980174E+03  0.16127434554E+04  0.18782812729E+04  0.15294330000E+03 0.  0.
    8880022    1    1    2    0    0  0.65026590874E+03 -0.69336980174E+03 -0.63499879118E+03  0.11533527439E+04  0.15294330000E+03 0.  0.
<mgrwt>
<rscale>  0 0.96280792E+03</rscale>
<asrwt>0</asrwt>
<pdfrwt beam="1">  1        2 0.30841374E+00 0.96280792E+03</pdfrwt>
<pdfrwt beam="2">  1       -2 0.15799149E+00 0.96280792E+03</pdfrwt>
<totfact> 0.17364573E+00</totfact>
</mgrwt>
</event>
<event>
 4    1  0.5387657E-008  0.6124278E+03  0.7818608E-02  0.9879953E-01
         -2   -1    0    0    0  501 -0.00000000000E+00  0.00000000000E+00  0.13796695185E+04  0.13796695185E+04  0.25500000000E-02 0.  1.
          2   -1    0    0  501    0  0.00000000000E+00 -0.00000000000E+00 -0.55160178684E+03  0.55160178685E+03  0.25500000000E-02 0. -1.
    8880022    1    1    2    0    0 -0.44626271346E+03  0.39054537731E+03  0.11017105647E+04  0.12604895567E+04  0.15294330000E+03 0.  0.
    8880022    1    1    2    0    0  0.44626271346E+03 -0.39054537731E+03 -0.27364283308E+03  0.67078174862E+03  0.15294330000E+03 0.  0.
<mgrwt>
<rscale>  0 0.61242775E+03</rscale>
<asrwt>0</asrwt>
<pdfrwt beam="1">  1        2 0.84861815E-01 0.61242775E+03</pdfrwt>
<pdfrwt beam="2">  1       -2 0.21225685E+00 0.61242775E+03</pdfrwt>
<totfact> 0.63233369E+00</totfact>
</mgrwt>
</event>
<event>
 4    1  0.5387657E-008  0.2307133E+03  0.7818608E-02  0.1126139E+00
          2   -1    0    0  501    0  0.00000000000E+00  0.00000000000E+00  0.79454059768E+03  0.79454059768E+03  0.25500000000E-02 0. -1.
         -2   -1    0    0    0  501 -0.00000000000E+00 -0.00000000000E+00 -0.22960044492E+03  0.22960044494E+03  0.25500000000E-02 0.  1.
    8880022    1    1    2    0    0  0.94524495754E+02 -0.14457553104E+03  0.71340698710E+03  0.74978540045E+03  0.15294330000E+03 0.  0.
    8880022    1    1    2    0    0 -0.94524495754E+02  0.14457553104E+03 -0.14846683435E+03  0.27435564217E+03  0.15294330000E+03 0.  1.
<mgrwt>
<rscale>  0 0.23071328E+03</rscale>
<asrwt>0</asrwt>
<pdfrwt beam="1">  1        2 0.12223702E+00 0.23071328E+03</pdfrwt>
<pdfrwt beam="2">  1       -2 0.35323145E-01 0.23071328E+03</pdfrwt>
<totfact> 0.27380506E+02</totfact>
</mgrwt>
</event>
<event>
 4    1  0.5387657E-008  0.4557072E+03  0.7818608E-02  0.1026034E+00
          2   -1    0    0  501    0  0.00000000000E+00  0.00000000000E+00  0.49245203748E+03  0.49245203749E+03  0.25500000000E-02 0. -1.
         -2   -1    0    0    0  501 -0.00000000000E+00 -0.00000000000E+00 -0.14206638737E+04  0.14206638737E+04  0.25500000000E-02 0.  1.
    8880022    1    1    2    0    0  0.39355305504E+03  0.17144505322E+03  0.33801457025E+03  0.56738251306E+03  0.15294330000E+03 0.  0.
    8880022    1    1    2    0    0 -0.39355305504E+03 -0.17144505322E+03 -0.12662264064E+04  0.13457333981E+04  0.15294330000E+03 0.  0.
<mgrwt>
<rscale>  0 0.45570722E+03</rscale>
<asrwt>0</asrwt>
<pdfrwt beam="1">  1        2 0.75761853E-01 0.45570722E+03</pdfrwt>
<pdfrwt beam="2">  1       -2 0.21856367E+00 0.45570722E+03</pdfrwt>
<totfact> 0.67632714E+00</totfact>
</mgrwt>
</event>
<event>
 4    1  0.5387657E-008  0.3871428E+03  0.7818608E-02  0.1048325E+00
          2   -1    0    0  501    0  0.00000000000E+00  0.00000000000E+00  0.74165630949E+03  0.74165630949E+03  0.25500000000E-02 0. -1.
         -2   -1    0    0    0  501 -0.00000000000E+00 -0.00000000000E+00 -0.31881259733E+03  0.31881259734E+03  0.25500000000E-02 0.  1.
    8880022    1    1    2    0    0  0.31704599811E+03 -0.16115126164E+03  0.53225714803E+03  0.65816200034E+03  0.15294330000E+03 0.  0.
    8880022    1    1    2    0    0 -0.31704599811E+03  0.16115126164E+03 -0.10941343587E+03  0.40230690649E+03  0.15294330000E+03 0.  1.
<mgrwt>
<rscale>  0 0.38714280E+03</rscale>
<asrwt>0</asrwt>
<pdfrwt beam="1">  1        2 0.11410097E+00 0.38714280E+03</pdfrwt>
<pdfrwt beam="2">  1       -2 0.49048092E-01 0.38714280E+03</pdfrwt>
<totfact> 0.15544466E+02</totfact>
</mgrwt>
</event>
<event>
 4    1  0.5387657E-008  0.5142796E+03  0.7818608E-02  0.1010118E+00
          2   -1    0    0  501    0  0.00000000000E+00  0.00000000000E+00  0.26837288336E+04  0.26837288336E+04  0.25500000000E-02 0. -1.
         -2   -1    0    0    0  501 -0.00000000000E+00 -0.00000000000E+00 -0.50300195761E+03  0.50300195761E+03  0.25500000000E-02 0.  1.
    8880022    1    1    2    0    0  0.28663605883E+03  0.39866224054E+03  0.25191376941E+04  0.25710966896E+04  0.15294330000E+03 0.  0.
    8880022    1    1    2    0    0 -0.28663605883E+03 -0.39866224054E+03 -0.33841081813E+03  0.61563410163E+03  0.15294330000E+03 0.  0.
<mgrwt>
<rscale>  0 0.51427956E+03</rscale>
<asrwt>0</asrwt>
<pdfrwt beam="1">  1        2 0.41288137E+00 0.51427956E+03</pdfrwt>
<pdfrwt beam="2">  1       -2 0.77384915E-01 0.51427956E+03</pdfrwt>
<totfact> 0.45054943E+00</totfact>
</mgrwt>
</event>
<event>
 4    1  0.5387657E-008  0.4784943E+03  0.7818608E-02  0.1019550E+00
          2   -1    0    0  501    0  0.00000000000E+00  0.00000000000E+00  0.15125481846E+04  0.15125481846E+04  0.25500000000E-02 0. -1.
         -2   -1    0    0    0  501 -0.00000000000E+00 -0.00000000000E+00 -0.22114380268E+03  0.22114380270E+03  0.25500000000E-02 0.  1.
    8880022    1    1    2    0    0  0.28781658735E+03  0.35032372719E+03  0.15879526812E+03  0.50415542442E+03  0.15294330000E+03 0.  0.
    8880022    1    1    2    0    0 -0.28781658735E+03 -0.35032372719E+03  0.11326091138E+04  0.12295365629E+04  0.15294330000E+03 0.  0.
<mgrwt>
<rscale>  0 0.47849426E+03</rscale>
<asrwt>0</asrwt>
<pdfrwt beam="1">  1        2 0.23269972E+00 0.47849426E+03</pdfrwt>
<pdfrwt beam="2">  1       -2 0.34022123E-01 0.47849426E+03</pdfrwt>
<totfact> 0.10600108E+02</totfact>
</mgrwt>
</event>
<event>
 4    1  0.5387657E-008  0.3524158E+03  0.7818608E-02  0.1061628E+00
          2   -1    0    0  501    0  0.00000000000E+00  0.00000000000E+00  0.62597940997E+03  0.62597940998E+03  0.25500000000E-02 0. -1.
         -2   -1    0    0    0  501 -0.00000000000E+00 -0.00000000000E+00 -0.44895852440E+03  0.44895852441E+03  0.25500000000E-02 0.  1.
    8880022    1    1    2    0    0 -0.30999907244E+03 -0.68598828069E+02  0.49002502881E+03  0.60359042901E+03  0.15294330000E+03 0.  0.
    8880022    1    1    2    0    0  0.30999907244E+03  0.68598828069E+02 -0.31300414324E+03  0.47134750537E+03  0.15294330000E+03 0.  0.
<mgrwt>
<rscale>  0 0.35241577E+03</rscale>
<asrwt>0</asrwt>
<pdfrwt beam="1">  1        2 0.96304524E-01 0.35241577E+03</pdfrwt>
<pdfrwt beam="2">  1       -2 0.69070542E-01 0.35241577E+03</pdfrwt>
<totfact> 0.94305656E+01</totfact>
</mgrwt>
</event>
<event>
 4    1  0.5387657E-008  0.9789621E+03  0.7818608E-02  0.9331925E-01
         -2   -1    0    0    0  501 -0.00000000000E+00  0.00000000000E+00  0.62191646399E+03  0.62191646400E+03  0.25500000000E-02 0.  1.
          2   -1    0    0  501    0  0.00000000000E+00 -0.00000000000E+00 -0.26285860972E+04  0.26285860972E+04  0.25500000000E-02 0. -1.
    8880022    1    1    2    0    0 -0.73267140075E+03  0.63100537362E+03 -0.20487608471E+04  0.22706359956E+04  0.15294330000E+03 0.  0.
    8880022    1    1    2    0    0  0.73267140075E+03 -0.63100537362E+03  0.42091213901E+02  0.97986656557E+03  0.15294330000E+03 0.  0.
<mgrwt>
<rscale>  0 0.97896211E+03</rscale>
<asrwt>0</asrwt>
<pdfrwt beam="1">  1        2 0.40439786E+00 0.97896211E+03</pdfrwt>
<pdfrwt beam="2">  1       -2 0.95679457E-01 0.97896211E+03</pdfrwt>
<totfact> 0.27225506E+00</totfact>
</mgrwt>
</event>
<event>
 4    1  0.5387657E-008  0.2906217E+03  0.7818608E-02  0.1090025E+00
         -2   -1    0    0    0  501 -0.00000000000E+00  0.00000000000E+00  0.14867230338E+03  0.14867230340E+03  0.25500000000E-02 0.  1.
          2   -1    0    0  501    0  0.00000000000E+00 -0.00000000000E+00 -0.18970380163E+04  0.18970380163E+04  0.25500000000E-02 0. -1.
    8880022    1    1    2    0    0  0.18060318605E+03 -0.16867657433E+03 -0.18075459269E+02  0.29118322888E+03  0.15294330000E+03 0.  0.
    8880022    1    1    2    0    0 -0.18060318605E+03  0.16867657433E+03 -0.17302902536E+04  0.17545270908E+04  0.15294330000E+03 0.  0.
<mgrwt>
<rscale>  0 0.29062166E+03</rscale>
<asrwt>0</asrwt>
<pdfrwt beam="1">  1        2 0.29185199E+00 0.29062166E+03</pdfrwt>
<pdfrwt beam="2">  1       -2 0.22872663E-01 0.29062166E+03</pdfrwt>
<totfact> 0.14045608E+02</totfact>
</mgrwt>
</event>
<event>
 4    1  0.5387657E-008  0.4389893E+03  0.7818608E-02  0.1031057E+00
         -2   -1    0    0    0  501 -0.00000000000E+00  0.00000000000E+00  0.93179917611E+02  0.93179917646E+02  0.25500000000E-02 0.  1.
          2   -1    0    0  501    0  0.00000000000E+00 -0.00000000000E+00 -0.24331564403E+04  0.24331564403E+04  0.25500000000E-02 0. -1.
    8880022    1    1    2    0    0  0.25375667791E+02  0.41070182809E+03 -0.16592223424E+04  0.17163130107E+04  0.15294330000E+03 0.  0.
    8880022    1    1    2    0    0 -0.25375667791E+02 -0.41070182809E+03 -0.68075418029E+03  0.81002334726E+03  0.15294330000E+03 0.  0.
<mgrwt>
<rscale>  0 0.43898926E+03</rscale>
<asrwt>0</asrwt>
<pdfrwt beam="1">  1        2 0.37433171E+00 0.43898926E+03</pdfrwt>
<pdfrwt beam="2">  1       -2 0.14335374E-01 0.43898926E+03</pdfrwt>
<totfact> 0.15559578E+02</totfact>
</mgrwt>
</event>
<event>
 4    1  0.5387657E-008  0.2695952E+03  0.7818608E-02  0.1101512E+00
         -2   -1    0    0    0  501 -0.00000000000E+00  0.00000000000E+00  0.31308702364E+03  0.31308702365E+03  0.25500000000E-02 0.  1.
          2   -1    0    0  501    0  0.00000000000E+00 -0.00000000000E+00 -0.30268973467E+04  0.30268973467E+04  0.25500000000E-02 0. -1.
    8880022    1    1    2    0    0  0.21925859141E+03 -0.34865170100E+02 -0.29615808142E+04  0.29738262360E+04  0.15294330000E+03 0.  0.
    8880022    1    1    2    0    0 -0.21925859141E+03  0.34865170100E+02  0.24777049118E+03  0.36615813429E+03  0.15294330000E+03 0.  1.
<mgrwt>
<rscale>  0 0.26959518E+03</rscale>
<asrwt>0</asrwt>
<pdfrwt beam="1">  1        2 0.46567650E+00 0.26959518E+03</pdfrwt>
<pdfrwt beam="2">  1       -2 0.48167236E-01 0.26959518E+03</pdfrwt>
<totfact> 0.84472751E+00</totfact>
</mgrwt>
</event>
<event>
 4    1  0.5387657E-008  0.2388893E+03  0.7818608E-02  0.1120535E+00
          2   -1    0    0  501    0  0.00000000000E+00  0.00000000000E+00  0.11311175859E+04  0.11311175859E+04  0.25500000000E-02 0. -1.
         -2   -1    0    0    0  501 -0.00000000000E+00 -0.00000000000E+00 -0.11428151558E+03  0.11428151560E+03  0.25500000000E-02 0.  1.
    8880022    1    1    2    0    0  0.13050566771E+02 -0.18304680886E+03  0.43047970614E+02  0.24273696116E+03  0.15294330000E+03 0.  1.
    8880022    1    1    2    0    0 -0.13050566771E+02  0.18304680886E+03  0.97378809967E+03  0.10026621403E+04  0.15294330000E+03 0.  0.
<mgrwt>
<rscale>  0 0.23888931E+03</rscale>
<asrwt>0</asrwt>
<pdfrwt beam="1">  1        2 0.17401809E+00 0.23888931E+03</pdfrwt>
<pdfrwt beam="2">  1       -2 0.17581772E-01 0.23888931E+03</pdfrwt>
<totfact> 0.57827194E+02</totfact>
</mgrwt>
</event>
<event>
 4    1  0.5387657E-008  0.2930011E+03  0.7818608E-02  0.1088793E+00
         -2   -1    0    0    0  501 -0.00000000000E+00  0.00000000000E+00  0.11428243331E+03  0.11428243333E+03  0.25500000000E-02 0.  1.
          2   -1    0    0  501    0  0.00000000000E+00 -0.00000000000E+00 -0.17269786976E+04  0.17269786976E+04  0.25500000000E-02 0. -1.
    8880022    1    1    2    0    0  0.67628723490E+01  0.24982445179E+03 -0.11433197066E+03  0.31451779868E+03  0.15294330000E+03 0.  0.
    8880022    1    1    2    0    0 -0.67628723490E+01 -0.24982445179E+03 -0.14983642937E+04  0.15267433323E+04  0.15294330000E+03 0.  0.
<mgrwt>
<rscale>  0 0.29300110E+03</rscale>
<asrwt>0</asrwt>
<pdfrwt beam="1">  1        2 0.26568901E+00 0.29300110E+03</pdfrwt>
<pdfrwt beam="2">  1       -2 0.17581914E-01 0.29300110E+03</pdfrwt>
<totfact> 0.27139712E+02</totfact>
</mgrwt>
</event>
<event>
 4    1  0.5387657E-008  0.4241800E+03  0.7818608E-02  0.1035714E+00
          2   -1    0    0  501    0  0.00000000000E+00  0.00000000000E+00  0.26526740879E+04  0.26526740879E+04  0.25500000000E-02 0. -1.
         -2   -1    0    0    0  501 -0.00000000000E+00 -0.00000000000E+00 -0.11484244818E+03  0.11484244821E+03  0.25500000000E-02 0.  1.
    8880022    1    1    2    0    0  0.28903691004E+03 -0.27017533846E+03  0.38355715880E+03  0.57187830520E+03  0.15294330000E+03 0.  0.
    8880022    1    1    2    0    0 -0.28903691004E+03  0.27017533846E+03  0.21542744809E+04  0.21956382309E+04  0.15294330000E+03 0.  0.
<mgrwt>
<rscale>  0 0.42418003E+03</rscale>
<asrwt>0</asrwt>
<pdfrwt beam="1">  1        2 0.40810368E+00 0.42418003E+03</pdfrwt>
<pdfrwt beam="2">  1       -2 0.17668070E-01 0.42418003E+03</pdfrwt>
<totfact> 0.82661990E+01</totfact>
</mgrwt>
</event>
<event>
 4    1  0.5387657E-008  0.4802222E+03  0.7818608E-02  0.1019074E+00
         -2   -1    0    0    0  501 -0.00000000000E+00  0.00000000000E+00  0.42868291056E+03  0.42868291057E+03  0.25500000000E-02 0.  1.
          2   -1    0    0  501    0  0.00000000000E+00 -0.00000000000E+00 -0.76497034979E+03  0.76497034979E+03  0.25500000000E-02 0. -1.
    8880022    1    1    2    0    0 -0.20374744986E+03  0.40707332288E+03  0.15698153941E+03  0.50522922546E+03  0.15294330000E+03 0.  0.
    8880022    1    1    2    0    0  0.20374744986E+03 -0.40707332288E+03 -0.49326897863E+03  0.68842403490E+03  0.15294330000E+03 0.  0.
<mgrwt>
<rscale>  0 0.48022221E+03</rscale>
<asrwt>0</asrwt>
<pdfrwt beam="1">  1        2 0.11768775E+00 0.48022221E+03</pdfrwt>
<pdfrwt beam="2">  1       -2 0.65951217E-01 0.48022221E+03</pdfrwt>
<totfact> 0.80124684E+01</totfact>
</mgrwt>
</event>
<event>
 4    1  0.5387657E-008  0.3376249E+03  0.7818608E-02  0.1067812E+00
         -2   -1    0    0    0  501 -0.00000000000E+00  0.00000000000E+00  0.75312605896E+03  0.75312605896E+03  0.25500000000E-02 0.  1.
          2   -1    0    0  501    0  0.00000000000E+00 -0.00000000000E+00 -0.51318207318E+03  0.51318207319E+03  0.25500000000E-02 0. -1.
    8880022    1    1    2    0    0  0.24418987983E+03  0.17598353724E+03 -0.41167488289E+03  0.53241596991E+03  0.15294330000E+03 0.  0.
    8880022    1    1    2    0    0 -0.24418987983E+03 -0.17598353724E+03  0.65161886867E+03  0.73389216225E+03  0.15294330000E+03 0.  0.
<mgrwt>
<rscale>  0 0.33762487E+03</rscale>
<asrwt>0</asrwt>
<pdfrwt beam="1">  1        2 0.78951088E-01 0.33762487E+03</pdfrwt>
<pdfrwt beam="2">  1       -2 0.11586555E+00 0.33762487E+03</pdfrwt>
<totfact> 0.36581478E+01</totfact>
</mgrwt>
</event>
<event>
 4    1  0.5387657E-008  0.5700197E+03  0.7818608E-02  0.9969635E-01
         -2   -1    0    0    0  501 -0.00000000000E+00  0.00000000000E+00  0.39953058219E+03  0.39953058220E+03  0.25500000000E-02 0.  1.
          2   -1    0    0  501    0  0.00000000000E+00 -0.00000000000E+00 -0.15271961950E+04  0.15271961950E+04  0.25500000000E-02 0. -1.
    8880022    1    1    2    0    0  0.27241168321E+03 -0.47678364550E+03  0.94843865969E+02  0.57785619465E+03  0.15294330000E+03 0.  0.
    8880022    1    1    2    0    0 -0.27241168321E+03  0.47678364550E+03 -0.12225094788E+04  0.13488705826E+04  0.15294330000E+03 0.  0.
<mgrwt>
<rscale>  0 0.57001967E+03</rscale>
<asrwt>0</asrwt>
<pdfrwt beam="1">  1        2 0.23495326E+00 0.57001967E+03</pdfrwt>
<pdfrwt beam="2">  1       -2 0.61466244E-01 0.57001967E+03</pdfrwt>
<totfact> 0.31603791E+01</totfact>
</mgrwt>
</event>
<event>
 4    1  0.5387657E-008  0.7110330E+03  0.7818608E-02  0.9698548E-01
         -2   -1    0    0    0  501 -0.00000000000E+00  0.00000000000E+00  0.51072994693E+03  0.51072994693E+03  0.25500000000E-02 0.  1.
          2   -1    0    0  501    0  0.00000000000E+00 -0.00000000000E+00 -0.28910423335E+04  0.28910423335E+04  0.25500000000E-02 0. -1.
    8880022    1    1    2    0    0  0.21996041322E+03  0.65863014135E+03  0.18913560858E+03  0.73575823334E+03  0.15294330000E+03 0.  0.
    8880022    1    1    2    0    0 -0.21996041322E+03 -0.65863014135E+03 -0.25694479951E+04  0.26660140471E+04  0.15294330000E+03 0.  0.
<mgrwt>
<rscale>  0 0.71103298E+03</rscale>
<asrwt>0</asrwt>
<pdfrwt beam="1">  1        2 0.44477573E+00 0.71103298E+03</pdfrwt>
<pdfrwt beam="2">  1       -2 0.78573840E-01 0.71103298E+03</pdfrwt>
<totfact> 0.31383868E+00</totfact>
</mgrwt>
</event>
<event>
 4    1  0.5387657E-008  0.9466749E+03  0.7818608E-02  0.9369046E-01
          2   -1    0    0  501    0  0.00000000000E+00  0.00000000000E+00  0.21891773222E+04  0.21891773222E+04  0.25500000000E-02 0. -1.
         -2   -1    0    0    0  501 -0.00000000000E+00 -0.00000000000E+00 -0.52707855161E+03  0.52707855161E+03  0.25500000000E-02 0.  1.
    8880022    1    1    2    0    0 -0.13541097952E+03 -0.92437310843E+03  0.14728478413E+04  0.17508495634E+04  0.15294330000E+03 0.  0.
    8880022    1    1    2    0    0  0.13541097952E+03  0.92437310843E+03  0.18925092931E+03  0.96540631044E+03  0.15294330000E+03 0.  0.
<mgrwt>
<rscale>  0 0.94667493E+03</rscale>
<asrwt>0</asrwt>
<pdfrwt beam="1">  1        2 0.33679651E+00 0.94667493E+03</pdfrwt>
<pdfrwt beam="2">  1       -2 0.81089009E-01 0.94667493E+03</pdfrwt>
<totfact> 0.71020175E+00</totfact>
</mgrwt>
</event>
<event>
 4    1  0.5387657E-008  0.3282145E+03  0.7818608E-02  0.1071930E+00
          2   -1    0    0  501    0  0.00000000000E+00  0.00000000000E+00  0.74997278249E+03  0.74997278249E+03  0.25500000000E-02 0. -1.
         -2   -1    0    0    0  501 -0.00000000000E+00 -0.00000000000E+00 -0.21427860320E+03  0.21427860322E+03  0.25500000000E-02 0.  1.
    8880022    1    1    2    0    0 -0.24898226583E+03 -0.14946874633E+03  0.54466711837E+03  0.63591430057E+03  0.15294330000E+03 0.  0.
    8880022    1    1    2    0    0  0.24898226583E+03  0.14946874633E+03 -0.89729390763E+01  0.32833708514E+03  0.15294330000E+03 0.  0.
<mgrwt>
<rscale>  0 0.32821445E+03</rscale>
<asrwt>0</asrwt>
<pdfrwt beam="1">  1        2 0.11538043E+00 0.32821445E+03</pdfrwt>
<pdfrwt beam="2">  1       -2 0.32965940E-01 0.32821445E+03</pdfrwt>
<totfact> 0.33178029E+02</totfact>
</mgrwt>
</event>
<event>
 4    1  0.5387657E-008  0.7667352E+03  0.7818608E-02  0.9609455E-01
         -2   -1    0    0    0  501 -0.00000000000E+00  0.00000000000E+00  0.53447535652E+03  0.53447535653E+03  0.25500000000E-02 0.  1.
          2   -1    0    0  501    0  0.00000000000E+00 -0.00000000000E+00 -0.24570014773E+04  0.24570014773E+04  0.25500000000E-02 0. -1.
    8880022    1    1    2    0    0 -0.10238015155E+03 -0.74431820212E+03 -0.20728797603E+04  0.22101387819E+04  0.15294330000E+03 0.  0.
    8880022    1    1    2    0    0  0.10238015155E+03  0.74431820212E+03  0.15035363956E+03  0.78133805192E+03  0.15294330000E+03 0.  0.
<mgrwt>
<rscale>  0 0.76673524E+03</rscale>
<asrwt>0</asrwt>
<pdfrwt beam="1">  1        2 0.37800022E+00 0.76673524E+03</pdfrwt>
<pdfrwt beam="2">  1       -2 0.82226979E-01 0.76673524E+03</pdfrwt>
<totfact> 0.50071144E+00</totfact>
</mgrwt>
</event>
<event>
 4    1  0.5387657E-008  0.3721219E+03  0.7818608E-02  0.1053885E+00
          2   -1    0    0  501    0  0.00000000000E+00  0.00000000000E+00  0.10762042606E+04  0.10762042606E+04  0.25500000000E-02 0. -1.
         -2   -1    0    0    0  501 -0.00000000000E+00 -0.00000000000E+00 -0.39868406731E+03  0.39868406732E+03  0.25500000000E-02 0.  1.
    8880022    1    1    2    0    0  0.45478660228E+02 -0.33617661732E+03  0.94564773132E+03  0.10162304420E+04  0.15294330000E+03 0. -1.
    8880022    1    1    2    0    0 -0.45478660228E+02  0.33617661732E+03 -0.26812753806E+03  0.45865788585E+03  0.15294330000E+03 0.  0.
<mgrwt>
<rscale>  0 0.37212186E+03</rscale>
<asrwt>0</asrwt>
<pdfrwt beam="1">  1        2 0.16556988E+00 0.37212186E+03</pdfrwt>
<pdfrwt beam="2">  1       -2 0.61336011E-01 0.37212186E+03</pdfrwt>
<totfact> 0.59257827E+01</totfact>
</mgrwt>
</event>
<event>
 4    1  0.5387657E-008  0.5182539E+03  0.7818608E-02  0.1009121E+00
         -2   -1    0    0    0  501 -0.00000000000E+00  0.00000000000E+00  0.13178170027E+03  0.13178170030E+03  0.25500000000E-02 0.  1.
          2   -1    0    0  501    0  0.00000000000E+00 -0.00000000000E+00 -0.21913527668E+04  0.21913527668E+04  0.25500000000E-02 0. -1.
    8880022    1    1    2    0    0  0.42832985614E+03 -0.24845310238E+03 -0.72262707433E+03  0.88925640359E+03  0.15294330000E+03 0.  0.
    8880022    1    1    2    0    0 -0.42832985614E+03  0.24845310238E+03 -0.13369439922E+04  0.14338780635E+04  0.15294330000E+03 0.  0.
<mgrwt>
<rscale>  0 0.51825386E+03</rscale>
<asrwt>0</asrwt>
<pdfrwt beam="1">  1        2 0.33713117E+00 0.51825386E+03</pdfrwt>
<pdfrwt beam="2">  1       -2 0.20274109E-01 0.51825386E+03</pdfrwt>
<totfact> 0.11545444E+02</totfact>
</mgrwt>
</event>
<event>
 4    1  0.5387657E-008  0.5833505E+03  0.7818608E-02  0.9940563E-01
          2   -1    0    0  501    0  0.00000000000E+00  0.00000000000E+00  0.18459996352E+04  0.18459996352E+04  0.25500000000E-02 0. -1.
         -2   -1    0    0    0  501 -0.00000000000E+00 -0.00000000000E+00 -0.28467824343E+03  0.28467824345E+03  0.25500000000E-02 0.  1.
    8880022    1    1    2    0    0  0.54789695998E+03  0.12928689390E+03  0.14819558895E+03  0.60188019180E+03  0.15294330000E+03 0.  0.
    8880022    1    1    2    0    0 -0.54789695998E+03 -0.12928689390E+03  0.14131258028E+04  0.15287976869E+04  0.15294330000E+03 0.  0.
<mgrwt>
<rscale>  0 0.58335052E+03</rscale>
<asrwt>0</asrwt>
<pdfrwt beam="1">  1        2 0.28399993E+00 0.58335052E+03</pdfrwt>
<pdfrwt beam="2">  1       -2 0.43796654E-01 0.58335052E+03</pdfrwt>
<totfact> 0.42297713E+01</totfact>
</mgrwt>
</event>
<event>
 4    1  0.5387657E-008  0.3624375E+03  0.7818608E-02  0.1057623E+00
          2   -1    0    0  501    0  0.00000000000E+00  0.00000000000E+00  0.20420916613E+04  0.20420916613E+04  0.25500000000E-02 0. -1.
         -2   -1    0    0    0  501 -0.00000000000E+00 -0.00000000000E+00 -0.13639862267E+03  0.13639862269E+03  0.25500000000E-02 0.  1.
    8880022    1    1    2    0    0 -0.19509185326E+03  0.26440200785E+03  0.16106773990E+03  0.39661533356E+03  0.15294330000E+03 0.  0.
    8880022    1    1    2    0    0  0.19509185326E+03 -0.26440200785E+03  0.17446252987E+04  0.17818749504E+04  0.15294330000E+03 0.  0.
<mgrwt>
<rscale>  0 0.36243745E+03</rscale>
<asrwt>0</asrwt>
<pdfrwt beam="1">  1        2 0.31416794E+00 0.36243745E+03</pdfrwt>
<pdfrwt beam="2">  1       -2 0.20984404E-01 0.36243745E+03</pdfrwt>
<totfact> 0.13456257E+02</totfact>
</mgrwt>
</event>
<event>
 4    1  0.5387657E-008  0.7496790E+03  0.7818608E-02  0.9635854E-01
         -2   -1    0    0    0  501 -0.00000000000E+00  0.00000000000E+00  0.23272714353E+03  0.23272714354E+03  0.25500000000E-02 0.  1.
          2   -1    0    0  501    0  0.00000000000E+00 -0.00000000000E+00 -0.26970806555E+04  0.26970806555E+04  0.25500000000E-02 0. -1.
    8880022    1    1    2    0    0 -0.32253416947E+03 -0.65924095500E+03 -0.75836415819E+03  0.10663652173E+04  0.15294330000E+03 0.  0.
    8880022    1    1    2    0    0  0.32253416947E+03  0.65924095500E+03 -0.17059893538E+04  0.18634425818E+04  0.15294330000E+03 0.  0.
<mgrwt>
<rscale>  0 0.74967898E+03</rscale>
<asrwt>0</asrwt>
<pdfrwt beam="1">  1        2 0.41493546E+00 0.74967898E+03</pdfrwt>
<pdfrwt beam="2">  1       -2 0.35804178E-01 0.74967898E+03</pdfrwt>
<totfact> 0.20543604E+01</totfact>
</mgrwt>
</event>
<event>
 4    1  0.5387657E-008  0.2692262E+03  0.7818608E-02  0.1101723E+00
         -2   -1    0    0    0  501 -0.00000000000E+00  0.00000000000E+00  0.11528038331E+03  0.11528038334E+03  0.25500000000E-02 0.  1.
          2   -1    0    0  501    0  0.00000000000E+00 -0.00000000000E+00 -0.19373184377E+04  0.19373184377E+04  0.25500000000E-02 0. -1.
    8880022    1    1    2    0    0  0.17675503205E+02  0.22085898653E+03 -0.17544925743E+04  0.17750287213E+04  0.15294330000E+03 0.  0.
    8880022    1    1    2    0    0 -0.17675503205E+02 -0.22085898653E+03 -0.67545480100E+02  0.27757009969E+03  0.15294330000E+03 0.  0.
<mgrwt>
<rscale>  0 0.26922624E+03</rscale>
<asrwt>0</asrwt>
<pdfrwt beam="1">  1        2 0.29804897E+00 0.26922624E+03</pdfrwt>
<pdfrwt beam="2">  1       -2 0.17735445E-01 0.26922624E+03</pdfrwt>
<totfact> 0.20829789E+02</totfact>
</mgrwt>
</event>
