<event>
 4    2  0.2930016E-007  0.7630004E+03  0.7818608E-02  0.9797401E-01
         -2   -1    0    0    0  501 -0.00000000000E+00  0.00000000000E+00  0.13630834392E+03  0.13630834394E+03  0.25500000000E-02 0.  1.
          2   -1    0    0  501    0  0.00000000000E+00 -0.00000000000E+00 -0.25893798796E+04  0.25893798796E+04  0.25500000000E-02 0. -1.
    8880023    1    1    2    0    0  0.37724850794E+03  0.77736599427E+02 -0.14080710575E+04  0.16015098267E+04  0.65864270000E+03 0.  1.
    8880022    1    1    2    0    0 -0.37724850794E+03 -0.77736599427E+02 -0.10450004782E+04  0.11241783969E+04  0.15294330000E+03 0.  0.
<mgrwt>
<rscale>  0 0.65502218E+03</rscale>
<asrwt>0</asrwt>
<pdfrwt beam="1">  1        2 0.39836610E+00 0.76300041E+03</pdfrwt>
<pdfrwt beam="2">  1       -2 0.20970516E-01 0.76300041E+03</pdfrwt>
<totfact> 0.63056699E+01</totfact>
</mgrwt>
</event>
<event>
 4    2  0.2930016E-007  0.7119200E+03  0.7818608E-02  0.9950939E-01
          2   -1    0    0  501    0  0.00000000000E+00  0.00000000000E+00  0.18004493523E+04  0.18004493523E+04  0.25500000000E-02 0. -1.
         -2   -1    0    0    0  501 -0.00000000000E+00 -0.00000000000E+00 -0.19562121313E+03  0.19562121314E+03  0.25500000000E-02 0.  1.
    8880023    1    1    2    0    0  0.15230524478E+03  0.22321068758E+03  0.15132417445E+04  0.16723428722E+04  0.65864270000E+03 0.  0.
    8880022    1    1    2    0    0 -0.15230524478E+03 -0.22321068758E+03  0.91586394605E+02  0.32372769318E+03  0.15294330000E+03 0.  0.
<mgrwt>
<rscale>  0 0.57854818E+03</rscale>
<asrwt>0</asrwt>
<pdfrwt beam="1">  1        2 0.27699221E+00 0.71192001E+03</pdfrwt>
<pdfrwt beam="2">  1       -2 0.30095571E-01 0.71192001E+03</pdfrwt>
<totfact> 0.90276185E+01</totfact>
</mgrwt>
</event>
<event>
 4    2  0.2930016E-007  0.6682923E+03  0.7818608E-02  0.1016918E+00
         -2   -1    0    0    0  501 -0.00000000000E+00  0.00000000000E+00  0.40584856256E+03  0.40584856257E+03  0.25500000000E-02 0.  1.
          2   -1    0    0  501    0  0.00000000000E+00 -0.00000000000E+00 -0.20078607264E+04  0.20078607264E+04  0.25500000000E-02 0. -1.
    8880023    1    1    2    0    0  0.11298061273E+03 -0.63118791336E+01 -0.19256357228E+04  0.20383050807E+04  0.65864270000E+03 0. -1.
    8880022    1    1    2    0    0 -0.11298061273E+03  0.63118791336E+01  0.32362355897E+03  0.37540420829E+03  0.15294330000E+03 0.  0.
<mgrwt>
<rscale>  0 0.48815485E+03</rscale>
<asrwt>0</asrwt>
<pdfrwt beam="1">  1        2 0.30890165E+00 0.66829235E+03</pdfrwt>
<pdfrwt beam="2">  1       -2 0.62438241E-01 0.66829235E+03</pdfrwt>
<totfact> 0.16489369E+01</totfact>
</mgrwt>
</event>
<event>
 4    2  0.2930016E-007  0.7248919E+03  0.7818608E-02  0.9906368E-01
          2   -1    0    0  501    0  0.00000000000E+00  0.00000000000E+00  0.11999310774E+04  0.11999310774E+04  0.25500000000E-02 0. -1.
         -2   -1    0    0    0  501 -0.00000000000E+00 -0.00000000000E+00 -0.79315846342E+03  0.79315846342E+03  0.25500000000E-02 0.  1.
    8880023    1    1    2    0    0 -0.72052942028E+02 -0.29405185326E+03  0.10441323256E+04  0.12710942681E+04  0.65864270000E+03 0. -1.
    8880022    1    1    2    0    0  0.72052942028E+02  0.29405185326E+03 -0.63735971159E+03  0.72199527272E+03  0.15294330000E+03 0.  0.
<mgrwt>
<rscale>  0 0.59953656E+03</rscale>
<asrwt>0</asrwt>
<pdfrwt beam="1">  1        2 0.18460478E+00 0.72489194E+03</pdfrwt>
<pdfrwt beam="2">  1       -2 0.12202438E+00 0.72489194E+03</pdfrwt>
<totfact> 0.98709587E+00</totfact>
</mgrwt>
</event>
<event>
 4    2  0.2930016E-007  0.9100579E+03  0.7818608E-02  0.9510075E-01
          2   -1    0    0  501    0  0.00000000000E+00  0.00000000000E+00  0.21146763093E+04  0.21146763093E+04  0.25500000000E-02 0. -1.
         -2   -1    0    0    0  501 -0.00000000000E+00 -0.00000000000E+00 -0.43301115506E+03  0.43301115507E+03  0.25500000000E-02 0.  1.
    8880023    1    1    2    0    0  0.99419104418E+02  0.62008946322E+03  0.16692425650E+04  0.19012038417E+04  0.65864270000E+03 0.  0.
    8880022    1    1    2    0    0 -0.99419104418E+02 -0.62008946322E+03  0.12422589331E+02  0.64648362273E+03  0.15294330000E+03 0.  0.
<mgrwt>
<rscale>  0 0.83545120E+03</rscale>
<asrwt>0</asrwt>
<pdfrwt beam="1">  1        2 0.32533482E+00 0.91005786E+03</pdfrwt>
<pdfrwt beam="2">  1       -2 0.66617100E-01 0.91005786E+03</pdfrwt>
<totfact> 0.12122185E+01</totfact>
</mgrwt>
</event>
<event>
 4    2  0.2930016E-007  0.6945447E+03  0.7818608E-02  0.1002063E+00
         -2   -1    0    0    0  501 -0.00000000000E+00  0.00000000000E+00  0.13550732972E+04  0.13550732972E+04  0.25500000000E-02 0.  1.
          2   -1    0    0  501    0  0.00000000000E+00 -0.00000000000E+00 -0.64491749136E+03  0.64491749136E+03  0.25500000000E-02 0. -1.
    8880023    1    1    2    0    0  0.20226215335E+03  0.87591200445E+02 -0.43786017570E+03  0.82104441829E+03  0.65864270000E+03 0.  0.
    8880022    1    1    2    0    0 -0.20226215335E+03 -0.87591200445E+02  0.11480159816E+04  0.11789463703E+04  0.15294330000E+03 0.  0.
<mgrwt>
<rscale>  0 0.54754777E+03</rscale>
<asrwt>0</asrwt>
<pdfrwt beam="1">  1        2 0.99218077E-01 0.69454475E+03</pdfrwt>
<pdfrwt beam="2">  1       -2 0.20847281E+00 0.69454475E+03</pdfrwt>
<totfact> 0.54743344E+00</totfact>
</mgrwt>
</event>
<event>
 4    2  0.2930016E-007  0.8793092E+03  0.7818608E-02  0.9560098E-01
          2   -1    0    0  501    0  0.00000000000E+00  0.00000000000E+00  0.14641443802E+04  0.14641443802E+04  0.25500000000E-02 0. -1.
         -2   -1    0    0    0  501 -0.00000000000E+00 -0.00000000000E+00 -0.46488672890E+03  0.46488672891E+03  0.25500000000E-02 0.  1.
    8880023    1    1    2    0    0  0.45688044166E+03 -0.36143422086E+03  0.99345603834E+03  0.13267025063E+04  0.65864270000E+03 0.  0.
    8880022    1    1    2    0    0 -0.45688044166E+03  0.36143422086E+03  0.58016129652E+01  0.60232860277E+03  0.15294330000E+03 0.  0.
<mgrwt>
<rscale>  0 0.79994392E+03</rscale>
<asrwt>0</asrwt>
<pdfrwt beam="1">  1        2 0.22525298E+00 0.87930918E+03</pdfrwt>
<pdfrwt beam="2">  1       -2 0.71521036E-01 0.87930918E+03</pdfrwt>
<totfact> 0.23797507E+01</totfact>
</mgrwt>
</event>
<event>
 4    2  0.2930016E-007  0.6686884E+03  0.7818608E-02  0.1016621E+00
          2   -1    0    0  501    0  0.00000000000E+00  0.00000000000E+00  0.30522846643E+03  0.30522846644E+03  0.25500000000E-02 0. -1.
         -2   -1    0    0    0  501 -0.00000000000E+00 -0.00000000000E+00 -0.69739271068E+03  0.69739271068E+03  0.25500000000E-02 0.  1.
    8880023    1    1    2    0    0  0.96413598036E+01 -0.11506933092E+03 -0.13545560402E+03  0.68226998590E+03  0.65864270000E+03 0.  0.
    8880022    1    1    2    0    0 -0.96413598036E+01  0.11506933092E+03 -0.25670864022E+03  0.32035119122E+03  0.15294330000E+03 0.  0.
<mgrwt>
<rscale>  0 0.48925905E+03</rscale>
<asrwt>0</asrwt>
<pdfrwt beam="1">  1        2 0.46958226E-01 0.66868835E+03</pdfrwt>
<pdfrwt beam="2">  1       -2 0.10729119E+00 0.66868835E+03</pdfrwt>
<totfact> 0.76235186E+01</totfact>
</mgrwt>
</event>
<event>
 4    2  0.2930016E-007  0.8362302E+03  0.7818608E-02  0.9637330E-01
          2   -1    0    0  501    0  0.00000000000E+00  0.00000000000E+00  0.22072519383E+04  0.22072519383E+04  0.25500000000E-02 0. -1.
         -2   -1    0    0    0  501 -0.00000000000E+00 -0.00000000000E+00 -0.47724080739E+03  0.47724080740E+03  0.25500000000E-02 0.  1.
    8880023    1    1    2    0    0  0.19692380956E+03 -0.47612154795E+03  0.19360242957E+04  0.21089027941E+04  0.65864270000E+03 0.  0.
    8880022    1    1    2    0    0 -0.19692380956E+03  0.47612154795E+03 -0.20601316485E+03  0.57558995153E+03  0.15294330000E+03 0.  0.
<mgrwt>
<rscale>  0 0.74873951E+03</rscale>
<asrwt>0</asrwt>
<pdfrwt beam="1">  1        2 0.33957721E+00 0.83623018E+03</pdfrwt>
<pdfrwt beam="2">  1       -2 0.73421665E-01 0.83623018E+03</pdfrwt>
<totfact> 0.87961793E+00</totfact>
</mgrwt>
</event>
<event>
 4    2  0.2930016E-007  0.6763954E+03  0.7818608E-02  0.1011441E+00
          2   -1    0    0  501    0  0.00000000000E+00  0.00000000000E+00  0.16236985229E+04  0.16236985229E+04  0.25500000000E-02 0. -1.
         -2   -1    0    0    0  501 -0.00000000000E+00 -0.00000000000E+00 -0.28293173220E+03  0.28293173221E+03  0.25500000000E-02 0.  1.
    8880023    1    1    2    0    0 -0.90579335059E+02 -0.12448246895E+03  0.14946660448E+04  0.16405905317E+04  0.65864270000E+03 0. -1.
    8880022    1    1    2    0    0  0.90579335059E+02  0.12448246895E+03 -0.15389925408E+03  0.26603972342E+03  0.15294330000E+03 0.  0.
<mgrwt>
<rscale>  0 0.50906008E+03</rscale>
<asrwt>0</asrwt>
<pdfrwt beam="1">  1        2 0.24979978E+00 0.67639538E+03</pdfrwt>
<pdfrwt beam="2">  1       -2 0.43527958E-01 0.67639538E+03</pdfrwt>
<totfact> 0.55843763E+01</totfact>
</mgrwt>
</event>
<event>
 4    2  0.2930016E-007  0.6628785E+03  0.7818608E-02  0.1021384E+00
          2   -1    0    0  501    0  0.00000000000E+00  0.00000000000E+00  0.81793538692E+03  0.81793538692E+03  0.25500000000E-02 0. -1.
         -2   -1    0    0    0  501 -0.00000000000E+00 -0.00000000000E+00 -0.36146508971E+03  0.36146508972E+03  0.25500000000E-02 0.  1.
    8880023    1    1    2    0    0  0.30932433843E+02  0.68124144774E+02  0.64532725013E+03  0.92512441357E+03  0.65864270000E+03 0. -1.
    8880022    1    1    2    0    0 -0.30932433843E+02 -0.68124144774E+02 -0.18885695292E+03  0.25427606306E+03  0.15294330000E+03 0.  0.
<mgrwt>
<rscale>  0 0.47190578E+03</rscale>
<asrwt>0</asrwt>
<pdfrwt beam="1">  1        2 0.12583621E+00 0.66287851E+03</pdfrwt>
<pdfrwt beam="2">  1       -2 0.55610014E-01 0.66287851E+03</pdfrwt>
<totfact> 0.10347839E+02</totfact>
</mgrwt>
</event>
<event>
 4    2  0.2930016E-007  0.7897866E+03  0.7818608E-02  0.9733331E-01
          2   -1    0    0  501    0  0.00000000000E+00  0.00000000000E+00  0.27332561835E+04  0.27332561835E+04  0.25500000000E-02 0. -1.
         -2   -1    0    0    0  501 -0.00000000000E+00 -0.00000000000E+00 -0.47191997854E+03  0.47191997855E+03  0.25500000000E-02 0.  1.
    8880023    1    1    2    0    0 -0.24953403685E+03  0.35733097090E+03  0.25439198202E+04  0.26636987285E+04  0.65864270000E+03 0. -1.
    8880022    1    1    2    0    0  0.24953403685E+03 -0.35733097090E+03 -0.28258361531E+03  0.54147743348E+03  0.15294330000E+03 0.  0.
<mgrwt>
<rscale>  0 0.69066501E+03</rscale>
<asrwt>0</asrwt>
<pdfrwt beam="1">  1        2 0.42050095E+00 0.78978659E+03</pdfrwt>
<pdfrwt beam="2">  1       -2 0.72603073E-01 0.78978659E+03</pdfrwt>
<totfact> 0.45684493E+00</totfact>
</mgrwt>
</event>
<event>
 4    2  0.2930016E-007  0.7603949E+03  0.7818608E-02  0.9804086E-01
         -2   -1    0    0    0  501 -0.00000000000E+00  0.00000000000E+00  0.28519638353E+03  0.28519638354E+03  0.25500000000E-02 0.  1.
          2   -1    0    0  501    0  0.00000000000E+00 -0.00000000000E+00 -0.23333423103E+04  0.23333423103E+04  0.25500000000E-02 0. -1.
    8880023    1    1    2    0    0  0.37757098676E+03 -0.42783286389E+02 -0.20731133833E+04  0.22081665621E+04  0.65864270000E+03 0. -1.
    8880022    1    1    2    0    0 -0.37757098676E+03  0.42783286389E+02  0.24967456505E+02  0.41037213177E+03  0.15294330000E+03 0.  0.
<mgrwt>
<rscale>  0 0.65143720E+03</rscale>
<asrwt>0</asrwt>
<pdfrwt beam="1">  1        2 0.35897573E+00 0.76039494E+03</pdfrwt>
<pdfrwt beam="2">  1       -2 0.43876368E-01 0.76039494E+03</pdfrwt>
<totfact> 0.22225247E+01</totfact>
</mgrwt>
</event>
<event>
 4    2  0.2930016E-007  0.6948288E+03  0.7818608E-02  0.1001937E+00
          2   -1    0    0  501    0  0.00000000000E+00  0.00000000000E+00  0.14429889963E+04  0.14429889963E+04  0.25500000000E-02 0. -1.
         -2   -1    0    0    0  501 -0.00000000000E+00 -0.00000000000E+00 -0.22326855347E+03  0.22326855348E+03  0.25500000000E-02 0.  1.
    8880023    1    1    2    0    0 -0.15477284198E+03 -0.15818403331E+03  0.12121063349E+04  0.13971359255E+04  0.65864270000E+03 0. -1.
    8880022    1    1    2    0    0  0.15477284198E+03  0.15818403331E+03  0.76141079673E+01  0.26912162430E+03  0.15294330000E+03 0.  0.
<mgrwt>
<rscale>  0 0.54809018E+03</rscale>
<asrwt>0</asrwt>
<pdfrwt beam="1">  1        2 0.22199831E+00 0.69482878E+03</pdfrwt>
<pdfrwt beam="2">  1       -2 0.34349008E-01 0.69482878E+03</pdfrwt>
<totfact> 0.11098298E+02</totfact>
</mgrwt>
</event>
<event>
 4    2  0.2930016E-007  0.6696925E+03  0.7818608E-02  0.1015884E+00
         -2   -1    0    0    0  501 -0.00000000000E+00  0.00000000000E+00  0.52752059218E+03  0.52752059218E+03  0.25500000000E-02 0.  1.
          2   -1    0    0  501    0  0.00000000000E+00 -0.00000000000E+00 -0.42653813505E+03  0.42653813506E+03  0.25500000000E-02 0. -1.
    8880023    1    1    2    0    0 -0.11785842412E+03  0.28058312186E+02 -0.96308494024E+02  0.67658215266E+03  0.65864270000E+03 0. -1.
    8880022    1    1    2    0    0  0.11785842412E+03 -0.28058312186E+02  0.19729095115E+03  0.27747657458E+03  0.15294330000E+03 0.  0.
<mgrwt>
<rscale>  0 0.49201549E+03</rscale>
<asrwt>0</asrwt>
<pdfrwt beam="1">  1        2 0.65621252E-01 0.66969253E+03</pdfrwt>
<pdfrwt beam="2">  1       -2 0.81157014E-01 0.66969253E+03</pdfrwt>
<totfact> 0.10041911E+02</totfact>
</mgrwt>
</event>
<event>
 4    2  0.2930016E-007  0.6614452E+03  0.7818608E-02  0.1022722E+00
          2   -1    0    0  501    0  0.00000000000E+00  0.00000000000E+00  0.94406706050E+03  0.94406706050E+03  0.25500000000E-02 0. -1.
         -2   -1    0    0    0  501 -0.00000000000E+00 -0.00000000000E+00 -0.33677730659E+03  0.33677730660E+03  0.25500000000E-02 0.  1.
    8880023    1    1    2    0    0  0.58892997580E+02  0.15205626294E+02  0.79303007367E+03  0.10326695988E+04  0.65864270000E+03 0. -1.
    8880022    1    1    2    0    0 -0.58892997580E+02 -0.15205626294E+02 -0.18574031976E+03  0.24817476833E+03  0.15294330000E+03 0.  0.
<mgrwt>
<rscale>  0 0.46716904E+03</rscale>
<asrwt>0</asrwt>
<pdfrwt beam="1">  1        2 0.14524109E+00 0.66144524E+03</pdfrwt>
<pdfrwt beam="2">  1       -2 0.51811894E-01 0.66144524E+03</pdfrwt>
<totfact> 0.98314604E+01</totfact>
</mgrwt>
</event>
<event>
 4    2  0.2930016E-007  0.7237238E+03  0.7818608E-02  0.9910182E-01
         -2   -1    0    0    0  501 -0.00000000000E+00  0.00000000000E+00  0.38785539931E+03  0.38785539932E+03  0.25500000000E-02 0.  1.
          2   -1    0    0  501    0  0.00000000000E+00 -0.00000000000E+00 -0.17060756345E+04  0.17060756345E+04  0.25500000000E-02 0. -1.
    8880023    1    1    2    0    0 -0.29203809016E+03 -0.68408178632E+02 -0.15325309795E+04  0.16948236883E+04  0.65864270000E+03 0. -1.
    8880022    1    1    2    0    0  0.29203809016E+03  0.68408178632E+02  0.21431074440E+03  0.39910734545E+03  0.15294330000E+03 0.  0.
<mgrwt>
<rscale>  0 0.59770372E+03</rscale>
<asrwt>0</asrwt>
<pdfrwt beam="1">  1        2 0.26247317E+00 0.72372379E+03</pdfrwt>
<pdfrwt beam="2">  1       -2 0.59670062E-01 0.72372379E+03</pdfrwt>
<totfact> 0.26279644E+01</totfact>
</mgrwt>
</event>
<event>
 4    2  0.2930016E-007  0.6651718E+03  0.7818608E-02  0.1019390E+00
          2   -1    0    0  501    0  0.00000000000E+00  0.00000000000E+00  0.40068457099E+04  0.40068457099E+04  0.25500000000E-02 0. -1.
         -2   -1    0    0    0  501 -0.00000000000E+00 -0.00000000000E+00 -0.16725811033E+03  0.16725811034E+03  0.25500000000E-02 0.  1.
    8880023    1    1    2    0    0  0.89299599198E+02 -0.25863573416E+02  0.39213241227E+04  0.39773403707E+04  0.65864270000E+03 0. -1.
    8880022    1    1    2    0    0 -0.89299599198E+02  0.25863573416E+02 -0.81736523131E+02  0.19676344954E+03  0.15294330000E+03 0.  0.
<mgrwt>
<rscale>  0 0.47907495E+03</rscale>
<asrwt>0</asrwt>
<pdfrwt beam="1">  1        2 0.61643772E+00 0.66517182E+03</pdfrwt>
<pdfrwt beam="2">  1       -2 0.25732020E-01 0.66517182E+03</pdfrwt>
<totfact> 0.51761783E+00</totfact>
</mgrwt>
</event>
<event>
 4    2  0.2930016E-007  0.7480157E+03  0.7818608E-02  0.9837184E-01
         -2   -1    0    0    0  501 -0.00000000000E+00  0.00000000000E+00  0.53528289086E+03  0.53528289086E+03  0.25500000000E-02 0.  1.
          2   -1    0    0  501    0  0.00000000000E+00 -0.00000000000E+00 -0.14884102665E+04  0.14884102665E+04  0.25500000000E-02 0. -1.
    8880023    1    1    2    0    0 -0.35229167524E+03 -0.40097667992E+02 -0.13031131355E+04  0.15025416126E+04  0.65864270000E+03 0. -1.
    8880022    1    1    2    0    0  0.35229167524E+03  0.40097667992E+02  0.34998575990E+03  0.52115154473E+03  0.15294330000E+03 0.  0.
<mgrwt>
<rscale>  0 0.63404630E+03</rscale>
<asrwt>0</asrwt>
<pdfrwt beam="1">  1        2 0.22898619E+00 0.74801568E+03</pdfrwt>
<pdfrwt beam="2">  1       -2 0.82351214E-01 0.74801568E+03</pdfrwt>
<totfact> 0.17089217E+01</totfact>
</mgrwt>
</event>
<event>
 4    2  0.2930016E-007  0.1270158E+04  0.7818608E-02  0.9091769E-01
         -2   -1    0    0    0  501 -0.00000000000E+00  0.00000000000E+00  0.21243384287E+04  0.21243384287E+04  0.25500000000E-02 0.  1.
          2   -1    0    0  501    0  0.00000000000E+00 -0.00000000000E+00 -0.88089556332E+03  0.88089556332E+03  0.25500000000E-02 0. -1.
    8880023    1    1    2    0    0 -0.22390038906E+03 -0.10627130768E+04 -0.96320341711E+02  0.12738046484E+04  0.65864270000E+03 0.  0.
    8880022    1    1    2    0    0  0.22390038906E+03  0.10627130768E+04  0.13397632071E+04  0.17314293436E+04  0.15294330000E+03 0.  0.
<mgrwt>
<rscale>  0 0.12243938E+04</rscale>
<asrwt>0</asrwt>
<pdfrwt beam="1">  1        2 0.13552239E+00 0.12701577E+04</pdfrwt>
<pdfrwt beam="2">  1       -2 0.32682130E+00 0.12701577E+04</pdfrwt>
<totfact> 0.63928962E-01</totfact>
</mgrwt>
</event>
<event>
 4    2  0.2930016E-007  0.1009223E+04  0.7818608E-02  0.9369589E-01
         -2   -1    0    0    0  501 -0.00000000000E+00  0.00000000000E+00  0.12828963014E+04  0.12828963014E+04  0.25500000000E-02 0.  1.
          2   -1    0    0  501    0  0.00000000000E+00 -0.00000000000E+00 -0.81928139443E+03  0.81928139444E+03  0.25500000000E-02 0. -1.
    8880023    1    1    2    0    0  0.46797075310E+03 -0.60475220533E+03 -0.25586968304E+03  0.10411538583E+04  0.65864270000E+03 0.  0.
    8880022    1    1    2    0    0 -0.46797075310E+03  0.60475220533E+03  0.71948458995E+03  0.10610238375E+04  0.15294330000E+03 0.  0.
<mgrwt>
<rscale>  0 0.94621231E+03</rscale>
<asrwt>0</asrwt>
<pdfrwt beam="1">  1        2 0.12604329E+00 0.10092235E+04</pdfrwt>
<pdfrwt beam="2">  1       -2 0.19736866E+00 0.10092235E+04</pdfrwt>
<totfact> 0.45799843E+00</totfact>
</mgrwt>
</event>
<event>
 4    2  0.2930016E-007  0.8221867E+03  0.7818608E-02  0.9664730E-01
         -2   -1    0    0    0  501 -0.00000000000E+00  0.00000000000E+00  0.17554805793E+03  0.17554805795E+03  0.25500000000E-02 0.  1.
          2   -1    0    0  501    0  0.00000000000E+00 -0.00000000000E+00 -0.26384573560E+04  0.26384573560E+04  0.25500000000E-02 0. -1.
    8880023    1    1    2    0    0 -0.22190890636E+03  0.43924612524E+03 -0.17584965015E+04  0.19412111872E+04  0.65864270000E+03 0.  0.
    8880022    1    1    2    0    0  0.22190890636E+03 -0.43924612524E+03 -0.70441279654E+03  0.87279422672E+03  0.15294330000E+03 0.  0.
<mgrwt>
<rscale>  0 0.73156124E+03</rscale>
<asrwt>0</asrwt>
<pdfrwt beam="1">  1        2 0.40591649E+00 0.82218667E+03</pdfrwt>
<pdfrwt beam="2">  1       -2 0.27007395E-01 0.82218667E+03</pdfrwt>
<totfact> 0.37244475E+01</totfact>
</mgrwt>
</event>
<event>
 4    2  0.2930016E-007  0.1102544E+04  0.7818608E-02  0.9258230E-01
          2   -1    0    0  501    0  0.00000000000E+00  0.00000000000E+00  0.19084167339E+04  0.19084167339E+04  0.25500000000E-02 0. -1.
         -2   -1    0    0    0  501 -0.00000000000E+00 -0.00000000000E+00 -0.87335323149E+03  0.87335323150E+03  0.25500000000E-02 0.  1.
    8880023    1    1    2    0    0 -0.27425082641E+03 -0.84058227228E+03 -0.32760987064E+03  0.11501871612E+04  0.65864270000E+03 0.  0.
    8880022    1    1    2    0    0  0.27425082641E+03  0.84058227228E+03  0.13626733731E+04  0.16315828042E+04  0.15294330000E+03 0.  0.
<mgrwt>
<rscale>  0 0.10472098E+04</rscale>
<asrwt>0</asrwt>
<pdfrwt beam="1">  1        2 0.29360257E+00 0.11025435E+04</pdfrwt>
<pdfrwt beam="2">  1       -2 0.13436204E+00 0.11025435E+04</pdfrwt>
<totfact> 0.29540755E+00</totfact>
</mgrwt>
</event>
<event>
 4    2  0.2930016E-007  0.6952143E+03  0.7818608E-02  0.1001766E+00
         -2   -1    0    0    0  501 -0.00000000000E+00  0.00000000000E+00  0.29393702007E+03  0.29393702009E+03  0.25500000000E-02 0.  1.
          2   -1    0    0  501    0  0.00000000000E+00 -0.00000000000E+00 -0.29110454701E+04  0.29110454701E+04  0.25500000000E-02 0. -1.
    8880023    1    1    2    0    0 -0.20130850343E+03 -0.94802817901E+02 -0.27959702624E+04  0.28811061421E+04  0.65864270000E+03 0. -1.
    8880022    1    1    2    0    0  0.20130850343E+03  0.94802817901E+02  0.17886181242E+03  0.32387634800E+03  0.15294330000E+03 0.  0.
<mgrwt>
<rscale>  0 0.54882412E+03</rscale>
<asrwt>0</asrwt>
<pdfrwt beam="1">  1        2 0.44785313E+00 0.69521428E+03</pdfrwt>
<pdfrwt beam="2">  1       -2 0.45221082E-01 0.69521428E+03</pdfrwt>
<totfact> 0.98272439E+00</totfact>
</mgrwt>
</event>
<event>
 4    2  0.2930016E-007  0.6633794E+03  0.7818608E-02  0.1020934E+00
          2   -1    0    0  501    0  0.00000000000E+00  0.00000000000E+00  0.17394932624E+04  0.17394932624E+04  0.25500000000E-02 0. -1.
         -2   -1    0    0    0  501 -0.00000000000E+00 -0.00000000000E+00 -0.24290625225E+03  0.24290625226E+03  0.25500000000E-02 0.  1.
    8880023    1    1    2    0    0 -0.73650216040E+02  0.28943368111E+02  0.16330724628E+04  0.17626678496E+04  0.65864270000E+03 0. -1.
    8880022    1    1    2    0    0  0.73650216040E+02 -0.28943368111E+02 -0.13648545260E+03  0.21973166514E+03  0.15294330000E+03 0.  0.
<mgrwt>
<rscale>  0 0.47351246E+03</rscale>
<asrwt>0</asrwt>
<pdfrwt beam="1">  1        2 0.26761436E+00 0.66337944E+03</pdfrwt>
<pdfrwt beam="2">  1       -2 0.37370191E-01 0.66337944E+03</pdfrwt>
<totfact> 0.65104881E+01</totfact>
</mgrwt>
</event>
<event>
 4    2  0.2930016E-007  0.7345386E+03  0.7818608E-02  0.9876151E-01
         -2   -1    0    0    0  501 -0.00000000000E+00  0.00000000000E+00  0.21364591116E+03  0.21364591118E+03  0.25500000000E-02 0.  1.
          2   -1    0    0  501    0  0.00000000000E+00 -0.00000000000E+00 -0.18304858300E+04  0.18304858300E+04  0.25500000000E-02 0. -1.
    8880023    1    1    2    0    0 -0.15434668431E+03 -0.28620602739E+03 -0.14932390493E+04  0.16641243504E+04  0.65864270000E+03 0.  0.
    8880022    1    1    2    0    0  0.15434668431E+03  0.28620602739E+03 -0.12360086956E+03  0.38000739078E+03  0.15294330000E+03 0.  0.
<mgrwt>
<rscale>  0 0.61431160E+03</rscale>
<asrwt>0</asrwt>
<pdfrwt beam="1">  1        2 0.28161319E+00 0.73453863E+03</pdfrwt>
<pdfrwt beam="2">  1       -2 0.32868603E-01 0.73453863E+03</pdfrwt>
<totfact> 0.73552166E+01</totfact>
</mgrwt>
</event>
<event>
 4    2  0.2930016E-007  0.6782268E+03  0.7818608E-02  0.1010345E+00
         -2   -1    0    0    0  501 -0.00000000000E+00  0.00000000000E+00  0.56256732219E+03  0.56256732220E+03  0.25500000000E-02 0.  1.
          2   -1    0    0  501    0  0.00000000000E+00 -0.00000000000E+00 -0.85148348680E+03  0.85148348681E+03  0.25500000000E-02 0. -1.
    8880023    1    1    2    0    0 -0.37605971732E+02 -0.15737596423E+03 -0.68229161226E+03  0.96203609790E+03  0.65864270000E+03 0. -1.
    8880022    1    1    2    0    0  0.37605971732E+02  0.15737596423E+03  0.39337544765E+03  0.45201471111E+03  0.15294330000E+03 0.  0.
<mgrwt>
<rscale>  0 0.51337762E+03</rscale>
<asrwt>0</asrwt>
<pdfrwt beam="1">  1        2 0.13099746E+00 0.67822681E+03</pdfrwt>
<pdfrwt beam="2">  1       -2 0.86548819E-01 0.67822681E+03</pdfrwt>
<totfact> 0.37381490E+01</totfact>
</mgrwt>
</event>
<event>
 4    2  0.2930016E-007  0.6893885E+03  0.7818608E-02  0.1004445E+00
          2   -1    0    0  501    0  0.00000000000E+00  0.00000000000E+00  0.30847661964E+04  0.30847661964E+04  0.25500000000E-02 0. -1.
         -2   -1    0    0    0  501 -0.00000000000E+00 -0.00000000000E+00 -0.20199612822E+03  0.20199612823E+03  0.25500000000E-02 0.  1.
    8880023    1    1    2    0    0  0.19088787875E+03  0.70767899062E+02  0.29450188577E+04  0.30246309785E+04  0.65864270000E+03 0. -1.
    8880022    1    1    2    0    0 -0.19088787875E+03 -0.70767899062E+02 -0.62248789529E+02  0.26213134609E+03  0.15294330000E+03 0.  0.
<mgrwt>
<rscale>  0 0.53743589E+03</rscale>
<asrwt>0</asrwt>
<pdfrwt beam="1">  1        2 0.47457940E+00 0.68938849E+03</pdfrwt>
<pdfrwt beam="2">  1       -2 0.31076328E-01 0.68938849E+03</pdfrwt>
<totfact> 0.15875470E+01</totfact>
</mgrwt>
</event>
<event>
 4    2  0.2930016E-007  0.6632462E+03  0.7818608E-02  0.1021052E+00
          2   -1    0    0  501    0  0.00000000000E+00  0.00000000000E+00  0.25315272094E+03  0.25315272096E+03  0.25500000000E-02 0. -1.
         -2   -1    0    0    0  501 -0.00000000000E+00 -0.00000000000E+00 -0.83927726349E+03  0.83927726349E+03  0.25500000000E-02 0.  1.
    8880023    1    1    2    0    0  0.71554050780E+02  0.31069005248E+02 -0.23868907948E+03  0.70488860694E+03  0.65864270000E+03 0. -1.
    8880022    1    1    2    0    0 -0.71554050780E+02 -0.31069005248E+02 -0.34743546307E+03  0.38754137751E+03  0.15294330000E+03 0.  0.
<mgrwt>
<rscale>  0 0.47308733E+03</rscale>
<asrwt>0</asrwt>
<pdfrwt beam="1">  1        2 0.38946573E-01 0.66324616E+03</pdfrwt>
<pdfrwt beam="2">  1       -2 0.12911958E+00 0.66324616E+03</pdfrwt>
<totfact> 0.59508966E+01</totfact>
</mgrwt>
</event>
<event>
 4    2  0.2930016E-007  0.1127633E+04  0.7818608E-02  0.9230896E-01
          2   -1    0    0  501    0  0.00000000000E+00  0.00000000000E+00  0.29603788749E+04  0.29603788749E+04  0.25500000000E-02 0. -1.
         -2   -1    0    0    0  501 -0.00000000000E+00 -0.00000000000E+00 -0.37109566443E+03  0.37109566444E+03  0.25500000000E-02 0.  1.
    8880023    1    1    2    0    0 -0.65616986337E+03  0.63811243561E+03  0.17405542897E+04  0.20739059312E+04  0.65864270000E+03 0.  0.
    8880022    1    1    2    0    0  0.65616986337E+03 -0.63811243561E+03  0.84872892081E+03  0.12575686081E+04  0.15294330000E+03 0. -1.
<mgrwt>
<rscale>  0 0.10740141E+04</rscale>
<asrwt>0</asrwt>
<pdfrwt beam="1">  1        2 0.45544291E+00 0.11276332E+04</pdfrwt>
<pdfrwt beam="2">  1       -2 0.57091640E-01 0.11276332E+04</pdfrwt>
<totfact> 0.53271091E+00</totfact>
</mgrwt>
</event>
<event>
 4    2  0.4058317E-007  0.7581301E+03  0.7818608E-02  0.9809973E-01
          2   -1    0    0  501    0  0.00000000000E+00  0.00000000000E+00  0.18283619099E+04  0.18283619099E+04  0.25500000000E-02 0. -1.
         -2   -1    0    0    0  501 -0.00000000000E+00 -0.00000000000E+00 -0.75273009479E+03  0.75273009480E+03  0.25500000000E-02 0.  1.
    8880023    1    1    2    0    0 -0.20872193095E+03  0.31206751153E+03  0.16858586635E+04  0.18484806236E+04  0.65864270000E+03 0. -1.
    8880022    1    1    2    0    0  0.20872193095E+03 -0.31206751153E+03 -0.61022684840E+03  0.73261138111E+03  0.15294330000E+03 0.  0.
<mgrwt>
<rscale>  0 0.64830081E+03</rscale>
<asrwt>0</asrwt>
<pdfrwt beam="1">  1        2 0.28128644E+00 0.75813006E+03</pdfrwt>
<pdfrwt beam="2">  1       -2 0.11580463E+00 0.75813006E+03</pdfrwt>
<totfact> 0.49722134E+00</totfact>
</mgrwt>
</event>
<event>
 4    2  0.2930016E-007  0.6709254E+03  0.7818608E-02  0.1015008E+00
          2   -1    0    0  501    0  0.00000000000E+00  0.00000000000E+00  0.22471747553E+03  0.22471747554E+03  0.25500000000E-02 0. -1.
         -2   -1    0    0    0  501 -0.00000000000E+00 -0.00000000000E+00 -0.97006356003E+03  0.97006356003E+03  0.25500000000E-02 0.  1.
    8880023    1    1    2    0    0 -0.12452432770E+03 -0.28712175924E+02 -0.36111552337E+03  0.76193524969E+03  0.65864270000E+03 0. -1.
    8880022    1    1    2    0    0  0.12452432770E+03  0.28712175924E+02 -0.38423056113E+03  0.43284578589E+03  0.15294330000E+03 0.  0.
<mgrwt>
<rscale>  0 0.49531907E+03</rscale>
<asrwt>0</asrwt>
<pdfrwt beam="1">  1        2 0.34571920E-01 0.67092541E+03</pdfrwt>
<pdfrwt beam="2">  1       -2 0.14924055E+00 0.67092541E+03</pdfrwt>
<totfact> 0.46780648E+01</totfact>
</mgrwt>
</event>
<event>
 4    2  0.2930016E-007  0.9224746E+03  0.7818608E-02  0.9490875E-01
         -2   -1    0    0    0  501 -0.00000000000E+00  0.00000000000E+00  0.47404230762E+03  0.47404230763E+03  0.25500000000E-02 0.  1.
          2   -1    0    0  501    0  0.00000000000E+00 -0.00000000000E+00 -0.19550899744E+04  0.19550899744E+04  0.25500000000E-02 0. -1.
    8880023    1    1    2    0    0  0.51551271300E+03  0.38909617179E+03 -0.15047215448E+04  0.17649777114E+04  0.65864270000E+03 0.  0.
    8880022    1    1    2    0    0 -0.51551271300E+03 -0.38909617179E+03  0.23673878003E+02  0.66415457063E+03  0.15294330000E+03 0.  0.
<mgrwt>
<rscale>  0 0.84959918E+03</rscale>
<asrwt>0</asrwt>
<pdfrwt beam="1">  1        2 0.30078307E+00 0.92247460E+03</pdfrwt>
<pdfrwt beam="2">  1       -2 0.72929587E-01 0.92247460E+03</pdfrwt>
<totfact> 0.12154124E+01</totfact>
</mgrwt>
</event>
<event>
 4    2  0.2930016E-007  0.1024219E+04  0.7818608E-02  0.9350536E-01
          2   -1    0    0  501    0  0.00000000000E+00  0.00000000000E+00  0.10787958560E+04  0.10787958560E+04  0.25500000000E-02 0. -1.
         -2   -1    0    0    0  501 -0.00000000000E+00 -0.00000000000E+00 -0.77441900019E+03  0.77441900020E+03  0.25500000000E-02 0.  1.
    8880023    1    1    2    0    0 -0.29873309438E+03  0.72523981031E+03  0.23678392470E+03  0.10512331223E+04  0.65864270000E+03 0.  0.
    8880022    1    1    2    0    0  0.29873309438E+03 -0.72523981031E+03  0.67592931081E+02  0.80198173388E+03  0.15294330000E+03 0.  1.
<mgrwt>
<rscale>  0 0.96260634E+03</rscale>
<asrwt>0</asrwt>
<pdfrwt beam="1">  1        2 0.16596859E+00 0.10242189E+04</pdfrwt>
<pdfrwt beam="2">  1       -2 0.11914139E+00 0.10242189E+04</pdfrwt>
<totfact> 0.12023938E+01</totfact>
</mgrwt>
</event>
<event>
 4    2  0.2930016E-007  0.9905037E+03  0.7818608E-02  0.9394088E-01
          2   -1    0    0  501    0  0.00000000000E+00  0.00000000000E+00  0.18354406202E+04  0.18354406202E+04  0.25500000000E-02 0. -1.
         -2   -1    0    0    0  501 -0.00000000000E+00 -0.00000000000E+00 -0.51943949564E+03  0.51943949564E+03  0.25500000000E-02 0.  1.
    8880023    1    1    2    0    0  0.59936394632E+03 -0.43364764936E+03  0.12524381302E+04  0.15967776615E+04  0.65864270000E+03 0.  0.
    8880022    1    1    2    0    0 -0.59936394632E+03  0.43364764936E+03  0.63562994283E+02  0.75810245429E+03  0.15294330000E+03 0.  0.
<mgrwt>
<rscale>  0 0.92563779E+03</rscale>
<asrwt>0</asrwt>
<pdfrwt beam="1">  1        2 0.28237548E+00 0.99050373E+03</pdfrwt>
<pdfrwt beam="2">  1       -2 0.79913769E-01 0.99050373E+03</pdfrwt>
<totfact> 0.11440337E+01</totfact>
</mgrwt>
</event>
<event>
 4    2  0.2930016E-007  0.6977618E+03  0.7818608E-02  0.1000662E+00
         -2   -1    0    0    0  501 -0.00000000000E+00  0.00000000000E+00  0.80711526064E+03  0.80711526064E+03  0.25500000000E-02 0.  1.
          2   -1    0    0  501    0  0.00000000000E+00 -0.00000000000E+00 -0.13987547016E+04  0.13987547016E+04  0.25500000000E-02 0. -1.
    8880023    1    1    2    0    0 -0.18895161641E+03  0.13175207662E+03 -0.12834437747E+04  0.14608557259E+04  0.65864270000E+03 0. -1.
    8880022    1    1    2    0    0  0.18895161641E+03 -0.13175207662E+03  0.69180433374E+03  0.74501423626E+03  0.15294330000E+03 0.  0.
<mgrwt>
<rscale>  0 0.55361098E+03</rscale>
<asrwt>0</asrwt>
<pdfrwt beam="1">  1        2 0.21519303E+00 0.69776180E+03</pdfrwt>
<pdfrwt beam="2">  1       -2 0.12417158E+00 0.69776180E+03</pdfrwt>
<totfact> 0.72863631E+00</totfact>
</mgrwt>
</event>
<event>
 4    2  0.2930016E-007  0.7337701E+03  0.7818608E-02  0.9878481E-01
         -2   -1    0    0    0  501 -0.00000000000E+00  0.00000000000E+00  0.33471682177E+03  0.33471682178E+03  0.25500000000E-02 0.  1.
          2   -1    0    0  501    0  0.00000000000E+00 -0.00000000000E+00 -0.10788431543E+04  0.10788431543E+04  0.25500000000E-02 0. -1.
    8880023    1    1    2    0    0 -0.32319789624E+03 -0.12305254820E+02 -0.75871256288E+03  0.10554919511E+04  0.65864270000E+03 0. -1.
    8880022    1    1    2    0    0  0.32319789624E+03  0.12305254820E+02  0.14586230324E+02  0.35806802505E+03  0.15294330000E+03 0.  0.
<mgrwt>
<rscale>  0 0.61315633E+03</rscale>
<asrwt>0</asrwt>
<pdfrwt beam="1">  1        2 0.16597587E+00 0.73377006E+03</pdfrwt>
<pdfrwt beam="2">  1       -2 0.51494896E-01 0.73377006E+03</pdfrwt>
<totfact> 0.81298845E+01</totfact>
</mgrwt>
</event>
<event>
 4    2  0.2930016E-007  0.9254464E+03  0.7818608E-02  0.9486358E-01
          2   -1    0    0  501    0  0.00000000000E+00  0.00000000000E+00  0.57796780108E+03  0.57796780109E+03  0.25500000000E-02 0. -1.
         -2   -1    0    0    0  501 -0.00000000000E+00 -0.00000000000E+00 -0.22655475075E+04  0.22655475075E+04  0.25500000000E-02 0.  1.
    8880023    1    1    2    0    0  0.29267054257E+02 -0.64944919877E+03  0.10422069662E+03  0.93129639864E+03  0.65864270000E+03 0.  0.
    8880022    1    1    2    0    0 -0.29267054257E+02  0.64944919877E+03 -0.17918004030E+04  0.19122189099E+04  0.15294330000E+03 0.  0.
<mgrwt>
<rscale>  0 0.85297099E+03</rscale>
<asrwt>0</asrwt>
<pdfrwt beam="1">  1        2 0.88918124E-01 0.92544639E+03</pdfrwt>
<pdfrwt beam="2">  1       -2 0.34854577E+00 0.92544639E+03</pdfrwt>
<totfact> 0.84455571E-01</totfact>
</mgrwt>
</event>
<event>
 4    2  0.3249797E-007  0.7907112E+03  0.7818608E-02  0.9731252E-01
         -2   -1    0    0    0  501 -0.00000000000E+00  0.00000000000E+00  0.11620793430E+04  0.11620793430E+04  0.25500000000E-02 0.  1.
          2   -1    0    0  501    0  0.00000000000E+00 -0.00000000000E+00 -0.18640592956E+04  0.18640592956E+04  0.25500000000E-02 0. -1.
    8880023    1    1    2    0    0 -0.42677653519E+03  0.96310851196E+02 -0.17279876835E+04  0.19003067204E+04  0.65864270000E+03 0. -1.
    8880022    1    1    2    0    0  0.42677653519E+03 -0.96310851196E+02  0.10260077309E+04  0.11258319182E+04  0.15294330000E+03 0.  0.
<mgrwt>
<rscale>  0 0.69186144E+03</rscale>
<asrwt>0</asrwt>
<pdfrwt beam="1">  1        2 0.28677835E+00 0.79071120E+03</pdfrwt>
<pdfrwt beam="2">  1       -2 0.17878144E+00 0.79071120E+03</pdfrwt>
<totfact> 0.15135294E+00</totfact>
</mgrwt>
</event>
<event>
 4    2  0.2930016E-007  0.6598071E+03  0.7818608E-02  0.1024355E+00
         -2   -1    0    0    0  501 -0.00000000000E+00  0.00000000000E+00  0.20444658555E+03  0.20444658557E+03  0.25500000000E-02 0.  1.
          2   -1    0    0  501    0  0.00000000000E+00 -0.00000000000E+00 -0.17517807281E+04  0.17517807281E+04  0.25500000000E-02 0. -1.
    8880023    1    1    2    0    0 -0.31438431024E+02  0.23383279108E+02 -0.16437514835E+04  0.17712324236E+04  0.65864270000E+03 0. -1.
    8880022    1    1    2    0    0  0.31438431024E+02 -0.23383279108E+02  0.96417340972E+02  0.18499489004E+03  0.15294330000E+03 0.  0.
<mgrwt>
<rscale>  0 0.46147274E+03</rscale>
<asrwt>0</asrwt>
<pdfrwt beam="1">  1        2 0.26950472E+00 0.65980706E+03</pdfrwt>
<pdfrwt beam="2">  1       -2 0.31453322E-01 0.65980706E+03</pdfrwt>
<totfact> 0.88900490E+01</totfact>
</mgrwt>
</event>
<event>
 4    2  0.2930016E-007  0.7930599E+03  0.7818608E-02  0.9726008E-01
          2   -1    0    0  501    0  0.00000000000E+00  0.00000000000E+00  0.24340345059E+04  0.24340345059E+04  0.25500000000E-02 0. -1.
         -2   -1    0    0    0  501 -0.00000000000E+00 -0.00000000000E+00 -0.36777486539E+03  0.36777486540E+03  0.25500000000E-02 0.  1.
    8880023    1    1    2    0    0  0.18009392090E+03  0.40336079808E+03  0.21807916270E+04  0.23205163392E+04  0.65864270000E+03 0. -1.
    8880022    1    1    2    0    0 -0.18009392090E+03 -0.40336079808E+03 -0.11453198653E+03  0.48129303208E+03  0.15294330000E+03 0.  0.
<mgrwt>
<rscale>  0 0.69489186E+03</rscale>
<asrwt>0</asrwt>
<pdfrwt beam="1">  1        2 0.37446685E+00 0.79305987E+03</pdfrwt>
<pdfrwt beam="2">  1       -2 0.56580748E-01 0.79305987E+03</pdfrwt>
<totfact> 0.11574128E+01</totfact>
</mgrwt>
</event>
<event>
 4    2  0.2930016E-007  0.8559283E+03  0.7818608E-02  0.9600848E-01
         -2   -1    0    0    0  501 -0.00000000000E+00  0.00000000000E+00  0.46090556864E+03  0.46090556865E+03  0.25500000000E-02 0.  1.
          2   -1    0    0  501    0  0.00000000000E+00 -0.00000000000E+00 -0.15464209459E+04  0.15464209459E+04  0.25500000000E-02 0. -1.
    8880023    1    1    2    0    0 -0.51384756200E+03  0.18645029585E+03 -0.11527096754E+04  0.14357412134E+04  0.65864270000E+03 0.  1.
    8880022    1    1    2    0    0  0.51384756200E+03 -0.18645029585E+03  0.67194298139E+02  0.57158530117E+03  0.15294330000E+03 0.  1.
<mgrwt>
<rscale>  0 0.77240101E+03</rscale>
<asrwt>0</asrwt>
<pdfrwt beam="1">  1        2 0.23791091E+00 0.85592829E+03</pdfrwt>
<pdfrwt beam="2">  1       -2 0.70908550E-01 0.85592829E+03</pdfrwt>
<totfact> 0.21865160E+01</totfact>
</mgrwt>
</event>
<event>
 4    2  0.2930016E-007  0.9212245E+03  0.7818608E-02  0.9492784E-01
          2   -1    0    0  501    0  0.00000000000E+00  0.00000000000E+00  0.28650279589E+04  0.28650279589E+04  0.25500000000E-02 0. -1.
         -2   -1    0    0    0  501 -0.00000000000E+00 -0.00000000000E+00 -0.64017350391E+03  0.64017350391E+03  0.25500000000E-02 0.  1.
    8880023    1    1    2    0    0 -0.43675833780E+03  0.47337775515E+03  0.25901582955E+04  0.27491043172E+04  0.65864270000E+03 0.  0.
    8880022    1    1    2    0    0  0.43675833780E+03 -0.47337775515E+03 -0.36530384052E+03  0.75609714562E+03  0.15294330000E+03 0.  0.
<mgrwt>
<rscale>  0 0.84817918E+03</rscale>
<asrwt>0</asrwt>
<pdfrwt beam="1">  1        2 0.44077353E+00 0.92122448E+03</pdfrwt>
<pdfrwt beam="2">  1       -2 0.98488232E-01 0.92122448E+03</pdfrwt>
<totfact> 0.18606592E+00</totfact>
</mgrwt>
</event>
<event>
 4    2  0.2930016E-007  0.7434265E+03  0.7818608E-02  0.9850076E-01
          2   -1    0    0  501    0  0.00000000000E+00  0.00000000000E+00  0.92963571018E+03  0.92963571019E+03  0.25500000000E-02 0. -1.
         -2   -1    0    0    0  501 -0.00000000000E+00 -0.00000000000E+00 -0.42968793499E+03  0.42968793500E+03  0.25500000000E-02 0.  1.
    8880023    1    1    2    0    0  0.22405602802E+03 -0.26205266836E+03  0.61516282416E+03  0.96493948576E+03  0.65864270000E+03 0. -1.
    8880022    1    1    2    0    0 -0.22405602802E+03  0.26205266836E+03 -0.11521504897E+03  0.39438415943E+03  0.15294330000E+03 0.  0.
<mgrwt>
<rscale>  0 0.62743036E+03</rscale>
<asrwt>0</asrwt>
<pdfrwt beam="1">  1        2 0.14302088E+00 0.74342647E+03</pdfrwt>
<pdfrwt beam="2">  1       -2 0.66105838E-01 0.74342647E+03</pdfrwt>
<totfact> 0.59844650E+01</totfact>
</mgrwt>
</event>
<event>
 4    2  0.2930016E-007  0.9190750E+03  0.7818608E-02  0.9496079E-01
          2   -1    0    0  501    0  0.00000000000E+00  0.00000000000E+00  0.11769431838E+04  0.11769431838E+04  0.25500000000E-02 0. -1.
         -2   -1    0    0    0  501 -0.00000000000E+00 -0.00000000000E+00 -0.94114245646E+03  0.94114245647E+03  0.25500000000E-02 0.  1.
    8880023    1    1    2    0    0  0.54346230144E+03  0.33990801229E+03  0.82429302937E+03  0.12345679141E+04  0.65864270000E+03 0. -1.
    8880022    1    1    2    0    0 -0.54346230144E+03 -0.33990801229E+03 -0.58849230205E+03  0.88351772619E+03  0.15294330000E+03 0.  0.
<mgrwt>
<rscale>  0 0.84573540E+03</rscale>
<asrwt>0</asrwt>
<pdfrwt beam="1">  1        2 0.18106818E+00 0.91907504E+03</pdfrwt>
<pdfrwt beam="2">  1       -2 0.14479115E+00 0.91907504E+03</pdfrwt>
<totfact> 0.64312280E+00</totfact>
</mgrwt>
</event>
<event>
 4    2  0.2930016E-007  0.6959013E+03  0.7818608E-02  0.1001465E+00
          2   -1    0    0  501    0  0.00000000000E+00  0.00000000000E+00  0.13596393422E+04  0.13596393422E+04  0.25500000000E-02 0. -1.
         -2   -1    0    0    0  501 -0.00000000000E+00 -0.00000000000E+00 -0.38445192679E+03  0.38445192680E+03  0.25500000000E-02 0.  1.
    8880023    1    1    2    0    0  0.21253615231E+03  0.72778851810E+02  0.12027924050E+04  0.13895999975E+04  0.65864270000E+03 0. -1.
    8880022    1    1    2    0    0 -0.21253615231E+03 -0.72778851810E+02 -0.22760498954E+03  0.35449127153E+03  0.15294330000E+03 0.  0.
<mgrwt>
<rscale>  0 0.55012567E+03</rscale>
<asrwt>0</asrwt>
<pdfrwt beam="1">  1        2 0.20917529E+00 0.69590127E+03</pdfrwt>
<pdfrwt beam="2">  1       -2 0.59146449E-01 0.69590127E+03</pdfrwt>
<totfact> 0.41820496E+01</totfact>
</mgrwt>
</event>
<event>
 4    2  0.2930016E-007  0.7292657E+03  0.7818608E-02  0.9892397E-01
         -2   -1    0    0    0  501 -0.00000000000E+00  0.00000000000E+00  0.16483616243E+03  0.16483616245E+03  0.25500000000E-02 0.  1.
          2   -1    0    0  501    0  0.00000000000E+00 -0.00000000000E+00 -0.27872465899E+04  0.27872465899E+04  0.25500000000E-02 0. -1.
    8880023    1    1    2    0    0 -0.22042162766E+03 -0.22233421806E+03 -0.24633941156E+04  0.25690735633E+04  0.65864270000E+03 0. -1.
    8880022    1    1    2    0    0  0.22042162766E+03  0.22233421806E+03 -0.15901631187E+03  0.38300918908E+03  0.15294330000E+03 0.  0.
<mgrwt>
<rscale>  0 0.60631186E+03</rscale>
<asrwt>0</asrwt>
<pdfrwt beam="1">  1        2 0.42880713E+00 0.72926566E+03</pdfrwt>
<pdfrwt beam="2">  1       -2 0.25359412E-01 0.72926566E+03</pdfrwt>
<totfact> 0.34636577E+01</totfact>
</mgrwt>
</event>
<event>
 4    2  0.2930016E-007  0.8861171E+03  0.7818608E-02  0.9548696E-01
         -2   -1    0    0    0  501 -0.00000000000E+00  0.00000000000E+00  0.11024893987E+04  0.11024893987E+04  0.25500000000E-02 0.  1.
          2   -1    0    0  501    0  0.00000000000E+00 -0.00000000000E+00 -0.58359713179E+03  0.58359713179E+03  0.25500000000E-02 0. -1.
    8880023    1    1    2    0    0 -0.55349229868E+03  0.21222549925E+03  0.39633419546E+01  0.88612600773E+03  0.65864270000E+03 0. -1.
    8880022    1    1    2    0    0  0.55349229868E+03 -0.21222549925E+03  0.51492892497E+03  0.79996052279E+03  0.15294330000E+03 0.  1.
<mgrwt>
<rscale>  0 0.80786936E+03</rscale>
<asrwt>0</asrwt>
<pdfrwt beam="1">  1        2 0.89784175E-01 0.88611714E+03</pdfrwt>
<pdfrwt beam="2">  1       -2 0.16961375E+00 0.88611714E+03</pdfrwt>
<totfact> 0.11031741E+01</totfact>
</mgrwt>
</event>
<event>
 4    2  0.2930016E-007  0.6949456E+03  0.7818608E-02  0.1001885E+00
         -2   -1    0    0    0  501 -0.00000000000E+00  0.00000000000E+00  0.21268018760E+03  0.21268018761E+03  0.25500000000E-02 0.  1.
          2   -1    0    0  501    0  0.00000000000E+00 -0.00000000000E+00 -0.23933157047E+04  0.23933157047E+04  0.25500000000E-02 0. -1.
    8880023    1    1    2    0    0 -0.57672414320E+02 -0.21403987380E+03 -0.22268279083E+04  0.23327477176E+04  0.65864270000E+03 0. -1.
    8880022    1    1    2    0    0  0.57672414320E+02  0.21403987380E+03  0.46192391144E+02  0.27324817467E+03  0.15294330000E+03 0.  0.
<mgrwt>
<rscale>  0 0.54831286E+03</rscale>
<asrwt>0</asrwt>
<pdfrwt beam="1">  1        2 0.36820240E+00 0.69494560E+03</pdfrwt>
<pdfrwt beam="2">  1       -2 0.32720030E-01 0.69494560E+03</pdfrwt>
<totfact> 0.36607004E+01</totfact>
</mgrwt>
</event>
<event>
 4    2  0.2930016E-007  0.8170643E+03  0.7818608E-02  0.9675046E-01
          2   -1    0    0  501    0  0.00000000000E+00  0.00000000000E+00  0.92808820749E+03  0.92808820749E+03  0.25500000000E-02 0. -1.
         -2   -1    0    0    0  501 -0.00000000000E+00 -0.00000000000E+00 -0.49673789038E+03  0.49673789038E+03  0.25500000000E-02 0.  1.
    8880023    1    1    2    0    0  0.40963576588E+03 -0.25687049508E+03  0.41740856943E+03  0.91750969042E+03  0.65864270000E+03 0.  0.
    8880022    1    1    2    0    0 -0.40963576588E+03  0.25687049508E+03  0.13941747685E+02  0.50731640745E+03  0.15294330000E+03 0.  0.
<mgrwt>
<rscale>  0 0.72522188E+03</rscale>
<asrwt>0</asrwt>
<pdfrwt beam="1">  1        2 0.14278280E+00 0.81706433E+03</pdfrwt>
<pdfrwt beam="2">  1       -2 0.76421214E-01 0.81706433E+03</pdfrwt>
<totfact> 0.43396226E+01</totfact>
</mgrwt>
</event>
<event>
 4    2  0.2930016E-007  0.7002811E+03  0.7818608E-02  0.9996037E-01
          2   -1    0    0  501    0  0.00000000000E+00  0.00000000000E+00  0.17369885921E+04  0.17369885921E+04  0.25500000000E-02 0. -1.
         -2   -1    0    0    0  501 -0.00000000000E+00 -0.00000000000E+00 -0.51683209682E+03  0.51683209683E+03  0.25500000000E-02 0.  1.
    8880023    1    1    2    0    0  0.53108950741E+02  0.23186819850E+03  0.16195376229E+04  0.17644533829E+04  0.65864270000E+03 0. -1.
    8880022    1    1    2    0    0 -0.53108950741E+02 -0.23186819850E+03 -0.39938112761E+03  0.48936730605E+03  0.15294330000E+03 0.  0.
<mgrwt>
<rscale>  0 0.55824345E+03</rscale>
<asrwt>0</asrwt>
<pdfrwt beam="1">  1        2 0.26722901E+00 0.70028111E+03</pdfrwt>
<pdfrwt beam="2">  1       -2 0.79512632E-01 0.70028111E+03</pdfrwt>
<totfact> 0.13584747E+01</totfact>
</mgrwt>
</event>
<event>
 4    2  0.2930016E-007  0.1031124E+04  0.7818608E-02  0.9341924E-01
         -2   -1    0    0    0  501 -0.00000000000E+00  0.00000000000E+00  0.57161332228E+03  0.57161332229E+03  0.25500000000E-02 0.  1.
          2   -1    0    0  501    0  0.00000000000E+00 -0.00000000000E+00 -0.16819505835E+04  0.16819505835E+04  0.25500000000E-02 0. -1.
    8880023    1    1    2    0    0  0.62765317395E+03  0.48524081823E+03 -0.22578980006E+03  0.10555559666E+04  0.65864270000E+03 0.  0.
    8880022    1    1    2    0    0 -0.62765317395E+03 -0.48524081823E+03 -0.88454746118E+03  0.11980079393E+04  0.15294330000E+03 0.  0.
<mgrwt>
<rscale>  0 0.97013169E+03</rscale>
<asrwt>0</asrwt>
<pdfrwt beam="1">  1        2 0.25876163E+00 0.10311243E+04</pdfrwt>
<pdfrwt beam="2">  1       -2 0.87940512E-01 0.10311243E+04</pdfrwt>
<totfact> 0.11128919E+01</totfact>
</mgrwt>
</event>
<event>
 4    2  0.2930016E-007  0.7332116E+03  0.7818608E-02  0.9880181E-01
          2   -1    0    0  501    0  0.00000000000E+00  0.00000000000E+00  0.28768317841E+04  0.28768317841E+04  0.25500000000E-02 0. -1.
         -2   -1    0    0    0  501 -0.00000000000E+00 -0.00000000000E+00 -0.20422566527E+03  0.20422566529E+03  0.25500000000E-02 0.  1.
    8880023    1    1    2    0    0  0.11915205129E+03 -0.29931899073E+03  0.26198931524E+04  0.27205586569E+04  0.65864270000E+03 0. -1.
    8880022    1    1    2    0    0 -0.11915205129E+03  0.29931899073E+03  0.52712966458E+02  0.36049879249E+03  0.15294330000E+03 0.  0.
<mgrwt>
<rscale>  0 0.61231467E+03</rscale>
<asrwt>0</asrwt>
<pdfrwt beam="1">  1        2 0.44258951E+00 0.73321162E+03</pdfrwt>
<pdfrwt beam="2">  1       -2 0.31419333E-01 0.73321162E+03</pdfrwt>
<totfact> 0.20656586E+01</totfact>
</mgrwt>
</event>
<event>
 4    2  0.2930016E-007  0.7250933E+03  0.7818608E-02  0.9905714E-01
         -2   -1    0    0    0  501 -0.00000000000E+00  0.00000000000E+00  0.18839691022E+04  0.18839691022E+04  0.25500000000E-02 0.  1.
          2   -1    0    0  501    0  0.00000000000E+00 -0.00000000000E+00 -0.50242108572E+03  0.50242108573E+03  0.25500000000E-02 0. -1.
    8880023    1    1    2    0    0  0.27754430142E+03  0.12214409330E+03 -0.21327368545E+03  0.75580810392E+03  0.65864270000E+03 0. -1.
    8880022    1    1    2    0    0 -0.27754430142E+03 -0.12214409330E+03  0.15948217019E+04  0.16305820840E+04  0.15294330000E+03 0.  0.
<mgrwt>
<rscale>  0 0.59985140E+03</rscale>
<asrwt>0</asrwt>
<pdfrwt beam="1">  1        2 0.77295553E-01 0.72509325E+03</pdfrwt>
<pdfrwt beam="2">  1       -2 0.28984140E+00 0.72509325E+03</pdfrwt>
<totfact> 0.23418917E+00</totfact>
</mgrwt>
</event>
<event>
 4    2  0.2930016E-007  0.9323234E+03  0.7818608E-02  0.9476016E-01
         -2   -1    0    0    0  501 -0.00000000000E+00  0.00000000000E+00  0.18126324751E+04  0.18126324751E+04  0.25500000000E-02 0.  1.
          2   -1    0    0  501    0  0.00000000000E+00 -0.00000000000E+00 -0.45230019664E+03  0.45230019665E+03  0.25500000000E-02 0. -1.
    8880023    1    1    2    0    0 -0.62952722391E+02 -0.65685129862E+03  0.25161736902E+03  0.96568016466E+03  0.65864270000E+03 0. -1.
    8880022    1    1    2    0    0  0.62952722391E+02  0.65685129862E+03  0.11087149094E+04  0.12992525071E+04  0.15294330000E+03 0.  0.
<mgrwt>
<rscale>  0 0.86075359E+03</rscale>
<asrwt>0</asrwt>
<pdfrwt beam="1">  1        2 0.69584647E-01 0.93232338E+03</pdfrwt>
<pdfrwt beam="2">  1       -2 0.27886653E+00 0.93232338E+03</pdfrwt>
<totfact> 0.29940370E+00</totfact>
</mgrwt>
</event>
<event>
 4    2  0.2930016E-007  0.8781299E+03  0.7818608E-02  0.9562094E-01
          2   -1    0    0  501    0  0.00000000000E+00  0.00000000000E+00  0.34810634143E+04  0.34810634143E+04  0.25500000000E-02 0. -1.
         -2   -1    0    0    0  501 -0.00000000000E+00 -0.00000000000E+00 -0.16465294116E+03  0.16465294118E+03  0.25500000000E-02 0.  1.
    8880023    1    1    2    0    0  0.31578563227E+03 -0.48742313132E+03  0.15695638328E+04  0.17985112471E+04  0.65864270000E+03 0. -1.
    8880022    1    1    2    0    0 -0.31578563227E+03  0.48742313132E+03  0.17468466403E+04  0.18472051083E+04  0.15294330000E+03 0.  0.
<mgrwt>
<rscale>  0 0.79856700E+03</rscale>
<asrwt>0</asrwt>
<pdfrwt beam="1">  1        2 0.53554821E+00 0.87812988E+03</pdfrwt>
<pdfrwt beam="2">  1       -2 0.25331222E-01 0.87812988E+03</pdfrwt>
<totfact> 0.12369655E+01</totfact>
</mgrwt>
</event>
<event>
 4    2  0.2930016E-007  0.6647171E+03  0.7818608E-02  0.1019772E+00
         -2   -1    0    0    0  501 -0.00000000000E+00  0.00000000000E+00  0.31752545507E+03  0.31752545508E+03  0.25500000000E-02 0.  1.
          2   -1    0    0  501    0  0.00000000000E+00 -0.00000000000E+00 -0.99033268229E+03  0.99033268229E+03  0.25500000000E-02 0. -1.
    8880023    1    1    2    0    0  0.89478980368E+02 -0.56723411560E+01 -0.83520529416E+03  0.10674346598E+04  0.65864270000E+03 0. -1.
    8880022    1    1    2    0    0 -0.89478980368E+02  0.56723411560E+01  0.16239806694E+03  0.24042347752E+03  0.15294330000E+03 0.  0.
<mgrwt>
<rscale>  0 0.47769011E+03</rscale>
<asrwt>0</asrwt>
<pdfrwt beam="1">  1        2 0.15235887E+00 0.66471714E+03</pdfrwt>
<pdfrwt beam="2">  1       -2 0.48850070E-01 0.66471714E+03</pdfrwt>
<totfact> 0.10342529E+02</totfact>
</mgrwt>
</event>
<event>
 4    2  0.2930016E-007  0.7772749E+03  0.7818608E-02  0.9762278E-01
          2   -1    0    0  501    0  0.00000000000E+00  0.00000000000E+00  0.21635735587E+04  0.21635735587E+04  0.25500000000E-02 0. -1.
         -2   -1    0    0    0  501 -0.00000000000E+00 -0.00000000000E+00 -0.17652470233E+03  0.17652470235E+03  0.25500000000E-02 0.  1.
    8880023    1    1    2    0    0 -0.32874287353E+03  0.24954808947E+03  0.14548284515E+04  0.16494490460E+04  0.65864270000E+03 0. -1.
    8880022    1    1    2    0    0  0.32874287353E+03 -0.24954808947E+03  0.53222040487E+03  0.69064921504E+03  0.15294330000E+03 0. -1.
<mgrwt>
<rscale>  0 0.67426837E+03</rscale>
<asrwt>0</asrwt>
<pdfrwt beam="1">  1        2 0.33285746E+00 0.77727494E+03</pdfrwt>
<pdfrwt beam="2">  1       -2 0.27157647E-01 0.77727494E+03</pdfrwt>
<totfact> 0.68598099E+01</totfact>
</mgrwt>
</event>
<event>
 4    2  0.2930016E-007  0.1055026E+04  0.7818608E-02  0.9312864E-01
          2   -1    0    0  501    0  0.00000000000E+00  0.00000000000E+00  0.32613786512E+04  0.32613786512E+04  0.25500000000E-02 0. -1.
         -2   -1    0    0    0  501 -0.00000000000E+00 -0.00000000000E+00 -0.48780818903E+03  0.48780818904E+03  0.25500000000E-02 0.  1.
    8880023    1    1    2    0    0 -0.62002932317E+02  0.82184259192E+03  0.27104760897E+04  0.29085667344E+04  0.65864270000E+03 0.  0.
    8880022    1    1    2    0    0  0.62002932317E+02 -0.82184259192E+03  0.63094372508E+02  0.84062010585E+03  0.15294330000E+03 0.  0.
<mgrwt>
<rscale>  0 0.99607174E+03</rscale>
<asrwt>0</asrwt>
<pdfrwt beam="1">  1        2 0.50175054E+00 0.10550260E+04</pdfrwt>
<pdfrwt beam="2">  1       -2 0.75047417E-01 0.10550260E+04</pdfrwt>
<totfact> 0.19214052E+00</totfact>
</mgrwt>
</event>
<event>
 4    2  0.3602201E-007  0.1364157E+04  0.7818608E-02  0.9012046E-01
          2   -1    0    0  501    0  0.00000000000E+00  0.00000000000E+00  0.18671036089E+04  0.18671036089E+04  0.25500000000E-02 0. -1.
         -2   -1    0    0    0  501 -0.00000000000E+00 -0.00000000000E+00 -0.26356304721E+04  0.26356304721E+04  0.25500000000E-02 0.  1.
    8880023    1    1    2    0    0 -0.99577150061E+03  0.65996403918E+03  0.14422440067E+04  0.19851930373E+04  0.65864270000E+03 0.  0.
    8880022    1    1    2    0    0  0.99577150061E+03 -0.65996403918E+03 -0.22107708699E+04  0.25175410437E+04  0.15294330000E+03 0.  0.
<mgrwt>
<rscale>  0 0.13223247E+04</rscale>
<asrwt>0</asrwt>
<pdfrwt beam="1">  1        2 0.28724671E+00 0.13641567E+04</pdfrwt>
<pdfrwt beam="2">  1       -2 0.40548161E+00 0.13641567E+04</pdfrwt>
<totfact> 0.51876570E-02</totfact>
</mgrwt>
</event>
<event>
 4    2  0.2930016E-007  0.9424555E+03  0.7818608E-02  0.9461053E-01
         -2   -1    0    0    0  501 -0.00000000000E+00  0.00000000000E+00  0.66249000149E+03  0.66249000149E+03  0.25500000000E-02 0.  1.
          2   -1    0    0  501    0  0.00000000000E+00 -0.00000000000E+00 -0.39408513045E+04  0.39408513045E+04  0.25500000000E-02 0. -1.
    8880023    1    1    2    0    0 -0.26603279544E+03  0.61938573890E+03 -0.36834813003E+04  0.38021384559E+04  0.65864270000E+03 0. -1.
    8880022    1    1    2    0    0  0.26603279544E+03 -0.61938573890E+03  0.40511999729E+03  0.80120285011E+03  0.15294330000E+03 0.  0.
<mgrwt>
<rscale>  0 0.87217139E+03</rscale>
<asrwt>0</asrwt>
<pdfrwt beam="1">  1        2 0.60628480E+00 0.94245549E+03</pdfrwt>
<pdfrwt beam="2">  1       -2 0.10192154E+00 0.94245549E+03</pdfrwt>
<totfact> 0.31969384E-01</totfact>
</mgrwt>
</event>
<event>
 4    2  0.2930016E-007  0.6915145E+03  0.7818608E-02  0.1003441E+00
          2   -1    0    0  501    0  0.00000000000E+00  0.00000000000E+00  0.15748202827E+04  0.15748202827E+04  0.25500000000E-02 0. -1.
         -2   -1    0    0    0  501 -0.00000000000E+00 -0.00000000000E+00 -0.17228265166E+03  0.17228265168E+03  0.25500000000E-02 0.  1.
    8880023    1    1    2    0    0 -0.15571533782E+03 -0.14189730361E+03  0.12896466460E+04  0.14633457517E+04  0.65864270000E+03 0.  0.
    8880022    1    1    2    0    0  0.15571533782E+03  0.14189730361E+03  0.11289098505E+03  0.28375718268E+03  0.15294330000E+03 0.  0.
<mgrwt>
<rscale>  0 0.54166862E+03</rscale>
<asrwt>0</asrwt>
<pdfrwt beam="1">  1        2 0.24228005E+00 0.69151451E+03</pdfrwt>
<pdfrwt beam="2">  1       -2 0.26505022E-01 0.69151451E+03</pdfrwt>
<totfact> 0.15176741E+02</totfact>
</mgrwt>
</event>
<event>
 4    2  0.2930016E-007  0.7737534E+03  0.7818608E-02  0.9770720E-01
         -2   -1    0    0    0  501 -0.00000000000E+00  0.00000000000E+00  0.19644333694E+03  0.19644333695E+03  0.25500000000E-02 0.  1.
          2   -1    0    0  501    0  0.00000000000E+00 -0.00000000000E+00 -0.24049752209E+04  0.24049752209E+04  0.25500000000E-02 0. -1.
    8880023    1    1    2    0    0  0.34795370467E+03  0.20931410852E+03 -0.19462087056E+04  0.20943788360E+04  0.65864270000E+03 0. -1.
    8880022    1    1    2    0    0 -0.34795370467E+03 -0.20931410852E+03 -0.26232317834E+03  0.50703972184E+03  0.15294330000E+03 0.  0.
<mgrwt>
<rscale>  0 0.66957814E+03</rscale>
<asrwt>0</asrwt>
<pdfrwt beam="1">  1        2 0.36999617E+00 0.77375344E+03</pdfrwt>
<pdfrwt beam="2">  1       -2 0.30222054E-01 0.77375344E+03</pdfrwt>
<totfact> 0.41377772E+01</totfact>
</mgrwt>
</event>
<event>
 4    2  0.3548816E-007  0.9891007E+03  0.7818608E-02  0.9395958E-01
         -2   -1    0    0    0  501 -0.00000000000E+00  0.00000000000E+00  0.18053144415E+04  0.18053144415E+04  0.25500000000E-02 0.  1.
          2   -1    0    0  501    0  0.00000000000E+00 -0.00000000000E+00 -0.16946088934E+04  0.16946088934E+04  0.25500000000E-02 0. -1.
    8880023    1    1    2    0    0  0.11852649949E+03 -0.72832788803E+03 -0.14567013525E+04  0.17607666172E+04  0.65864270000E+03 0. -1.
    8880022    1    1    2    0    0 -0.11852649949E+03  0.72832788803E+03  0.15674069007E+04  0.17391567177E+04  0.15294330000E+03 0.  0.
<mgrwt>
<rscale>  0 0.92409057E+03</rscale>
<asrwt>0</asrwt>
<pdfrwt beam="1">  1        2 0.26070906E+00 0.98910073E+03</pdfrwt>
<pdfrwt beam="2">  1       -2 0.27774068E+00 0.98910073E+03</pdfrwt>
<totfact> 0.43158951E-01</totfact>
</mgrwt>
</event>
<event>
 4    2  0.2930016E-007  0.8847004E+03  0.7818608E-02  0.9551053E-01
          2   -1    0    0  501    0  0.00000000000E+00  0.00000000000E+00  0.15510508921E+04  0.15510508921E+04  0.25500000000E-02 0. -1.
         -2   -1    0    0    0  501 -0.00000000000E+00 -0.00000000000E+00 -0.42219697564E+03  0.42219697565E+03  0.25500000000E-02 0.  1.
    8880023    1    1    2    0    0 -0.78361980801E+02 -0.58544337671E+03  0.10255537817E+04  0.13544206558E+04  0.65864270000E+03 0. -1.
    8880022    1    1    2    0    0  0.78361980801E+02  0.58544337671E+03  0.10330013469E+03  0.61882721192E+03  0.15294330000E+03 0.  1.
<mgrwt>
<rscale>  0 0.80622325E+03</rscale>
<asrwt>0</asrwt>
<pdfrwt beam="1">  1        2 0.23862321E+00 0.88470038E+03</pdfrwt>
<pdfrwt beam="2">  1       -2 0.64953382E-01 0.88470038E+03</pdfrwt>
<totfact> 0.26222311E+01</totfact>
</mgrwt>
</event>
<event>
 4    2  0.2930016E-007  0.9363278E+03  0.7818608E-02  0.9470064E-01
          2   -1    0    0  501    0  0.00000000000E+00  0.00000000000E+00  0.14951234582E+04  0.14951234582E+04  0.25500000000E-02 0. -1.
         -2   -1    0    0    0  501 -0.00000000000E+00 -0.00000000000E+00 -0.65341382781E+03  0.65341382781E+03  0.25500000000E-02 0.  1.
    8880023    1    1    2    0    0  0.20669802490E+03  0.63259422272E+03  0.10762345766E+04  0.14265309651E+04  0.65864270000E+03 0.  0.
    8880022    1    1    2    0    0 -0.20669802490E+03 -0.63259422272E+03 -0.23452494621E+03  0.72200632097E+03  0.15294330000E+03 0.  0.
<mgrwt>
<rscale>  0 0.86527287E+03</rscale>
<asrwt>0</asrwt>
<pdfrwt beam="1">  1        2 0.23001899E+00 0.93632779E+03</pdfrwt>
<pdfrwt beam="2">  1       -2 0.10052521E+00 0.93632779E+03</pdfrwt>
<totfact> 0.10441939E+01</totfact>
</mgrwt>
</event>
<event>
 4    2  0.2930016E-007  0.7657127E+03  0.7818608E-02  0.9790536E-01
          2   -1    0    0  501    0  0.00000000000E+00  0.00000000000E+00  0.62949993633E+03  0.62949993633E+03  0.25500000000E-02 0. -1.
         -2   -1    0    0    0  501 -0.00000000000E+00 -0.00000000000E+00 -0.12693354828E+04  0.12693354828E+04  0.25500000000E-02 0.  1.
    8880023    1    1    2    0    0 -0.28503663887E+03  0.26694534238E+03  0.33637956903E+03  0.83634151041E+03  0.65864270000E+03 0. -1.
    8880022    1    1    2    0    0  0.28503663887E+03 -0.26694534238E+03 -0.97621511546E+03  0.10624939087E+04  0.15294330000E+03 0.  0.
<mgrwt>
<rscale>  0 0.65872901E+03</rscale>
<asrwt>0</asrwt>
<pdfrwt beam="1">  1        2 0.96846144E-01 0.76571268E+03</pdfrwt>
<pdfrwt beam="2">  1       -2 0.19528238E+00 0.76571268E+03</pdfrwt>
<totfact> 0.68029729E+00</totfact>
</mgrwt>
</event>
<event>
 4    2  0.2930016E-007  0.7143292E+03  0.7818608E-02  0.9942263E-01
         -2   -1    0    0    0  501 -0.00000000000E+00  0.00000000000E+00  0.69280146225E+03  0.69280146226E+03  0.25500000000E-02 0.  1.
          2   -1    0    0  501    0  0.00000000000E+00 -0.00000000000E+00 -0.69543054895E+03  0.69543054895E+03  0.25500000000E-02 0. -1.
    8880023    1    1    2    0    0 -0.24548834551E+03  0.12724556441E+03 -0.44722901547E+03  0.84278108663E+03  0.65864270000E+03 0. -1.
    8880022    1    1    2    0    0  0.24548834551E+03 -0.12724556441E+03  0.44459992877E+03  0.54545092458E+03  0.15294330000E+03 0.  0.
<mgrwt>
<rscale>  0 0.58256046E+03</rscale>
<asrwt>0</asrwt>
<pdfrwt beam="1">  1        2 0.10698932E+00 0.71432917E+03</pdfrwt>
<pdfrwt beam="2">  1       -2 0.10658484E+00 0.71432917E+03</pdfrwt>
<totfact> 0.29779349E+01</totfact>
</mgrwt>
</event>
<event>
 4    2  0.2930016E-007  0.6645350E+03  0.7818608E-02  0.1019927E+00
          2   -1    0    0  501    0  0.00000000000E+00  0.00000000000E+00  0.85977563270E+03  0.85977563270E+03  0.25500000000E-02 0. -1.
         -2   -1    0    0    0  501 -0.00000000000E+00 -0.00000000000E+00 -0.30882130235E+03  0.30882130236E+03  0.25500000000E-02 0.  1.
    8880023    1    1    2    0    0  0.85617849960E+02  0.21589362497E+02  0.67929329916E+03  0.95028738251E+03  0.65864270000E+03 0. -1.
    8880022    1    1    2    0    0 -0.85617849960E+02 -0.21589362497E+02 -0.12833896881E+03  0.21830955255E+03  0.15294330000E+03 0.  0.
<mgrwt>
<rscale>  0 0.47713043E+03</rscale>
<asrwt>0</asrwt>
<pdfrwt beam="1">  1        2 0.13227317E+00 0.66453497E+03</pdfrwt>
<pdfrwt beam="2">  1       -2 0.47510970E-01 0.66453497E+03</pdfrwt>
<totfact> 0.13344925E+02</totfact>
</mgrwt>
</event>
<event>
 4    2  0.2930016E-007  0.7133288E+03  0.7818608E-02  0.9945841E-01
         -2   -1    0    0    0  501 -0.00000000000E+00  0.00000000000E+00  0.62103315321E+03  0.62103315321E+03  0.25500000000E-02 0.  1.
          2   -1    0    0  501    0  0.00000000000E+00 -0.00000000000E+00 -0.75023625577E+03  0.75023625577E+03  0.25500000000E-02 0. -1.
    8880023    1    1    2    0    0 -0.23731016065E+03  0.13679082262E+03 -0.51073583289E+03  0.87731929123E+03  0.65864270000E+03 0. -1.
    8880022    1    1    2    0    0  0.23731016065E+03 -0.13679082262E+03  0.38153273033E+03  0.49395011776E+03  0.15294330000E+03 0.  0.
<mgrwt>
<rscale>  0 0.58090148E+03</rscale>
<asrwt>0</asrwt>
<pdfrwt beam="1">  1        2 0.11542096E+00 0.71332885E+03</pdfrwt>
<pdfrwt beam="2">  1       -2 0.95543562E-01 0.71332885E+03</pdfrwt>
<totfact> 0.35052724E+01</totfact>
</mgrwt>
</event>
<event>
 4    2  0.2930016E-007  0.1061169E+04  0.7818608E-02  0.9305574E-01
         -2   -1    0    0    0  501 -0.00000000000E+00  0.00000000000E+00  0.83626069474E+03  0.83626069475E+03  0.25500000000E-02 0.  1.
          2   -1    0    0  501    0  0.00000000000E+00 -0.00000000000E+00 -0.31105002623E+04  0.31105002623E+04  0.25500000000E-02 0. -1.
    8880023    1    1    2    0    0 -0.70795124767E+03 -0.43712016515E+03 -0.27699469417E+04  0.29662577895E+04  0.65864270000E+03 0.  0.
    8880022    1    1    2    0    0  0.70795124767E+03  0.43712016515E+03  0.49570737410E+03  0.98050316757E+03  0.15294330000E+03 0.  0.
<mgrwt>
<rscale>  0 0.10027132E+04</rscale>
<asrwt>0</asrwt>
<pdfrwt beam="1">  1        2 0.47853850E+00 0.10611688E+04</pdfrwt>
<pdfrwt beam="2">  1       -2 0.12865549E+00 0.10611688E+04</pdfrwt>
<totfact> 0.66720704E-01</totfact>
</mgrwt>
</event>
<event>
 4    2  0.2930016E-007  0.1023282E+04  0.7818608E-02  0.9351712E-01
         -2   -1    0    0    0  501 -0.00000000000E+00  0.00000000000E+00  0.32894086148E+03  0.32894086149E+03  0.25500000000E-02 0.  1.
          2   -1    0    0  501    0  0.00000000000E+00 -0.00000000000E+00 -0.31334103480E+04  0.31334103480E+04  0.25500000000E-02 0. -1.
    8880023    1    1    2    0    0  0.71138393106E+03 -0.32745812087E+03 -0.23025466188E+04  0.25196878887E+04  0.65864270000E+03 0.  0.
    8880022    1    1    2    0    0 -0.71138393106E+03  0.32745812087E+03 -0.50192286772E+03  0.94266332083E+03  0.15294330000E+03 0.  0.
<mgrwt>
<rscale>  0 0.96158418E+03</rscale>
<asrwt>0</asrwt>
<pdfrwt beam="1">  1        2 0.48206311E+00 0.10232820E+04</pdfrwt>
<pdfrwt beam="2">  1       -2 0.50606288E-01 0.10232820E+04</pdfrwt>
<totfact> 0.54107229E+00</totfact>
</mgrwt>
</event>
<event>
 4    2  0.2930016E-007  0.7275264E+03  0.7818608E-02  0.9897896E-01
         -2   -1    0    0    0  501 -0.00000000000E+00  0.00000000000E+00  0.12378917227E+03  0.12378917229E+03  0.25500000000E-02 0.  1.
          2   -1    0    0  501    0  0.00000000000E+00 -0.00000000000E+00 -0.31449121917E+04  0.31449121917E+04  0.25500000000E-02 0. -1.
    8880023    1    1    2    0    0  0.20283767839E+03 -0.23311233180E+03 -0.27043155465E+04  0.28004673296E+04  0.65864270000E+03 0. -1.
    8880022    1    1    2    0    0 -0.20283767839E+03  0.23311233180E+03 -0.31680747291E+03  0.46823403434E+03  0.15294330000E+03 0.  0.
<mgrwt>
<rscale>  0 0.60363361E+03</rscale>
<asrwt>0</asrwt>
<pdfrwt beam="1">  1        2 0.48383258E+00 0.72752642E+03</pdfrwt>
<pdfrwt beam="2">  1       -2 0.19044490E-01 0.72752642E+03</pdfrwt>
<totfact> 0.34876618E+01</totfact>
</mgrwt>
</event>
<event>
 4    2  0.3114423E-007  0.8589971E+03  0.7818608E-02  0.9595350E-01
          2   -1    0    0  501    0  0.00000000000E+00  0.00000000000E+00  0.15438276939E+04  0.15438276939E+04  0.25500000000E-02 0. -1.
         -2   -1    0    0    0  501 -0.00000000000E+00 -0.00000000000E+00 -0.10445111230E+04  0.10445111230E+04  0.25500000000E-02 0.  1.
    8880023    1    1    2    0    0  0.28209610866E+03 -0.47380129502E+03  0.13278053444E+04  0.15814370429E+04  0.65864270000E+03 0.  0.
    8880022    1    1    2    0    0 -0.28209610866E+03  0.47380129502E+03 -0.82848877352E+03  0.10069017740E+04  0.15294330000E+03 0.  0.
<mgrwt>
<rscale>  0 0.77604725E+03</rscale>
<asrwt>0</asrwt>
<pdfrwt beam="1">  1        2 0.23751195E+00 0.85899714E+03</pdfrwt>
<pdfrwt beam="2">  1       -2 0.16069402E+00 0.85899714E+03</pdfrwt>
<totfact> 0.30190734E+00</totfact>
</mgrwt>
</event>
<event>
 4    2  0.2930016E-007  0.6824790E+03  0.7818608E-02  0.1007955E+00
         -2   -1    0    0    0  501 -0.00000000000E+00  0.00000000000E+00  0.11046017606E+03  0.11046017609E+03  0.25500000000E-02 0.  1.
          2   -1    0    0  501    0  0.00000000000E+00 -0.00000000000E+00 -0.30992677367E+04  0.30992677367E+04  0.25500000000E-02 0. -1.
    8880023    1    1    2    0    0 -0.15411828059E+03  0.90636349560E+02 -0.28623990400E+04  0.29426358699E+04  0.65864270000E+03 0.  0.
    8880022    1    1    2    0    0  0.15411828059E+03 -0.90636349560E+02 -0.12640852064E+03  0.26709204290E+03  0.15294330000E+03 0.  0.
<mgrwt>
<rscale>  0 0.52295648E+03</rscale>
<asrwt>0</asrwt>
<pdfrwt beam="1">  1        2 0.47681035E+00 0.68247901E+03</pdfrwt>
<pdfrwt beam="2">  1       -2 0.16993876E-01 0.68247901E+03</pdfrwt>
<totfact> 0.45670202E+01</totfact>
</mgrwt>
</event>
<event>
 4    2  0.2930016E-007  0.6954409E+03  0.7818608E-02  0.1001667E+00
         -2   -1    0    0    0  501 -0.00000000000E+00  0.00000000000E+00  0.83412628996E+03  0.83412628996E+03  0.25500000000E-02 0.  1.
          2   -1    0    0  501    0  0.00000000000E+00 -0.00000000000E+00 -0.57527499277E+03  0.57527499278E+03  0.25500000000E-02 0. -1.
    8880023    1    1    2    0    0  0.65463951258E+02 -0.21340645024E+03 -0.32369086965E+03  0.76708136940E+03  0.65864270000E+03 0. -1.
    8880022    1    1    2    0    0 -0.65463951258E+02  0.21340645024E+03  0.58254216683E+03  0.64231991334E+03  0.15294330000E+03 0.  1.
<mgrwt>
<rscale>  0 0.54925436E+03</rscale>
<asrwt>0</asrwt>
<pdfrwt beam="1">  1        2 0.88503845E-01 0.69544090E+03</pdfrwt>
<pdfrwt beam="2">  1       -2 0.12832712E+00 0.69544090E+03</pdfrwt>
<totfact> 0.23836473E+01</totfact>
</mgrwt>
</event>
<event>
 4    2  0.2930016E-007  0.6600309E+03  0.7818608E-02  0.1024125E+00
          2   -1    0    0  501    0  0.00000000000E+00  0.00000000000E+00  0.53636090425E+03  0.53636090425E+03  0.25500000000E-02 0. -1.
         -2   -1    0    0    0  501 -0.00000000000E+00 -0.00000000000E+00 -0.31334521814E+03  0.31334521815E+03  0.25500000000E-02 0.  1.
    8880023    1    1    2    0    0  0.42661961834E+02  0.32551305974E+01  0.19676455100E+03  0.68873589543E+03  0.65864270000E+03 0.  1.
    8880022    1    1    2    0    0 -0.42661961834E+02 -0.32551305974E+01  0.26251135110E+02  0.16097022697E+03  0.15294330000E+03 0.  0.
<mgrwt>
<rscale>  0 0.46227062E+03</rscale>
<asrwt>0</asrwt>
<pdfrwt beam="1">  1        2 0.82517061E-01 0.66003094E+03</pdfrwt>
<pdfrwt beam="2">  1       -2 0.48206957E-01 0.66003094E+03</pdfrwt>
<totfact> 0.23408689E+02</totfact>
</mgrwt>
</event>
<event>
 4    2  0.2930016E-007  0.7408365E+03  0.7818608E-02  0.9857517E-01
         -2   -1    0    0    0  501 -0.00000000000E+00  0.00000000000E+00  0.36627641665E+03  0.36627641666E+03  0.25500000000E-02 0.  1.
          2   -1    0    0  501    0  0.00000000000E+00 -0.00000000000E+00 -0.13519496270E+04  0.13519496270E+04  0.25500000000E-02 0. -1.
    8880023    1    1    2    0    0  0.32472867615E+03  0.97876427503E+02 -0.11024820716E+04  0.13282715960E+04  0.65864270000E+03 0. -1.
    8880022    1    1    2    0    0 -0.32472867615E+03 -0.97876427503E+02  0.11680886128E+03  0.38995444768E+03  0.15294330000E+03 0.  0.
<mgrwt>
<rscale>  0 0.62365110E+03</rscale>
<asrwt>0</asrwt>
<pdfrwt beam="1">  1        2 0.20799225E+00 0.74083650E+03</pdfrwt>
<pdfrwt beam="2">  1       -2 0.56350219E-01 0.74083650E+03</pdfrwt>
<totfact> 0.46528952E+01</totfact>
</mgrwt>
</event>
<event>
 4    2  0.2930016E-007  0.7977039E+03  0.7818608E-02  0.9715783E-01
          2   -1    0    0  501    0  0.00000000000E+00  0.00000000000E+00  0.13967320215E+04  0.13967320215E+04  0.25500000000E-02 0. -1.
         -2   -1    0    0    0  501 -0.00000000000E+00 -0.00000000000E+00 -0.31572344108E+03  0.31572344109E+03  0.25500000000E-02 0.  1.
    8880023    1    1    2    0    0 -0.44957515495E+03 -0.20088709080E+02  0.90307597631E+03  0.12049389202E+04  0.65864270000E+03 0. -1.
    8880022    1    1    2    0    0  0.44957515495E+03  0.20088709080E+02  0.17793260414E+03  0.50751654240E+03  0.15294330000E+03 0.  0.
<mgrwt>
<rscale>  0 0.70084820E+03</rscale>
<asrwt>0</asrwt>
<pdfrwt beam="1">  1        2 0.21488184E+00 0.79770394E+03</pdfrwt>
<pdfrwt beam="2">  1       -2 0.48572839E-01 0.79770394E+03</pdfrwt>
<totfact> 0.59216083E+01</totfact>
</mgrwt>
</event>
<event>
 4    2  0.2930016E-007  0.7865812E+03  0.7818608E-02  0.9740599E-01
         -2   -1    0    0    0  501 -0.00000000000E+00  0.00000000000E+00  0.39146181867E+03  0.39146181868E+03  0.25500000000E-02 0.  1.
          2   -1    0    0  501    0  0.00000000000E+00 -0.00000000000E+00 -0.19531561282E+04  0.19531561282E+04  0.25500000000E-02 0. -1.
    8880023    1    1    2    0    0 -0.14421802297E+03 -0.40509372055E+03 -0.16954544857E+04  0.18690307327E+04  0.65864270000E+03 0. -1.
    8880022    1    1    2    0    0  0.14421802297E+03  0.40509372055E+03  0.13376017612E+03  0.47558721419E+03  0.15294330000E+03 0.  0.
<mgrwt>
<rscale>  0 0.68650165E+03</rscale>
<asrwt>0</asrwt>
<pdfrwt beam="1">  1        2 0.30048555E+00 0.78658119E+03</pdfrwt>
<pdfrwt beam="2">  1       -2 0.60224896E-01 0.78658119E+03</pdfrwt>
<totfact> 0.18741059E+01</totfact>
</mgrwt>
</event>
<event>
 4    2  0.2930016E-007  0.8296369E+03  0.7818608E-02  0.9650039E-01
         -2   -1    0    0    0  501 -0.00000000000E+00  0.00000000000E+00  0.10103928869E+04  0.10103928869E+04  0.25500000000E-02 0.  1.
          2   -1    0    0  501    0  0.00000000000E+00 -0.00000000000E+00 -0.17781246942E+04  0.17781246942E+04  0.25500000000E-02 0. -1.
    8880023    1    1    2    0    0 -0.13998448818E+03 -0.48465613984E+03 -0.16006057919E+04  0.18028411849E+04  0.65864270000E+03 0.  0.
    8880022    1    1    2    0    0  0.13998448818E+03  0.48465613984E+03  0.83287398454E+03  0.98567639617E+03  0.15294330000E+03 0.  0.
<mgrwt>
<rscale>  0 0.74070965E+03</rscale>
<asrwt>0</asrwt>
<pdfrwt beam="1">  1        2 0.27355765E+00 0.82963693E+03</pdfrwt>
<pdfrwt beam="2">  1       -2 0.15544506E+00 0.82963693E+03</pdfrwt>
<totfact> 0.24642193E+00</totfact>
</mgrwt>
</event>
<event>
 4    2  0.2930016E-007  0.7172075E+03  0.7818608E-02  0.9932151E-01
          2   -1    0    0  501    0  0.00000000000E+00  0.00000000000E+00  0.14545425350E+04  0.14545425350E+04  0.25500000000E-02 0. -1.
         -2   -1    0    0    0  501 -0.00000000000E+00 -0.00000000000E+00 -0.45146353808E+03  0.45146353809E+03  0.25500000000E-02 0.  1.
    8880023    1    1    2    0    0  0.11099168303E+03  0.26126087935E+03  0.12889734274E+04  0.14750725757E+04  0.65864270000E+03 0. -1.
    8880022    1    1    2    0    0 -0.11099168303E+03 -0.26126087935E+03 -0.28589443047E+03  0.43093349739E+03  0.15294330000E+03 0.  0.
<mgrwt>
<rscale>  0 0.58728121E+03</rscale>
<asrwt>0</asrwt>
<pdfrwt beam="1">  1        2 0.22377577E+00 0.71720751E+03</pdfrwt>
<pdfrwt beam="2">  1       -2 0.69455929E-01 0.71720751E+03</pdfrwt>
<totfact> 0.26150815E+01</totfact>
</mgrwt>
</event>
<event>
 4    2  0.2930016E-007  0.6709343E+03  0.7818608E-02  0.1015002E+00
         -2   -1    0    0    0  501 -0.00000000000E+00  0.00000000000E+00  0.68200194996E+03  0.68200194996E+03  0.25500000000E-02 0.  1.
          2   -1    0    0  501    0  0.00000000000E+00 -0.00000000000E+00 -0.80085021967E+03  0.80085021967E+03  0.25500000000E-02 0. -1.
    8880023    1    1    2    0    0 -0.11732064996E+03 -0.50778559822E+02 -0.63855330315E+03  0.92623059994E+03  0.65864270000E+03 0. -1.
    8880022    1    1    2    0    0  0.11732064996E+03  0.50778559822E+02  0.51970503344E+03  0.55662156969E+03  0.15294330000E+03 0.  0.
<mgrwt>
<rscale>  0 0.49534252E+03</rscale>
<asrwt>0</asrwt>
<pdfrwt beam="1">  1        2 0.12320773E+00 0.67093428E+03</pdfrwt>
<pdfrwt beam="2">  1       -2 0.10492338E+00 0.67093428E+03</pdfrwt>
<totfact> 0.25891127E+01</totfact>
</mgrwt>
</event>
<event>
 4    2  0.2930016E-007  0.8327239E+03  0.7818608E-02  0.9644056E-01
         -2   -1    0    0    0  501 -0.00000000000E+00  0.00000000000E+00  0.13757601056E+03  0.13757601058E+03  0.25500000000E-02 0.  1.
          2   -1    0    0  501    0  0.00000000000E+00 -0.00000000000E+00 -0.46359287543E+04  0.46359287543E+04  0.25500000000E-02 0. -1.
    8880023    1    1    2    0    0  0.48866117815E+03 -0.14432303397E+03 -0.38289501539E+04  0.39184548450E+04  0.65864270000E+03 0.  0.
    8880022    1    1    2    0    0 -0.48866117815E+03  0.14432303397E+03 -0.66940258989E+03  0.85504991991E+03  0.15294330000E+03 0.  0.
<mgrwt>
<rscale>  0 0.74447668E+03</rscale>
<asrwt>0</asrwt>
<pdfrwt beam="1">  1        2 0.71321969E+00 0.83272390E+03</pdfrwt>
<pdfrwt beam="2">  1       -2 0.21165544E-01 0.83272390E+03</pdfrwt>
<totfact> 0.19415956E+00</totfact>
</mgrwt>
</event>
<event>
 4    2  0.2930016E-007  0.9435556E+03  0.7818608E-02  0.9459447E-01
          2   -1    0    0  501    0  0.00000000000E+00  0.00000000000E+00  0.56349540997E+04  0.56349540997E+04  0.25500000000E-02 0. -1.
         -2   -1    0    0    0  501 -0.00000000000E+00 -0.00000000000E+00 -0.22347262678E+03  0.22347262680E+03  0.25500000000E-02 0.  1.
    8880023    1    1    2    0    0 -0.13319064881E+03  0.66237999447E+03  0.49184967655E+04  0.50081840666E+04  0.65864270000E+03 0.  0.
    8880022    1    1    2    0    0  0.13319064881E+03 -0.66237999447E+03  0.49298470738E+03  0.85024265991E+03  0.15294330000E+03 0.  1.
<mgrwt>
<rscale>  0 0.87340779E+03</rscale>
<asrwt>0</asrwt>
<pdfrwt beam="1">  1        2 0.86691595E+00 0.94355562E+03</pdfrwt>
<pdfrwt beam="2">  1       -2 0.34380407E-01 0.94355562E+03</pdfrwt>
<totfact> 0.30347016E-02</totfact>
</mgrwt>
</event>
<event>
 4    2  0.2930016E-007  0.1333663E+04  0.7818608E-02  0.9037022E-01
          2   -1    0    0  501    0  0.00000000000E+00  0.00000000000E+00  0.21932945968E+04  0.21932945968E+04  0.25500000000E-02 0. -1.
         -2   -1    0    0    0  501 -0.00000000000E+00 -0.00000000000E+00 -0.82672305055E+03  0.82672305056E+03  0.25500000000E-02 0.  1.
    8880023    1    1    2    0    0 -0.27855993669E+03  0.11257222797E+04  0.12776887198E+04  0.18469285206E+04  0.65864270000E+03 0.  0.
    8880022    1    1    2    0    0  0.27855993669E+03 -0.11257222797E+04  0.88882826462E+02  0.11730891267E+04  0.15294330000E+03 0.  0.
<mgrwt>
<rscale>  0 0.12906389E+04</rscale>
<asrwt>0</asrwt>
<pdfrwt beam="1">  1        2 0.33742994E+00 0.13336628E+04</pdfrwt>
<pdfrwt beam="2">  1       -2 0.12718816E+00 0.13336628E+04</pdfrwt>
<totfact> 0.23024445E+00</totfact>
</mgrwt>
</event>
<event>
 4    2  0.2930016E-007  0.1682644E+04  0.7818608E-02  0.8790391E-01
         -2   -1    0    0    0  501 -0.00000000000E+00  0.00000000000E+00  0.19618774823E+04  0.19618774823E+04  0.25500000000E-02 0.  1.
          2   -1    0    0  501    0  0.00000000000E+00 -0.00000000000E+00 -0.28036722232E+04  0.28036722232E+04  0.25500000000E-02 0. -1.
    8880023    1    1    2    0    0 -0.12648957624E+04 -0.89303983443E+03  0.12943097338E+04  0.21228587633E+04  0.65864270000E+03 0.  0.
    8880022    1    1    2    0    0  0.12648957624E+04  0.89303983443E+03 -0.21361044747E+04  0.26426909421E+04  0.15294330000E+03 0.  0.
<mgrwt>
<rscale>  0 0.16500258E+04</rscale>
<asrwt>0</asrwt>
<pdfrwt beam="1">  1        2 0.43133419E+00 0.16826442E+04</pdfrwt>
<pdfrwt beam="2">  1       -2 0.30182730E+00 0.16826442E+04</pdfrwt>
<totfact> 0.65376711E-02</totfact>
</mgrwt>
</event>
<event>
 4    2  0.4038369E-007  0.7876232E+03  0.7818608E-02  0.9738225E-01
         -2   -1    0    0    0  501 -0.00000000000E+00  0.00000000000E+00  0.84735467308E+03  0.84735467309E+03  0.25500000000E-02 0.  1.
          2   -1    0    0  501    0  0.00000000000E+00 -0.00000000000E+00 -0.16806477319E+04  0.16806477319E+04  0.25500000000E-02 0. -1.
    8880023    1    1    2    0    0 -0.42637710312E+03 -0.68867533756E+02 -0.15144888080E+04  0.17070520575E+04  0.65864270000E+03 0. -1.
    8880022    1    1    2    0    0  0.42637710312E+03  0.68867533756E+02  0.68119574919E+03  0.82095034746E+03  0.15294330000E+03 0.  0.
<mgrwt>
<rscale>  0 0.68785782E+03</rscale>
<asrwt>0</asrwt>
<pdfrwt beam="1">  1        2 0.25856119E+00 0.78762325E+03</pdfrwt>
<pdfrwt beam="2">  1       -2 0.13036226E+00 0.78762325E+03</pdfrwt>
<totfact> 0.44364435E+00</totfact>
</mgrwt>
</event>
<event>
 4    2  0.2930016E-007  0.1231987E+04  0.7818608E-02  0.9126639E-01
          2   -1    0    0  501    0  0.00000000000E+00  0.00000000000E+00  0.17129245738E+04  0.17129245738E+04  0.25500000000E-02 0. -1.
         -2   -1    0    0    0  501 -0.00000000000E+00 -0.00000000000E+00 -0.16521509191E+04  0.16521509191E+04  0.25500000000E-02 0.  1.
    8880023    1    1    2    0    0  0.10368449814E+04  0.94519551490E+02 -0.12020607621E+04  0.17212616718E+04  0.65864270000E+03 0.  0.
    8880022    1    1    2    0    0 -0.10368449814E+04 -0.94519551490E+02  0.12628344168E+04  0.16438138211E+04  0.15294330000E+03 0.  0.
<mgrwt>
<rscale>  0 0.11843807E+04</rscale>
<asrwt>0</asrwt>
<pdfrwt beam="1">  1        2 0.26352686E+00 0.12319869E+04</pdfrwt>
<pdfrwt beam="2">  1       -2 0.25417707E+00 0.12319869E+04</pdfrwt>
<totfact> 0.56559982E-01</totfact>
</mgrwt>
</event>
<event>
 4    2  0.3121730E-007  0.8503159E+03  0.7818608E-02  0.9611027E-01
         -2   -1    0    0    0  501 -0.00000000000E+00  0.00000000000E+00  0.10544637631E+04  0.10544637631E+04  0.25500000000E-02 0.  1.
          2   -1    0    0  501    0  0.00000000000E+00 -0.00000000000E+00 -0.21537573378E+04  0.21537573378E+04  0.25500000000E-02 0. -1.
    8880023    1    1    2    0    0  0.13727519450E+03 -0.51998307154E+03 -0.19857590099E+04  0.21601564585E+04  0.65864270000E+03 0. -1.
    8880022    1    1    2    0    0 -0.13727519450E+03  0.51998307154E+03  0.88646543526E+03  0.10480646424E+04  0.15294330000E+03 0.  0.
<mgrwt>
<rscale>  0 0.76570600E+03</rscale>
<asrwt>0</asrwt>
<pdfrwt beam="1">  1        2 0.33134728E+00 0.85031587E+03</pdfrwt>
<pdfrwt beam="2">  1       -2 0.16222519E+00 0.85031587E+03</pdfrwt>
<totfact> 0.13615025E+00</totfact>
</mgrwt>
</event>
<event>
 4    2  0.2930016E-007  0.9165408E+03  0.7818608E-02  0.9499984E-01
         -2   -1    0    0    0  501 -0.00000000000E+00  0.00000000000E+00  0.49489130717E+03  0.49489130718E+03  0.25500000000E-02 0.  1.
          2   -1    0    0  501    0  0.00000000000E+00 -0.00000000000E+00 -0.39331447780E+04  0.39331447780E+04  0.25500000000E-02 0. -1.
    8880023    1    1    2    0    0 -0.17732822047E+03  0.61220217309E+03 -0.36309459957E+04  0.37448385584E+04  0.65864270000E+03 0.  0.
    8880022    1    1    2    0    0  0.17732822047E+03 -0.61220217309E+03  0.19269252482E+03  0.68319752682E+03  0.15294330000E+03 0.  0.
<mgrwt>
<rscale>  0 0.84285036E+03</rscale>
<asrwt>0</asrwt>
<pdfrwt beam="1">  1        2 0.60509917E+00 0.91654078E+03</pdfrwt>
<pdfrwt beam="2">  1       -2 0.76137127E-01 0.91654078E+03</pdfrwt>
<totfact> 0.63842581E-01</totfact>
</mgrwt>
</event>
<event>
 4    2  0.2930016E-007  0.7097351E+03  0.7818608E-02  0.9958986E-01
         -2   -1    0    0    0  501 -0.00000000000E+00  0.00000000000E+00  0.24658373923E+03  0.24658373924E+03  0.25500000000E-02 0.  1.
          2   -1    0    0  501    0  0.00000000000E+00 -0.00000000000E+00 -0.19961570832E+04  0.19961570832E+04  0.25500000000E-02 0. -1.
    8880023    1    1    2    0    0 -0.26206319830E+03 -0.35164887382E+02 -0.17984199306E+04  0.19334006678E+04  0.65864270000E+03 0. -1.
    8880022    1    1    2    0    0  0.26206319830E+03  0.35164887382E+02  0.48846586667E+02  0.30934015460E+03  0.15294330000E+03 0.  0.
<mgrwt>
<rscale>  0 0.57485792E+03</rscale>
<asrwt>0</asrwt>
<pdfrwt beam="1">  1        2 0.30710108E+00 0.70973509E+03</pdfrwt>
<pdfrwt beam="2">  1       -2 0.37935961E-01 0.70973509E+03</pdfrwt>
<totfact> 0.45600077E+01</totfact>
</mgrwt>
</event>
<event>
 4    2  0.2930016E-007  0.1383623E+04  0.7818608E-02  0.8996514E-01
         -2   -1    0    0    0  501 -0.00000000000E+00  0.00000000000E+00  0.10259206726E+04  0.10259206726E+04  0.25500000000E-02 0.  1.
          2   -1    0    0  501    0  0.00000000000E+00 -0.00000000000E+00 -0.18139103202E+04  0.18139103202E+04  0.25500000000E-02 0. -1.
    8880023    1    1    2    0    0 -0.96144894188E+02  0.12129957335E+04 -0.82864697150E+03  0.16127828433E+04  0.65864270000E+03 0.  0.
    8880022    1    1    2    0    0  0.96144894188E+02 -0.12129957335E+04  0.40657323884E+02  0.12270481495E+04  0.15294330000E+03 0.  0.
<mgrwt>
<rscale>  0 0.13425149E+04</rscale>
<asrwt>0</asrwt>
<pdfrwt beam="1">  1        2 0.27906313E+00 0.13836230E+04</pdfrwt>
<pdfrwt beam="2">  1       -2 0.15783395E+00 0.13836230E+04</pdfrwt>
<totfact> 0.21142316E+00</totfact>
</mgrwt>
</event>
<event>
 4    2  0.2930016E-007  0.8003872E+03  0.7818608E-02  0.9709960E-01
          2   -1    0    0  501    0  0.00000000000E+00  0.00000000000E+00  0.10637726629E+04  0.10637726629E+04  0.25500000000E-02 0. -1.
         -2   -1    0    0    0  501 -0.00000000000E+00 -0.00000000000E+00 -0.38515439677E+03  0.38515439677E+03  0.25500000000E-02 0.  1.
    8880023    1    1    2    0    0 -0.28375713767E+03  0.35537492709E+03  0.42292540380E+03  0.90525441475E+03  0.65864270000E+03 0. -1.
    8880022    1    1    2    0    0  0.28375713767E+03 -0.35537492709E+03  0.25569286235E+03  0.54367264494E+03  0.15294330000E+03 0.  1.
<mgrwt>
<rscale>  0 0.70426892E+03</rscale>
<asrwt>0</asrwt>
<pdfrwt beam="1">  1        2 0.16365733E+00 0.80038719E+03</pdfrwt>
<pdfrwt beam="2">  1       -2 0.59254522E-01 0.80038719E+03</pdfrwt>
<totfact> 0.61720690E+01</totfact>
</mgrwt>
</event>
<event>
 4    2  0.2930016E-007  0.6649915E+03  0.7818608E-02  0.1019541E+00
         -2   -1    0    0    0  501 -0.00000000000E+00  0.00000000000E+00  0.21659532995E+03  0.21659532997E+03  0.25500000000E-02 0.  1.
          2   -1    0    0  501    0  0.00000000000E+00 -0.00000000000E+00 -0.82185219733E+03  0.82185219733E+03  0.25500000000E-02 0. -1.
    8880023    1    1    2    0    0 -0.62419533759E+02  0.67136390332E+02 -0.49194712101E+03  0.82717934527E+03  0.65864270000E+03 0.  0.
    8880022    1    1    2    0    0  0.62419533759E+02 -0.67136390332E+02 -0.11330974636E+03  0.21126818203E+03  0.15294330000E+03 0.  1.
<mgrwt>
<rscale>  0 0.47852780E+03</rscale>
<asrwt>0</asrwt>
<pdfrwt beam="1">  1        2 0.12643880E+00 0.66499150E+03</pdfrwt>
<pdfrwt beam="2">  1       -2 0.33322359E-01 0.66499150E+03</pdfrwt>
<totfact> 0.28279620E+02</totfact>
</mgrwt>
</event>
<event>
 4    2  0.2930016E-007  0.9464985E+03  0.7818608E-02  0.9455170E-01
         -2   -1    0    0    0  501 -0.00000000000E+00  0.00000000000E+00  0.13665104384E+04  0.13665104384E+04  0.25500000000E-02 0.  1.
          2   -1    0    0  501    0  0.00000000000E+00 -0.00000000000E+00 -0.64814051068E+03  0.64814051069E+03  0.25500000000E-02 0. -1.
    8880023    1    1    2    0    0 -0.65910571049E+03 -0.16621906227E+03  0.88769294150E+03  0.12976355725E+04  0.65864270000E+03 0.  1.
    8880022    1    1    2    0    0  0.65910571049E+03  0.16621906227E+03 -0.16932301380E+03  0.71701537660E+03  0.15294330000E+03 0.  0.
<mgrwt>
<rscale>  0 0.87671202E+03</rscale>
<asrwt>0</asrwt>
<pdfrwt beam="1">  1        2 0.99713926E-01 0.94649845E+03</pdfrwt>
<pdfrwt beam="2">  1       -2 0.21023237E+00 0.94649845E+03</pdfrwt>
<totfact> 0.51481706E+00</totfact>
</mgrwt>
</event>
<event>
 4    2  0.2930016E-007  0.6733182E+03  0.7818608E-02  0.1013388E+00
         -2   -1    0    0    0  501 -0.00000000000E+00  0.00000000000E+00  0.59306421307E+03  0.59306421308E+03  0.25500000000E-02 0.  1.
          2   -1    0    0  501    0  0.00000000000E+00 -0.00000000000E+00 -0.68044846446E+03  0.68044846446E+03  0.25500000000E-02 0. -1.
    8880023    1    1    2    0    0 -0.11548246428E+03  0.78809920560E+02 -0.48182311117E+03  0.82795586830E+03  0.65864270000E+03 0. -1.
    8880022    1    1    2    0    0  0.11548246428E+03 -0.78809920560E+02  0.39443885978E+03  0.44555680924E+03  0.15294330000E+03 0.  0.
<mgrwt>
<rscale>  0 0.50150074E+03</rscale>
<asrwt>0</asrwt>
<pdfrwt beam="1">  1        2 0.10468438E+00 0.67331821E+03</pdfrwt>
<pdfrwt beam="2">  1       -2 0.91240648E-01 0.67331821E+03</pdfrwt>
<totfact> 0.44314269E+01</totfact>
</mgrwt>
</event>
<event>
 4    2  0.2930016E-007  0.8009200E+03  0.7818608E-02  0.9708810E-01
          2   -1    0    0  501    0  0.00000000000E+00  0.00000000000E+00  0.13699135466E+04  0.13699135466E+04  0.25500000000E-02 0. -1.
         -2   -1    0    0    0  501 -0.00000000000E+00 -0.00000000000E+00 -0.32637570177E+03  0.32637570178E+03  0.25500000000E-02 0.  1.
    8880023    1    1    2    0    0 -0.44463441296E+03 -0.99813926664E+02  0.40628652648E+03  0.89807657191E+03  0.65864270000E+03 0.  1.
    8880022    1    1    2    0    0  0.44463441296E+03  0.99813926664E+02  0.63725131836E+03  0.79821267650E+03  0.15294330000E+03 0.  0.
<mgrwt>
<rscale>  0 0.70494637E+03</rscale>
<asrwt>0</asrwt>
<pdfrwt beam="1">  1        2 0.21075593E+00 0.80091996E+03</pdfrwt>
<pdfrwt beam="2">  1       -2 0.50211647E-01 0.80091996E+03</pdfrwt>
<totfact> 0.57313977E+01</totfact>
</mgrwt>
</event>
<event>
 4    2  0.2930016E-007  0.7166114E+03  0.7818608E-02  0.9934223E-01
         -2   -1    0    0    0  501 -0.00000000000E+00  0.00000000000E+00  0.35059827291E+03  0.35059827292E+03  0.25500000000E-02 0.  1.
          2   -1    0    0  501    0  0.00000000000E+00 -0.00000000000E+00 -0.18116074207E+04  0.18116074207E+04  0.25500000000E-02 0. -1.
    8880023    1    1    2    0    0 -0.19713428438E+03  0.20213797387E+03 -0.16434451988E+04  0.17928870612E+04  0.65864270000E+03 0. -1.
    8880022    1    1    2    0    0  0.19713428438E+03 -0.20213797387E+03  0.18243605098E+03  0.36931863244E+03  0.15294330000E+03 0.  0.
<mgrwt>
<rscale>  0 0.58630978E+03</rscale>
<asrwt>0</asrwt>
<pdfrwt beam="1">  1        2 0.27870883E+00 0.71661140E+03</pdfrwt>
<pdfrwt beam="2">  1       -2 0.53938197E-01 0.71661140E+03</pdfrwt>
<totfact> 0.28444729E+01</totfact>
</mgrwt>
</event>
<event>
 4    2  0.2930016E-007  0.8671345E+03  0.7818608E-02  0.9580996E-01
         -2   -1    0    0    0  501 -0.00000000000E+00  0.00000000000E+00  0.30027750552E+03  0.30027750553E+03  0.25500000000E-02 0.  1.
          2   -1    0    0  501    0  0.00000000000E+00 -0.00000000000E+00 -0.21069400983E+04  0.21069400983E+04  0.25500000000E-02 0. -1.
    8880023    1    1    2    0    0  0.48744899823E+03  0.28373498442E+03 -0.15345158117E+04  0.17625722822E+04  0.65864270000E+03 0.  0.
    8880022    1    1    2    0    0 -0.48744899823E+03 -0.28373498442E+03 -0.27214678108E+03  0.64464532165E+03  0.15294330000E+03 0.  0.
<mgrwt>
<rscale>  0 0.78566840E+03</rscale>
<asrwt>0</asrwt>
<pdfrwt beam="1">  1        2 0.32414462E+00 0.86713452E+03</pdfrwt>
<pdfrwt beam="2">  1       -2 0.46196541E-01 0.86713452E+03</pdfrwt>
<totfact> 0.26392569E+01</totfact>
</mgrwt>
</event>
<event>
 4    2  0.2930016E-007  0.9594002E+03  0.7818608E-02  0.9436716E-01
          2   -1    0    0  501    0  0.00000000000E+00  0.00000000000E+00  0.98688666295E+03  0.98688666296E+03  0.25500000000E-02 0. -1.
         -2   -1    0    0    0  501 -0.00000000000E+00 -0.00000000000E+00 -0.91974673685E+03  0.91974673686E+03  0.25500000000E-02 0.  1.
    8880023    1    1    2    0    0  0.25584993040E+03  0.64898337325E+03  0.48935806322E+03  0.10769958802E+04  0.65864270000E+03 0.  0.
    8880022    1    1    2    0    0 -0.25584993040E+03 -0.64898337325E+03 -0.42221813712E+03  0.82963751963E+03  0.15294330000E+03 0.  0.
<mgrwt>
<rscale>  0 0.89114702E+03</rscale>
<asrwt>0</asrwt>
<pdfrwt beam="1">  1        2 0.15182872E+00 0.95940024E+03</pdfrwt>
<pdfrwt beam="2">  1       -2 0.14149950E+00 0.95940024E+03</pdfrwt>
<totfact> 0.89299052E+00</totfact>
</mgrwt>
</event>
<event>
 4    2  0.2930016E-007  0.7610418E+03  0.7818608E-02  0.9802418E-01
         -2   -1    0    0    0  501 -0.00000000000E+00  0.00000000000E+00  0.10565543136E+04  0.10565543136E+04  0.25500000000E-02 0.  1.
          2   -1    0    0  501    0  0.00000000000E+00 -0.00000000000E+00 -0.74489298420E+03  0.74489298421E+03  0.25500000000E-02 0. -1.
    8880023    1    1    2    0    0  0.60138050852E+02  0.37650744976E+03 -0.48686050666E+03  0.90344773180E+03  0.65864270000E+03 0. -1.
    8880022    1    1    2    0    0 -0.60138050852E+02 -0.37650744976E+03  0.79852183603E+03  0.89799956599E+03  0.15294330000E+03 0.  0.
<mgrwt>
<rscale>  0 0.65232954E+03</rscale>
<asrwt>0</asrwt>
<pdfrwt beam="1">  1        2 0.11459892E+00 0.76104182E+03</pdfrwt>
<pdfrwt beam="2">  1       -2 0.16254682E+00 0.76104182E+03</pdfrwt>
<totfact> 0.92682472E+00</totfact>
</mgrwt>
</event>
<event>
 4    2  0.2930016E-007  0.6672800E+03  0.7818608E-02  0.1017693E+00
          2   -1    0    0  501    0  0.00000000000E+00  0.00000000000E+00  0.10761244141E+04  0.10761244141E+04  0.25500000000E-02 0. -1.
         -2   -1    0    0    0  501 -0.00000000000E+00 -0.00000000000E+00 -0.17060554012E+03  0.17060554014E+03  0.25500000000E-02 0.  1.
    8880023    1    1    2    0    0 -0.10418642116E+03  0.24446394385E+02  0.74900363963E+03  0.10031296501E+04  0.65864270000E+03 0.  0.
    8880022    1    1    2    0    0  0.10418642116E+03 -0.24446394385E+02  0.15651523431E+03  0.24360030406E+03  0.15294330000E+03 0.  1.
<mgrwt>
<rscale>  0 0.48528541E+03</rscale>
<asrwt>0</asrwt>
<pdfrwt beam="1">  1        2 0.16555760E+00 0.66728003E+03</pdfrwt>
<pdfrwt beam="2">  1       -2 0.26247006E-01 0.66728003E+03</pdfrwt>
<totfact> 0.29962313E+02</totfact>
</mgrwt>
</event>
<event>
 4    2  0.2930016E-007  0.1427748E+04  0.7818608E-02  0.8962416E-01
          2   -1    0    0  501    0  0.00000000000E+00  0.00000000000E+00  0.21170916061E+04  0.21170916061E+04  0.25500000000E-02 0. -1.
         -2   -1    0    0    0  501 -0.00000000000E+00 -0.00000000000E+00 -0.10859653974E+04  0.10859653974E+04  0.25500000000E-02 0.  1.
    8880023    1    1    2    0    0  0.12664599555E+04 -0.27073273638E+02 -0.18585796733E+03  0.14397941420E+04  0.65864270000E+03 0.  0.
    8880022    1    1    2    0    0 -0.12664599555E+04  0.27073273638E+02  0.12169841760E+04  0.17632628615E+04  0.15294330000E+03 0.  0.
<mgrwt>
<rscale>  0 0.13881838E+04</rscale>
<asrwt>0</asrwt>
<pdfrwt beam="1">  1        2 0.32570640E+00 0.14277479E+04</pdfrwt>
<pdfrwt beam="2">  1       -2 0.16707160E+00 0.14277479E+04</pdfrwt>
<totfact> 0.12200235E+00</totfact>
</mgrwt>
</event>
<event>
 4    2  0.2981360E-007  0.8957748E+03  0.7818608E-02  0.9532849E-01
         -2   -1    0    0    0  501 -0.00000000000E+00  0.00000000000E+00  0.17803943140E+04  0.17803943140E+04  0.25500000000E-02 0.  1.
          2   -1    0    0  501    0  0.00000000000E+00 -0.00000000000E+00 -0.12075267831E+04  0.12075267831E+04  0.25500000000E-02 0. -1.
    8880023    1    1    2    0    0 -0.56466866268E+03  0.22305060700E+03 -0.97151222218E+03  0.13214569520E+04  0.65864270000E+03 0. -1.
    8880022    1    1    2    0    0  0.56466866268E+03 -0.22305060700E+03  0.15443797531E+04  0.16664641450E+04  0.15294330000E+03 0.  0.
<mgrwt>
<rscale>  0 0.81904742E+03</rscale>
<asrwt>0</asrwt>
<pdfrwt beam="1">  1        2 0.18577335E+00 0.89577479E+03</pdfrwt>
<pdfrwt beam="2">  1       -2 0.27390682E+00 0.89577479E+03</pdfrwt>
<totfact> 0.87385597E-01</totfact>
</mgrwt>
</event>
<event>
 4    2  0.2930016E-007  0.7423192E+03  0.7818608E-02  0.9853242E-01
          2   -1    0    0  501    0  0.00000000000E+00  0.00000000000E+00  0.18513118838E+04  0.18513118838E+04  0.25500000000E-02 0. -1.
         -2   -1    0    0    0  501 -0.00000000000E+00 -0.00000000000E+00 -0.47450533509E+03  0.47450533510E+03  0.25500000000E-02 0.  1.
    8880023    1    1    2    0    0 -0.26159752136E+03  0.22089427731E+03  0.16844590525E+04  0.18407715911E+04  0.65864270000E+03 0. -1.
    8880022    1    1    2    0    0  0.26159752136E+03 -0.22089427731E+03 -0.30765250377E+03  0.48504562778E+03  0.15294330000E+03 0.  0.
<mgrwt>
<rscale>  0 0.62581877E+03</rscale>
<asrwt>0</asrwt>
<pdfrwt beam="1">  1        2 0.28481722E+00 0.74231917E+03</pdfrwt>
<pdfrwt beam="2">  1       -2 0.73000819E-01 0.74231917E+03</pdfrwt>
<totfact> 0.14145494E+01</totfact>
</mgrwt>
</event>
<event>
 4    2  0.2930016E-007  0.1154125E+04  0.7818608E-02  0.9203060E-01
          2   -1    0    0  501    0  0.00000000000E+00  0.00000000000E+00  0.13605157487E+04  0.13605157487E+04  0.25500000000E-02 0. -1.
         -2   -1    0    0    0  501 -0.00000000000E+00 -0.00000000000E+00 -0.23537538203E+04  0.23537538203E+04  0.25500000000E-02 0.  1.
    8880023    1    1    2    0    0  0.72213864387E+03  0.61376662335E+03  0.98376912048E+03  0.15165109883E+04  0.65864270000E+03 0.  0.
    8880022    1    1    2    0    0 -0.72213864387E+03 -0.61376662335E+03 -0.19770071920E+04  0.21977585807E+04  0.15294330000E+03 0.  0.
<mgrwt>
<rscale>  0 0.11021901E+04</rscale>
<asrwt>0</asrwt>
<pdfrwt beam="1">  1        2 0.20931011E+00 0.11541247E+04</pdfrwt>
<pdfrwt beam="2">  1       -2 0.36211597E+00 0.11541247E+04</pdfrwt>
<totfact> 0.19644314E-01</totfact>
</mgrwt>
</event>
<event>
 4    2  0.2930016E-007  0.1103914E+04  0.7818608E-02  0.9256710E-01
          2   -1    0    0  501    0  0.00000000000E+00  0.00000000000E+00  0.20442566409E+04  0.20442566409E+04  0.25500000000E-02 0. -1.
         -2   -1    0    0    0  501 -0.00000000000E+00 -0.00000000000E+00 -0.74813294877E+03  0.74813294878E+03  0.25500000000E-02 0.  1.
    8880023    1    1    2    0    0 -0.46223237472E+03  0.75575008778E+03 -0.12480558500E+03  0.11109471651E+04  0.65864270000E+03 0.  1.
    8880022    1    1    2    0    0  0.46223237472E+03 -0.75575008778E+03  0.14209292771E+04  0.16814424246E+04  0.15294330000E+03 0.  0.
<mgrwt>
<rscale>  0 0.10486776E+04</rscale>
<asrwt>0</asrwt>
<pdfrwt beam="1">  1        2 0.31450102E+00 0.11039145E+04</pdfrwt>
<pdfrwt beam="2">  1       -2 0.11509738E+00 0.11039145E+04</pdfrwt>
<totfact> 0.36681363E+00</totfact>
</mgrwt>
</event>
<event>
 4    2  0.2930016E-007  0.6972902E+03  0.7818608E-02  0.1000863E+00
          2   -1    0    0  501    0  0.00000000000E+00  0.00000000000E+00  0.18759191369E+04  0.18759191369E+04  0.25500000000E-02 0. -1.
         -2   -1    0    0    0  501 -0.00000000000E+00 -0.00000000000E+00 -0.44943613836E+03  0.44943613837E+03  0.25500000000E-02 0.  1.
    8880023    1    1    2    0    0  0.22278789380E+03 -0.52620601268E+02  0.17598770764E+04  0.18929820135E+04  0.65864270000E+03 0. -1.
    8880022    1    1    2    0    0 -0.22278789380E+03  0.52620601268E+02 -0.33339407786E+03  0.43237326174E+03  0.15294330000E+03 0.  0.
<mgrwt>
<rscale>  0 0.55273281E+03</rscale>
<asrwt>0</asrwt>
<pdfrwt beam="1">  1        2 0.28860295E+00 0.69729017E+03</pdfrwt>
<pdfrwt beam="2">  1       -2 0.69144021E-01 0.69729017E+03</pdfrwt>
<totfact> 0.15548378E+01</totfact>
</mgrwt>
</event>
<event>
 4    2  0.2930016E-007  0.7655410E+03  0.7818608E-02  0.9790968E-01
         -2   -1    0    0    0  501 -0.00000000000E+00  0.00000000000E+00  0.63797423556E+03  0.63797423556E+03  0.25500000000E-02 0.  1.
          2   -1    0    0  501    0  0.00000000000E+00 -0.00000000000E+00 -0.13635544763E+04  0.13635544763E+04  0.25500000000E-02 0. -1.
    8880023    1    1    2    0    0  0.23483962004E+03 -0.31159785740E+03 -0.11651839947E+04  0.13941688634E+04  0.65864270000E+03 0. -1.
    8880022    1    1    2    0    0 -0.23483962004E+03  0.31159785740E+03  0.43960375403E+03  0.60735984840E+03  0.15294330000E+03 0.  0.
<mgrwt>
<rscale>  0 0.65849517E+03</rscale>
<asrwt>0</asrwt>
<pdfrwt beam="1">  1        2 0.20977761E+00 0.76554104E+03</pdfrwt>
<pdfrwt beam="2">  1       -2 0.98149882E-01 0.76554104E+03</pdfrwt>
<totfact> 0.13372412E+01</totfact>
</mgrwt>
</event>
<event>
 4    2  0.2930016E-007  0.7876307E+03  0.7818608E-02  0.9738208E-01
         -2   -1    0    0    0  501 -0.00000000000E+00  0.00000000000E+00  0.42621883017E+03  0.42621883018E+03  0.25500000000E-02 0.  1.
          2   -1    0    0  501    0  0.00000000000E+00 -0.00000000000E+00 -0.97404364677E+03  0.97404364677E+03  0.25500000000E-02 0. -1.
    8880023    1    1    2    0    0 -0.14661312740E+03 -0.40627138361E+03 -0.16856343247E+03  0.80546612796E+03  0.65864270000E+03 0.  0.
    8880022    1    1    2    0    0  0.14661312740E+03  0.40627138361E+03 -0.37926138413E+03  0.59479634899E+03  0.15294330000E+03 0.  0.
<mgrwt>
<rscale>  0 0.68786746E+03</rscale>
<asrwt>0</asrwt>
<pdfrwt beam="1">  1        2 0.14985287E+00 0.78763066E+03</pdfrwt>
<pdfrwt beam="2">  1       -2 0.65572128E-01 0.78763066E+03</pdfrwt>
<totfact> 0.56756770E+01</totfact>
</mgrwt>
</event>
<event>
 4    2  0.2930016E-007  0.9086600E+03  0.7818608E-02  0.9512270E-01
         -2   -1    0    0    0  501 -0.00000000000E+00  0.00000000000E+00  0.29548059558E+03  0.29548059559E+03  0.25500000000E-02 0.  1.
          2   -1    0    0  501    0  0.00000000000E+00 -0.00000000000E+00 -0.23861084928E+04  0.23861084928E+04  0.25500000000E-02 0. -1.
    8880023    1    1    2    0    0  0.62311894801E+03  0.59796078420E+02 -0.17011960032E+04  0.19286603750E+04  0.65864270000E+03 0. -1.
    8880022    1    1    2    0    0 -0.62311894801E+03 -0.59796078420E+02 -0.38943189394E+03  0.75292871336E+03  0.15294330000E+03 0.  0.
<mgrwt>
<rscale>  0 0.83385212E+03</rscale>
<asrwt>0</asrwt>
<pdfrwt beam="1">  1        2 0.36709360E+00 0.90866000E+03</pdfrwt>
<pdfrwt beam="2">  1       -2 0.45458555E-01 0.90866000E+03</pdfrwt>
<totfact> 0.18969302E+01</totfact>
</mgrwt>
</event>
<event>
 4    2  0.2930016E-007  0.1136758E+04  0.7818608E-02  0.9221194E-01
          2   -1    0    0  501    0  0.00000000000E+00  0.00000000000E+00  0.52721658327E+03  0.52721658328E+03  0.25500000000E-02 0. -1.
         -2   -1    0    0    0  501 -0.00000000000E+00 -0.00000000000E+00 -0.27208919842E+04  0.27208919842E+04  0.25500000000E-02 0.  1.
    8880023    1    1    2    0    0  0.46217616042E+03 -0.80299501432E+03 -0.36757164094E+03  0.11947078780E+04  0.65864270000E+03 0. -1.
    8880022    1    1    2    0    0 -0.46217616042E+03  0.80299501432E+03 -0.18261037600E+04  0.20534006895E+04  0.15294330000E+03 0.  1.
<mgrwt>
<rscale>  0 0.10837326E+04</rscale>
<asrwt>0</asrwt>
<pdfrwt beam="1">  1        2 0.81110245E-01 0.11367577E+04</pdfrwt>
<pdfrwt beam="2">  1       -2 0.41859876E+00 0.11367577E+04</pdfrwt>
<totfact> 0.32470967E-01</totfact>
</mgrwt>
</event>
<event>
 4    2  0.2930016E-007  0.6626796E+03  0.7818608E-02  0.1021565E+00
          2   -1    0    0  501    0  0.00000000000E+00  0.00000000000E+00  0.34310257029E+04  0.34310257029E+04  0.25500000000E-02 0. -1.
         -2   -1    0    0    0  501 -0.00000000000E+00 -0.00000000000E+00 -0.13632038777E+03  0.13632038780E+03  0.25500000000E-02 0.  1.
    8880023    1    1    2    0    0 -0.18750205046E+02 -0.70586446470E+02  0.33290916867E+04  0.33944065285E+04  0.65864270000E+03 0. -1.
    8880022    1    1    2    0    0  0.18750205046E+02  0.70586446470E+02 -0.34386371485E+02  0.17293956220E+03  0.15294330000E+03 0.  0.
<mgrwt>
<rscale>  0 0.47126096E+03</rscale>
<asrwt>0</asrwt>
<pdfrwt beam="1">  1        2 0.52785016E+00 0.66267958E+03</pdfrwt>
<pdfrwt beam="2">  1       -2 0.20972365E-01 0.66267958E+03</pdfrwt>
<totfact> 0.19457503E+01</totfact>
</mgrwt>
</event>
<event>
 4    2  0.2930016E-007  0.7214853E+03  0.7818608E-02  0.9917592E-01
         -2   -1    0    0    0  501 -0.00000000000E+00  0.00000000000E+00  0.35380677735E+03  0.35380677736E+03  0.25500000000E-02 0.  1.
          2   -1    0    0  501    0  0.00000000000E+00 -0.00000000000E+00 -0.34524821728E+04  0.34524821728E+04  0.25500000000E-02 0. -1.
    8880023    1    1    2    0    0  0.29173961201E+03  0.40233860827E+02 -0.33264490773E+04  0.34037926545E+04  0.65864270000E+03 0.  0.
    8880022    1    1    2    0    0 -0.29173961201E+03 -0.40233860827E+02  0.22777368191E+03  0.40249629558E+03  0.15294330000E+03 0.  1.
<mgrwt>
<rscale>  0 0.59416226E+03</rscale>
<asrwt>0</asrwt>
<pdfrwt beam="1">  1        2 0.53115108E+00 0.72148525E+03</pdfrwt>
<pdfrwt beam="2">  1       -2 0.54431814E-01 0.72148525E+03</pdfrwt>
<totfact> 0.30408015E+00</totfact>
</mgrwt>
</event>
<event>
 4    2  0.2930016E-007  0.7143155E+03  0.7818608E-02  0.9942312E-01
         -2   -1    0    0    0  501 -0.00000000000E+00  0.00000000000E+00  0.28340929391E+03  0.28340929393E+03  0.25500000000E-02 0.  1.
          2   -1    0    0  501    0  0.00000000000E+00 -0.00000000000E+00 -0.29811271410E+04  0.29811271411E+04  0.25500000000E-02 0. -1.
    8880023    1    1    2    0    0 -0.19684169340E+03  0.19413840322E+03 -0.28323911554E+04  0.29210762119E+04  0.65864270000E+03 0. -1.
    8880022    1    1    2    0    0  0.19684169340E+03 -0.19413840322E+03  0.13467330831E+03  0.34346022310E+03  0.15294330000E+03 0.  0.
<mgrwt>
<rscale>  0 0.58253778E+03</rscale>
<asrwt>0</asrwt>
<pdfrwt beam="1">  1        2 0.45863492E+00 0.71431546E+03</pdfrwt>
<pdfrwt beam="2">  1       -2 0.43601432E-01 0.71431546E+03</pdfrwt>
<totfact> 0.95480642E+00</totfact>
</mgrwt>
</event>
<event>
 4    2  0.2930016E-007  0.6593070E+03  0.7818608E-02  0.1024878E+00
          2   -1    0    0  501    0  0.00000000000E+00  0.00000000000E+00  0.29589264539E+04  0.29589264539E+04  0.25500000000E-02 0. -1.
         -2   -1    0    0    0  501 -0.00000000000E+00 -0.00000000000E+00 -0.23000531301E+03  0.23000531303E+03  0.25500000000E-02 0.  1.
    8880023    1    1    2    0    0  0.10133772328E+02 -0.27798643817E+02  0.28903522516E+04  0.29645947114E+04  0.65864270000E+03 0. -1.
    8880022    1    1    2    0    0 -0.10133772328E+02  0.27798643817E+02 -0.16143111078E+03  0.22433705552E+03  0.15294330000E+03 0.  0.
<mgrwt>
<rscale>  0 0.45966666E+03</rscale>
<asrwt>0</asrwt>
<pdfrwt beam="1">  1        2 0.45521944E+00 0.65930696E+03</pdfrwt>
<pdfrwt beam="2">  1       -2 0.35385434E-01 0.65930696E+03</pdfrwt>
<totfact> 0.14930623E+01</totfact>
</mgrwt>
</event>
<event>
 4    2  0.2930016E-007  0.1034424E+04  0.7818608E-02  0.9337845E-01
         -2   -1    0    0    0  501 -0.00000000000E+00  0.00000000000E+00  0.39088747700E+03  0.39088747701E+03  0.25500000000E-02 0.  1.
          2   -1    0    0  501    0  0.00000000000E+00 -0.00000000000E+00 -0.44173639649E+04  0.44173639649E+04  0.25500000000E-02 0. -1.
    8880023    1    1    2    0    0 -0.52512587478E+03  0.60038764056E+03 -0.38373859871E+04  0.39743633356E+04  0.65864270000E+03 0. -1.
    8880022    1    1    2    0    0  0.52512587478E+03 -0.60038764056E+03 -0.18909050081E+03  0.83388810629E+03  0.15294330000E+03 0.  0.
<mgrwt>
<rscale>  0 0.97372236E+03</rscale>
<asrwt>0</asrwt>
<pdfrwt beam="1">  1        2 0.67959442E+00 0.10344239E+04</pdfrwt>
<pdfrwt beam="2">  1       -2 0.60136538E-01 0.10344239E+04</pdfrwt>
<totfact> 0.40556049E-01</totfact>
</mgrwt>
</event>
<event>
 4    2  0.2930016E-007  0.8758437E+03  0.7818608E-02  0.9565979E-01
          2   -1    0    0  501    0  0.00000000000E+00  0.00000000000E+00  0.11785189655E+04  0.11785189655E+04  0.25500000000E-02 0. -1.
         -2   -1    0    0    0  501 -0.00000000000E+00 -0.00000000000E+00 -0.11303827551E+04  0.11303827551E+04  0.25500000000E-02 0.  1.
    8880023    1    1    2    0    0  0.57481175018E+03 -0.53698061746E+02  0.90826279712E+03  0.12617620793E+04  0.65864270000E+03 0.  0.
    8880022    1    1    2    0    0 -0.57481175018E+03  0.53698061746E+02 -0.86012658677E+03  0.10471396412E+04  0.15294330000E+03 0.  0.
<mgrwt>
<rscale>  0 0.79589426E+03</rscale>
<asrwt>0</asrwt>
<pdfrwt beam="1">  1        2 0.18131061E+00 0.87584373E+03</pdfrwt>
<pdfrwt beam="2">  1       -2 0.17390504E+00 0.87584373E+03</pdfrwt>
<totfact> 0.39248035E+00</totfact>
</mgrwt>
</event>
<event>
 4    2  0.2930016E-007  0.1044425E+04  0.7818608E-02  0.9325613E-01
          2   -1    0    0  501    0  0.00000000000E+00  0.00000000000E+00  0.11538982876E+04  0.11538982876E+04  0.25500000000E-02 0. -1.
         -2   -1    0    0    0  501 -0.00000000000E+00 -0.00000000000E+00 -0.13828285946E+04  0.13828285946E+04  0.25500000000E-02 0.  1.
    8880023    1    1    2    0    0 -0.30165390706E+03  0.75234237911E+03  0.72818068034E+03  0.12732130397E+04  0.65864270000E+03 0. -1.
    8880022    1    1    2    0    0  0.30165390706E+03 -0.75234237911E+03 -0.95711098731E+03  0.12635138425E+04  0.15294330000E+03 0.  0.
<mgrwt>
<rscale>  0 0.98458691E+03</rscale>
<asrwt>0</asrwt>
<pdfrwt beam="1">  1        2 0.17752281E+00 0.10444254E+04</pdfrwt>
<pdfrwt beam="2">  1       -2 0.21274286E+00 0.10444254E+04</pdfrwt>
<totfact> 0.21930618E+00</totfact>
</mgrwt>
</event>
<event>
 4    2  0.2930016E-007  0.6974559E+03  0.7818608E-02  0.1000792E+00
          2   -1    0    0  501    0  0.00000000000E+00  0.00000000000E+00  0.65566813674E+03  0.65566813674E+03  0.25500000000E-02 0. -1.
         -2   -1    0    0    0  501 -0.00000000000E+00 -0.00000000000E+00 -0.48211008212E+03  0.48211008213E+03  0.25500000000E-02 0.  1.
    8880023    1    1    2    0    0  0.19763201043E+03 -0.11651659025E+03  0.37913875704E+03  0.79384565924E+03  0.65864270000E+03 0. -1.
    8880022    1    1    2    0    0 -0.19763201043E+03  0.11651659025E+03 -0.20558070242E+03  0.34393255963E+03  0.15294330000E+03 0.  0.
<mgrwt>
<rscale>  0 0.55304180E+03</rscale>
<asrwt>0</asrwt>
<pdfrwt beam="1">  1        2 0.10087202E+00 0.69745590E+03</pdfrwt>
<pdfrwt beam="2">  1       -2 0.74170782E-01 0.69745590E+03</pdfrwt>
<totfact> 0.73950993E+01</totfact>
</mgrwt>
</event>
<event>
 4    2  0.2930016E-007  0.7733135E+03  0.7818608E-02  0.9771785E-01
          2   -1    0    0  501    0  0.00000000000E+00  0.00000000000E+00  0.10262087486E+04  0.10262087486E+04  0.25500000000E-02 0. -1.
         -2   -1    0    0    0  501 -0.00000000000E+00 -0.00000000000E+00 -0.36606114548E+03  0.36606114549E+03  0.25500000000E-02 0.  1.
    8880023    1    1    2    0    0  0.10766227948E+03 -0.39065635995E+03  0.53867592236E+03  0.94243594668E+03  0.65864270000E+03 0. -1.
    8880022    1    1    2    0    0 -0.10766227948E+03  0.39065635995E+03  0.12147168074E+03  0.44983394740E+03  0.15294330000E+03 0.  0.
<mgrwt>
<rscale>  0 0.66898967E+03</rscale>
<asrwt>0</asrwt>
<pdfrwt beam="1">  1        2 0.15787827E+00 0.77331350E+03</pdfrwt>
<pdfrwt beam="2">  1       -2 0.56317100E-01 0.77331350E+03</pdfrwt>
<totfact> 0.72643723E+01</totfact>
</mgrwt>
</event>
<event>
 4    2  0.2930016E-007  0.7075061E+03  0.7818608E-02  0.9967381E-01
          2   -1    0    0  501    0  0.00000000000E+00  0.00000000000E+00  0.96211340969E+03  0.96211340969E+03  0.25500000000E-02 0. -1.
         -2   -1    0    0    0  501 -0.00000000000E+00 -0.00000000000E+00 -0.27220758541E+03  0.27220758542E+03  0.25500000000E-02 0.  1.
    8880023    1    1    2    0    0 -0.25321608125E+03 -0.51344237600E+02  0.57908498487E+03  0.91427798863E+03  0.65864270000E+03 0.  1.
    8880022    1    1    2    0    0  0.25321608125E+03  0.51344237600E+02  0.11082083941E+03  0.32004300648E+03  0.15294330000E+03 0. -1.
<mgrwt>
<rscale>  0 0.57103942E+03</rscale>
<asrwt>0</asrwt>
<pdfrwt beam="1">  1        2 0.14801745E+00 0.70750606E+03</pdfrwt>
<pdfrwt beam="2">  1       -2 0.41878090E-01 0.70750606E+03</pdfrwt>
<totfact> 0.14612287E+02</totfact>
</mgrwt>
</event>
<event>
 4    2  0.2930016E-007  0.9814871E+03  0.7818608E-02  0.9406189E-01
         -2   -1    0    0    0  501 -0.00000000000E+00  0.00000000000E+00  0.50393026398E+03  0.50393026399E+03  0.25500000000E-02 0.  1.
          2   -1    0    0  501    0  0.00000000000E+00 -0.00000000000E+00 -0.19121298534E+04  0.19121298534E+04  0.25500000000E-02 0. -1.
    8880023    1    1    2    0    0  0.72738151250E+03  0.20565618739E+02 -0.13515544149E+04  0.16703342038E+04  0.65864270000E+03 0.  1.
    8880022    1    1    2    0    0 -0.72738151250E+03 -0.20565618739E+02 -0.56645174426E+02  0.74572591359E+03  0.15294330000E+03 0.  0.
<mgrwt>
<rscale>  0 0.91568086E+03</rscale>
<asrwt>0</asrwt>
<pdfrwt beam="1">  1        2 0.29417382E+00 0.98148714E+03</pdfrwt>
<pdfrwt beam="2">  1       -2 0.77527734E-01 0.98148714E+03</pdfrwt>
<totfact> 0.11125321E+01</totfact>
</mgrwt>
</event>
<event>
 4    2  0.2930016E-007  0.6641610E+03  0.7818608E-02  0.1020248E+00
          2   -1    0    0  501    0  0.00000000000E+00  0.00000000000E+00  0.22793786516E+04  0.22793786516E+04  0.25500000000E-02 0. -1.
         -2   -1    0    0    0  501 -0.00000000000E+00 -0.00000000000E+00 -0.14122637487E+03  0.14122637489E+03  0.25500000000E-02 0.  1.
    8880023    1    1    2    0    0  0.65042058975E+02 -0.55399575442E+02  0.21448110919E+04  0.22452893819E+04  0.65864270000E+03 0. -1.
    8880022    1    1    2    0    0 -0.65042058975E+02  0.55399575442E+02 -0.66588151693E+01  0.17531564457E+03  0.15294330000E+03 0.  0.
<mgrwt>
<rscale>  0 0.47597244E+03</rscale>
<asrwt>0</asrwt>
<pdfrwt beam="1">  1        2 0.35067365E+00 0.66416097E+03</pdfrwt>
<pdfrwt beam="2">  1       -2 0.21727134E-01 0.66416097E+03</pdfrwt>
<totfact> 0.89623853E+01</totfact>
</mgrwt>
</event>
<event>
 4    2  0.2930016E-007  0.9465055E+03  0.7818608E-02  0.9455160E-01
         -2   -1    0    0    0  501 -0.00000000000E+00  0.00000000000E+00  0.38394644000E+03  0.38394644001E+03  0.25500000000E-02 0.  1.
          2   -1    0    0  501    0  0.00000000000E+00 -0.00000000000E+00 -0.31609953506E+04  0.31609953506E+04  0.25500000000E-02 0. -1.
    8880023    1    1    2    0    0 -0.14938328529E+03  0.66313427691E+03 -0.33277139603E+03  0.10032992791E+04  0.65864270000E+03 0.  0.
    8880022    1    1    2    0    0  0.14938328529E+03 -0.66313427691E+03 -0.24442775146E+04  0.25416425116E+04  0.15294330000E+03 0.  0.
<mgrwt>
<rscale>  0 0.87671992E+03</rscale>
<asrwt>0</asrwt>
<pdfrwt beam="1">  1        2 0.48630696E+00 0.94650549E+03</pdfrwt>
<pdfrwt beam="2">  1       -2 0.59068685E-01 0.94650549E+03</pdfrwt>
<totfact> 0.38107328E+00</totfact>
</mgrwt>
</event>
<event>
 4    2  0.2930016E-007  0.7992391E+03  0.7818608E-02  0.9712444E-01
          2   -1    0    0  501    0  0.00000000000E+00  0.00000000000E+00  0.24727872303E+04  0.24727872303E+04  0.25500000000E-02 0. -1.
         -2   -1    0    0    0  501 -0.00000000000E+00 -0.00000000000E+00 -0.42996859843E+03  0.42996859844E+03  0.25500000000E-02 0.  1.
    8880023    1    1    2    0    0  0.34547005239E+03 -0.29261476362E+03  0.22456346841E+04  0.23836229353E+04  0.65864270000E+03 0.  0.
    8880022    1    1    2    0    0 -0.34547005239E+03  0.29261476362E+03 -0.20281605224E+03  0.51913289344E+03  0.15294330000E+03 0.  0.
<mgrwt>
<rscale>  0 0.70280711E+03</rscale>
<asrwt>0</asrwt>
<pdfrwt beam="1">  1        2 0.38042880E+00 0.79923912E+03</pdfrwt>
<pdfrwt beam="2">  1       -2 0.66149016E-01 0.79923912E+03</pdfrwt>
<totfact> 0.78911756E+00</totfact>
</mgrwt>
</event>
<event>
 4    2  0.2930016E-007  0.7924436E+03  0.7818608E-02  0.9727379E-01
         -2   -1    0    0    0  501 -0.00000000000E+00  0.00000000000E+00  0.69351645659E+03  0.69351645660E+03  0.25500000000E-02 0.  1.
          2   -1    0    0  501    0  0.00000000000E+00 -0.00000000000E+00 -0.16753975092E+04  0.16753975092E+04  0.25500000000E-02 0. -1.
    8880023    1    1    2    0    0 -0.36466674580E+03 -0.24733530257E+03 -0.14847810049E+04  0.16830155751E+04  0.65864270000E+03 0. -1.
    8880022    1    1    2    0    0  0.36466674580E+03  0.24733530257E+03  0.50289995225E+03  0.68589839071E+03  0.15294330000E+03 0.  0.
<mgrwt>
<rscale>  0 0.69409785E+03</rscale>
<asrwt>0</asrwt>
<pdfrwt beam="1">  1        2 0.25775346E+00 0.79244356E+03</pdfrwt>
<pdfrwt beam="2">  1       -2 0.10669484E+00 0.79244356E+03</pdfrwt>
<totfact> 0.73175307E+00</totfact>
</mgrwt>
</event>
<event>
 4    2  0.2930016E-007  0.7120026E+03  0.7818608E-02  0.9950638E-01
          2   -1    0    0  501    0  0.00000000000E+00  0.00000000000E+00  0.91673002488E+03  0.91673002489E+03  0.25500000000E-02 0. -1.
         -2   -1    0    0    0  501 -0.00000000000E+00 -0.00000000000E+00 -0.59926768899E+03  0.59926768899E+03  0.25500000000E-02 0.  1.
    8880023    1    1    2    0    0 -0.15768783681E+03  0.21970909136E+03  0.71660768975E+03  0.10101852929E+04  0.65864270000E+03 0.  0.
    8880022    1    1    2    0    0  0.15768783681E+03 -0.21970909136E+03 -0.39914535385E+03  0.50581242099E+03  0.15294330000E+03 0.  0.
<mgrwt>
<rscale>  0 0.57868674E+03</rscale>
<asrwt>0</asrwt>
<pdfrwt beam="1">  1        2 0.14103539E+00 0.71200263E+03</pdfrwt>
<pdfrwt beam="2">  1       -2 0.92195029E-01 0.71200263E+03</pdfrwt>
<totfact> 0.29096403E+01</totfact>
</mgrwt>
</event>
<event>
 4    2  0.2930016E-007  0.7919495E+03  0.7818608E-02  0.9728481E-01
         -2   -1    0    0    0  501 -0.00000000000E+00  0.00000000000E+00  0.64417282440E+03  0.64417282441E+03  0.25500000000E-02 0.  1.
          2   -1    0    0  501    0  0.00000000000E+00 -0.00000000000E+00 -0.13996800650E+04  0.13996800650E+04  0.25500000000E-02 0. -1.
    8880023    1    1    2    0    0  0.25317116726E+03 -0.35955269303E+03 -0.11751279264E+04  0.14170778485E+04  0.65864270000E+03 0. -1.
    8880022    1    1    2    0    0 -0.25317116726E+03  0.35955269303E+03  0.41962068579E+03  0.62677504094E+03  0.15294330000E+03 0.  0.
<mgrwt>
<rscale>  0 0.69346072E+03</rscale>
<asrwt>0</asrwt>
<pdfrwt beam="1">  1        2 0.21533539E+00 0.79194948E+03</pdfrwt>
<pdfrwt beam="2">  1       -2 0.99103512E-01 0.79194948E+03</pdfrwt>
<totfact> 0.12427665E+01</totfact>
</mgrwt>
</event>
<event>
 4    2  0.2930016E-007  0.8183782E+03  0.7818608E-02  0.9672383E-01
          2   -1    0    0  501    0  0.00000000000E+00  0.00000000000E+00  0.18894056246E+04  0.18894056246E+04  0.25500000000E-02 0. -1.
         -2   -1    0    0    0  501 -0.00000000000E+00 -0.00000000000E+00 -0.52731649242E+03  0.52731649243E+03  0.25500000000E-02 0.  1.
    8880023    1    1    2    0    0  0.43251258768E+02  0.48379953093E+03  0.16427142972E+04  0.18352801219E+04  0.65864270000E+03 0. -1.
    8880022    1    1    2    0    0 -0.43251258768E+02 -0.48379953093E+03 -0.28062516494E+03  0.58144199515E+03  0.15294330000E+03 0.  0.
<mgrwt>
<rscale>  0 0.72685192E+03</rscale>
<asrwt>0</asrwt>
<pdfrwt beam="1">  1        2 0.29067779E+00 0.81837819E+03</pdfrwt>
<pdfrwt beam="2">  1       -2 0.81125614E-01 0.81837819E+03</pdfrwt>
<totfact> 0.10545193E+01</totfact>
</mgrwt>
</event>
<event>
 4    2  0.2930016E-007  0.7934268E+03  0.7818608E-02  0.9725193E-01
          2   -1    0    0  501    0  0.00000000000E+00  0.00000000000E+00  0.10194202055E+04  0.10194202055E+04  0.25500000000E-02 0. -1.
         -2   -1    0    0    0  501 -0.00000000000E+00 -0.00000000000E+00 -0.66864490916E+03  0.66864490916E+03  0.25500000000E-02 0.  1.
    8880023    1    1    2    0    0 -0.43767863592E+03  0.64445603729E+02  0.73570549597E+03  0.10820298551E+04  0.65864270000E+03 0. -1.
    8880022    1    1    2    0    0  0.43767863592E+03 -0.64445603729E+02 -0.38493019968E+03  0.60603525955E+03  0.15294330000E+03 0.  0.
<mgrwt>
<rscale>  0 0.69536413E+03</rscale>
<asrwt>0</asrwt>
<pdfrwt beam="1">  1        2 0.15683388E+00 0.79342676E+03</pdfrwt>
<pdfrwt beam="2">  1       -2 0.10286845E+00 0.79342676E+03</pdfrwt>
<totfact> 0.19130948E+01</totfact>
</mgrwt>
</event>
<event>
 4    2  0.2930016E-007  0.7352469E+03  0.7818608E-02  0.9874015E-01
         -2   -1    0    0    0  501 -0.00000000000E+00  0.00000000000E+00  0.24933087985E+03  0.24933087986E+03  0.25500000000E-02 0.  1.
          2   -1    0    0  501    0  0.00000000000E+00 -0.00000000000E+00 -0.21189603634E+04  0.21189603634E+04  0.25500000000E-02 0. -1.
    8880023    1    1    2    0    0 -0.17184675947E+03 -0.27793244309E+03 -0.18680093111E+04  0.20074976324E+04  0.65864270000E+03 0.  0.
    8880022    1    1    2    0    0  0.17184675947E+03  0.27793244309E+03 -0.16201724958E+01  0.36079361086E+03  0.15294330000E+03 0.  0.
<mgrwt>
<rscale>  0 0.61537309E+03</rscale>
<asrwt>0</asrwt>
<pdfrwt beam="1">  1        2 0.32599389E+00 0.73524687E+03</pdfrwt>
<pdfrwt beam="2">  1       -2 0.38358598E-01 0.73524687E+03</pdfrwt>
<totfact> 0.38118458E+01</totfact>
</mgrwt>
</event>
<event>
 4    2  0.2930016E-007  0.9594064E+03  0.7818608E-02  0.9436708E-01
          2   -1    0    0  501    0  0.00000000000E+00  0.00000000000E+00  0.35390500461E+04  0.35390500461E+04  0.25500000000E-02 0. -1.
         -2   -1    0    0    0  501 -0.00000000000E+00 -0.00000000000E+00 -0.25857580729E+03  0.25857580731E+03  0.25500000000E-02 0.  1.
    8880023    1    1    2    0    0  0.58383075964E+03 -0.38182724459E+03  0.27367058790E+04  0.29000033923E+04  0.65864270000E+03 0. -1.
    8880022    1    1    2    0    0 -0.58383075964E+03  0.38182724459E+03  0.54376835976E+03  0.89762246112E+03  0.15294330000E+03 0.  1.
<mgrwt>
<rscale>  0 0.89115388E+03</rscale>
<asrwt>0</asrwt>
<pdfrwt beam="1">  1        2 0.54446922E+00 0.95940638E+03</pdfrwt>
<pdfrwt beam="2">  1       -2 0.39780894E-01 0.95940638E+03</pdfrwt>
<totfact> 0.47669091E+00</totfact>
</mgrwt>
</event>
<event>
 4    2  0.2930016E-007  0.9343994E+03  0.7818608E-02  0.9472924E-01
         -2   -1    0    0    0  501 -0.00000000000E+00  0.00000000000E+00  0.53649314905E+03  0.53649314905E+03  0.25500000000E-02 0.  1.
          2   -1    0    0  501    0  0.00000000000E+00 -0.00000000000E+00 -0.29238313875E+04  0.29238313875E+04  0.25500000000E-02 0. -1.
    8880023    1    1    2    0    0 -0.34634941950E+03 -0.56509648681E+03 -0.25876882793E+04  0.27512238726E+04  0.65864270000E+03 0. -1.
    8880022    1    1    2    0    0  0.34634941950E+03  0.56509648681E+03  0.20035004086E+03  0.70910066400E+03  0.15294330000E+03 0.  0.
<mgrwt>
<rscale>  0 0.86309761E+03</rscale>
<asrwt>0</asrwt>
<pdfrwt beam="1">  1        2 0.44982020E+00 0.93439936E+03</pdfrwt>
<pdfrwt beam="2">  1       -2 0.82537409E-01 0.93439936E+03</pdfrwt>
<totfact> 0.25759110E+00</totfact>
</mgrwt>
</event>
<event>
 4    2  0.2930016E-007  0.6865194E+03  0.7818608E-02  0.1005853E+00
          2   -1    0    0  501    0  0.00000000000E+00  0.00000000000E+00  0.79221638308E+03  0.79221638308E+03  0.25500000000E-02 0. -1.
         -2   -1    0    0    0  501 -0.00000000000E+00 -0.00000000000E+00 -0.42018097555E+03  0.42018097556E+03  0.25500000000E-02 0.  1.
    8880023    1    1    2    0    0  0.38455560888E+02  0.18978881989E+03  0.57294662754E+03  0.89419051135E+03  0.65864270000E+03 0.  0.
    8880022    1    1    2    0    0 -0.38455560888E+02 -0.18978881989E+03 -0.20091122001E+03  0.31820684729E+03  0.15294330000E+03 0.  1.
<mgrwt>
<rscale>  0 0.53156709E+03</rscale>
<asrwt>0</asrwt>
<pdfrwt beam="1">  1        2 0.12187944E+00 0.68651936E+03</pdfrwt>
<pdfrwt beam="2">  1       -2 0.64643227E-01 0.68651936E+03</pdfrwt>
<totfact> 0.78451672E+01</totfact>
</mgrwt>
</event>
<event>
 4    2  0.2930016E-007  0.9169563E+03  0.7818608E-02  0.9499342E-01
         -2   -1    0    0    0  501 -0.00000000000E+00  0.00000000000E+00  0.36492952751E+03  0.36492952752E+03  0.25500000000E-02 0.  1.
          2   -1    0    0  501    0  0.00000000000E+00 -0.00000000000E+00 -0.20037935899E+04  0.20037935899E+04  0.25500000000E-02 0. -1.
    8880023    1    1    2    0    0  0.26821106585E+03  0.57884501872E+03 -0.13938523033E+04  0.16684223630E+04  0.65864270000E+03 0.  0.
    8880022    1    1    2    0    0 -0.26821106585E+03 -0.57884501872E+03 -0.24501175901E+03  0.70030075440E+03  0.15294330000E+03 0.  0.
<mgrwt>
<rscale>  0 0.84332372E+03</rscale>
<asrwt>0</asrwt>
<pdfrwt beam="1">  1        2 0.30827593E+00 0.91695634E+03</pdfrwt>
<pdfrwt beam="2">  1       -2 0.56143005E-01 0.91695634E+03</pdfrwt>
<totfact> 0.20057140E+01</totfact>
</mgrwt>
</event>
<event>
 4    2  0.2930016E-007  0.8635891E+03  0.7818608E-02  0.9587211E-01
         -2   -1    0    0    0  501 -0.00000000000E+00  0.00000000000E+00  0.41975294815E+03  0.41975294816E+03  0.25500000000E-02 0.  1.
          2   -1    0    0  501    0  0.00000000000E+00 -0.00000000000E+00 -0.33075590553E+04  0.33075590553E+04  0.25500000000E-02 0. -1.
    8880023    1    1    2    0    0  0.55724153460E+03 -0.38182055744E+02 -0.30134312202E+04  0.31347334692E+04  0.65864270000E+03 0.  0.
    8880022    1    1    2    0    0 -0.55724153460E+03  0.38182055744E+02  0.12562511309E+03  0.59257853430E+03  0.15294330000E+03 0.  0.
<mgrwt>
<rscale>  0 0.78148478E+03</rscale>
<asrwt>0</asrwt>
<pdfrwt beam="1">  1        2 0.50885522E+00 0.86358914E+03</pdfrwt>
<pdfrwt beam="2">  1       -2 0.64577379E-01 0.86358914E+03</pdfrwt>
<totfact> 0.25711149E+00</totfact>
</mgrwt>
</event>
<event>
 4    2  0.2930016E-007  0.6829789E+03  0.7818608E-02  0.1007686E+00
          2   -1    0    0  501    0  0.00000000000E+00  0.00000000000E+00  0.18379721311E+04  0.18379721311E+04  0.25500000000E-02 0. -1.
         -2   -1    0    0    0  501 -0.00000000000E+00 -0.00000000000E+00 -0.52861215784E+03  0.52861215784E+03  0.25500000000E-02 0.  1.
    8880023    1    1    2    0    0 -0.48035077260E+02  0.17419111634E+03  0.17432769877E+04  0.18722913170E+04  0.65864270000E+03 0. -1.
    8880022    1    1    2    0    0  0.48035077260E+02 -0.17419111634E+03 -0.43391701444E+03  0.49429297192E+03  0.15294330000E+03 0.  0.
<mgrwt>
<rscale>  0 0.52404578E+03</rscale>
<asrwt>0</asrwt>
<pdfrwt beam="1">  1        2 0.28276494E+00 0.68297886E+03</pdfrwt>
<pdfrwt beam="2">  1       -2 0.81324948E-01 0.68297886E+03</pdfrwt>
<totfact> 0.11409205E+01</totfact>
</mgrwt>
</event>
<event>
 4    2  0.2930016E-007  0.9315457E+03  0.7818608E-02  0.9477178E-01
         -2   -1    0    0    0  501 -0.00000000000E+00  0.00000000000E+00  0.10858432463E+04  0.10858432463E+04  0.25500000000E-02 0.  1.
          2   -1    0    0  501    0  0.00000000000E+00 -0.00000000000E+00 -0.16571433053E+04  0.16571433053E+04  0.25500000000E-02 0. -1.
    8880023    1    1    2    0    0  0.55367189937E+03  0.35695189905E+03 -0.13948685743E+04  0.16773299545E+04  0.65864270000E+03 0. -1.
    8880022    1    1    2    0    0 -0.55367189937E+03 -0.35695189905E+03  0.82356851530E+03  0.10656565970E+04  0.15294330000E+03 0.  0.
<mgrwt>
<rscale>  0 0.85987490E+03</rscale>
<asrwt>0</asrwt>
<pdfrwt beam="1">  1        2 0.25494512E+00 0.93154572E+03</pdfrwt>
<pdfrwt beam="2">  1       -2 0.16705281E+00 0.93154572E+03</pdfrwt>
<totfact> 0.23249554E+00</totfact>
</mgrwt>
</event>
<event>
 4    2  0.2930016E-007  0.9866105E+03  0.7818608E-02  0.9399289E-01
          2   -1    0    0  501    0  0.00000000000E+00  0.00000000000E+00  0.19615098628E+04  0.19615098628E+04  0.25500000000E-02 0. -1.
         -2   -1    0    0    0  501 -0.00000000000E+00 -0.00000000000E+00 -0.41970895296E+03  0.41970895296E+03  0.25500000000E-02 0.  1.
    8880023    1    1    2    0    0 -0.63806382497E+03 -0.36395702532E+03  0.52515177528E+03  0.11176693403E+04  0.65864270000E+03 0.  0.
    8880022    1    1    2    0    0  0.63806382497E+03  0.36395702532E+03  0.10166491346E+04  0.12635494755E+04  0.15294330000E+03 0.  0.
<mgrwt>
<rscale>  0 0.92134251E+03</rscale>
<asrwt>0</asrwt>
<pdfrwt beam="1">  1        2 0.30177076E+00 0.98661054E+03</pdfrwt>
<pdfrwt beam="2">  1       -2 0.64570607E-01 0.98661054E+03</pdfrwt>
<totfact> 0.15609667E+01</totfact>
</mgrwt>
</event>
<event>
 4    2  0.2930016E-007  0.7425237E+03  0.7818608E-02  0.9852656E-01
         -2   -1    0    0    0  501 -0.00000000000E+00  0.00000000000E+00  0.66318991938E+03  0.66318991939E+03  0.25500000000E-02 0.  1.
          2   -1    0    0  501    0  0.00000000000E+00 -0.00000000000E+00 -0.72690966208E+03  0.72690966208E+03  0.25500000000E-02 0. -1.
    8880023    1    1    2    0    0  0.89608315230E+02  0.33091027241E+03 -0.43628056410E+03  0.86120972790E+03  0.65864270000E+03 0. -1.
    8880022    1    1    2    0    0 -0.89608315230E+02 -0.33091027241E+03  0.37256082141E+03  0.52888985357E+03  0.15294330000E+03 0.  0.
<mgrwt>
<rscale>  0 0.62611693E+03</rscale>
<asrwt>0</asrwt>
<pdfrwt beam="1">  1        2 0.11183226E+00 0.74252371E+03</pdfrwt>
<pdfrwt beam="2">  1       -2 0.10202922E+00 0.74252371E+03</pdfrwt>
<totfact> 0.31182240E+01</totfact>
</mgrwt>
</event>
<event>
 4    2  0.2930016E-007  0.8910026E+03  0.7818608E-02  0.9540632E-01
         -2   -1    0    0    0  501 -0.00000000000E+00  0.00000000000E+00  0.81438787720E+03  0.81438787721E+03  0.25500000000E-02 0.  1.
          2   -1    0    0  501    0  0.00000000000E+00 -0.00000000000E+00 -0.12090616524E+04  0.12090616524E+04  0.25500000000E-02 0. -1.
    8880023    1    1    2    0    0 -0.42471286468E+03 -0.42390374927E+03 -0.86808780642E+03  0.12439702778E+04  0.65864270000E+03 0.  0.
    8880022    1    1    2    0    0  0.42471286468E+03  0.42390374927E+03  0.47341403122E+03  0.77947925184E+03  0.15294330000E+03 0.  0.
<mgrwt>
<rscale>  0 0.81353311E+03</rscale>
<asrwt>0</asrwt>
<pdfrwt beam="1">  1        2 0.18600948E+00 0.89100259E+03</pdfrwt>
<pdfrwt beam="2">  1       -2 0.12529044E+00 0.89100259E+03</pdfrwt>
<totfact> 0.89472552E+00</totfact>
</mgrwt>
</event>
<event>
 4    2  0.2930016E-007  0.9090754E+03  0.7818608E-02  0.9511617E-01
          2   -1    0    0  501    0  0.00000000000E+00  0.00000000000E+00  0.13697890755E+04  0.13697890755E+04  0.25500000000E-02 0. -1.
         -2   -1    0    0    0  501 -0.00000000000E+00 -0.00000000000E+00 -0.98694918783E+03  0.98694918783E+03  0.25500000000E-02 0.  1.
    8880023    1    1    2    0    0  0.15428423037E+03 -0.60729256450E+03  0.10768706584E+04  0.14092794272E+04  0.65864270000E+03 0.  0.
    8880022    1    1    2    0    0 -0.15428423037E+03  0.60729256450E+03 -0.69403077069E+03  0.94745883621E+03  0.15294330000E+03 0.  0.
<mgrwt>
<rscale>  0 0.83432746E+03</rscale>
<asrwt>0</asrwt>
<pdfrwt beam="1">  1        2 0.21073678E+00 0.90907540E+03</pdfrwt>
<pdfrwt beam="2">  1       -2 0.15183834E+00 0.90907540E+03</pdfrwt>
<totfact> 0.43795360E+00</totfact>
</mgrwt>
</event>
<event>
 4    2  0.2930016E-007  0.7517135E+03  0.7818608E-02  0.9827053E-01
         -2   -1    0    0    0  501 -0.00000000000E+00  0.00000000000E+00  0.52239070152E+03  0.52239070152E+03  0.25500000000E-02 0.  1.
          2   -1    0    0  501    0  0.00000000000E+00 -0.00000000000E+00 -0.12298688568E+04  0.12298688568E+04  0.25500000000E-02 0. -1.
    8880023    1    1    2    0    0 -0.10987870363E+03 -0.34523857869E+03 -0.10079178799E+04  0.12573669570E+04  0.65864270000E+03 0. -1.
    8880022    1    1    2    0    0  0.10987870363E+03  0.34523857869E+03  0.30043972459E+03  0.49489260133E+03  0.15294330000E+03 0.  1.
<mgrwt>
<rscale>  0 0.63930727E+03</rscale>
<asrwt>0</asrwt>
<pdfrwt beam="1">  1        2 0.18921059E+00 0.75171352E+03</pdfrwt>
<pdfrwt beam="2">  1       -2 0.80367801E-01 0.75171352E+03</pdfrwt>
<totfact> 0.25347144E+01</totfact>
</mgrwt>
</event>
<event>
 4    2  0.2930016E-007  0.7013948E+03  0.7818608E-02  0.9991464E-01
          2   -1    0    0  501    0  0.00000000000E+00  0.00000000000E+00  0.21328583974E+04  0.21328583974E+04  0.25500000000E-02 0. -1.
         -2   -1    0    0    0  501 -0.00000000000E+00 -0.00000000000E+00 -0.86454753556E+03  0.86454753556E+03  0.25500000000E-02 0.  1.
    8880023    1    1    2    0    0  0.19149121140E+03  0.14654543672E+03  0.20492185060E+04  0.21659296250E+04  0.65864270000E+03 0. -1.
    8880022    1    1    2    0    0 -0.19149121140E+03 -0.14654543672E+03 -0.78090764411E+03  0.83147630796E+03  0.15294330000E+03 0.  0.
<mgrwt>
<rscale>  0 0.56026133E+03</rscale>
<asrwt>0</asrwt>
<pdfrwt beam="1">  1        2 0.32813206E+00 0.70139479E+03</pdfrwt>
<pdfrwt beam="2">  1       -2 0.13300731E+00 0.70139479E+03</pdfrwt>
<totfact> 0.24237997E+00</totfact>
</mgrwt>
</event>
<event>
 4    2  0.2930016E-007  0.9616372E+03  0.7818608E-02  0.9433565E-01
         -2   -1    0    0    0  501 -0.00000000000E+00  0.00000000000E+00  0.11379675385E+04  0.11379675386E+04  0.25500000000E-02 0.  1.
          2   -1    0    0  501    0  0.00000000000E+00 -0.00000000000E+00 -0.84925577777E+03  0.84925577777E+03  0.25500000000E-02 0. -1.
    8880023    1    1    2    0    0  0.58644339744E+03 -0.38343196644E+03 -0.35348513995E+03  0.10245476474E+04  0.65864270000E+03 0.  0.
    8880022    1    1    2    0    0 -0.58644339744E+03  0.38343196644E+03  0.64219690073E+03  0.96267566896E+03  0.15294330000E+03 0.  0.
<mgrwt>
<rscale>  0 0.89364170E+03</rscale>
<asrwt>0</asrwt>
<pdfrwt beam="1">  1        2 0.13065473E+00 0.96163722E+03</pdfrwt>
<pdfrwt beam="2">  1       -2 0.17507193E+00 0.96163722E+03</pdfrwt>
<totfact> 0.62071633E+00</totfact>
</mgrwt>
</event>
<event>
 4    2  0.2930016E-007  0.1258899E+04  0.7818608E-02  0.9101892E-01
          2   -1    0    0  501    0  0.00000000000E+00  0.00000000000E+00  0.30337248030E+04  0.30337248030E+04  0.25500000000E-02 0. -1.
         -2   -1    0    0    0  501 -0.00000000000E+00 -0.00000000000E+00 -0.49067314159E+03  0.49067314160E+03  0.25500000000E-02 0.  1.
    8880023    1    1    2    0    0 -0.49298771951E+02 -0.10717210154E+04  0.18511436026E+04  0.22386511893E+04  0.65864270000E+03 0.  0.
    8880022    1    1    2    0    0  0.49298771951E+02  0.10717210154E+04  0.69190805886E+03  0.12857467553E+04  0.15294330000E+03 0.  0.
<mgrwt>
<rscale>  0 0.12126083E+04</rscale>
<asrwt>0</asrwt>
<pdfrwt beam="1">  1        2 0.46672689E+00 0.12588989E+04</pdfrwt>
<pdfrwt beam="2">  1       -2 0.75488177E-01 0.12588989E+04</pdfrwt>
<totfact> 0.25774489E+00</totfact>
</mgrwt>
</event>
<event>
 4    2  0.2930016E-007  0.7235630E+03  0.7818608E-02  0.9910709E-01
          2   -1    0    0  501    0  0.00000000000E+00  0.00000000000E+00  0.10275786943E+04  0.10275786943E+04  0.25500000000E-02 0. -1.
         -2   -1    0    0    0  501 -0.00000000000E+00 -0.00000000000E+00 -0.28434391339E+03  0.28434391340E+03  0.25500000000E-02 0.  1.
    8880023    1    1    2    0    0 -0.29227539982E+03  0.65637455651E+02  0.62275299765E+03  0.95465422393E+03  0.65864270000E+03 0. -1.
    8880022    1    1    2    0    0  0.29227539982E+03 -0.65637455651E+02  0.12048178323E+03  0.35726838375E+03  0.15294330000E+03 0.  1.
<mgrwt>
<rscale>  0 0.59745060E+03</rscale>
<asrwt>0</asrwt>
<pdfrwt beam="1">  1        2 0.15808903E+00 0.72356298E+03</pdfrwt>
<pdfrwt beam="2">  1       -2 0.43745217E-01 0.72356298E+03</pdfrwt>
<totfact> 0.12162284E+02</totfact>
</mgrwt>
</event>
<event>
 4    2  0.2930016E-007  0.7051170E+03  0.7818608E-02  0.9976601E-01
          2   -1    0    0  501    0  0.00000000000E+00  0.00000000000E+00  0.36903492236E+04  0.36903492236E+04  0.25500000000E-02 0. -1.
         -2   -1    0    0    0  501 -0.00000000000E+00 -0.00000000000E+00 -0.32770890952E+03  0.32770890953E+03  0.25500000000E-02 0.  1.
    8880023    1    1    2    0    0  0.10324964048E+03  0.22960678747E+03  0.35820270556E+04  0.36507681108E+04  0.65864270000E+03 0.  0.
    8880022    1    1    2    0    0 -0.10324964048E+03 -0.22960678747E+03 -0.21938674157E+03  0.36729002233E+03  0.15294330000E+03 0.  0.
<mgrwt>
<rscale>  0 0.56688240E+03</rscale>
<asrwt>0</asrwt>
<pdfrwt beam="1">  1        2 0.56774600E+00 0.70511699E+03</pdfrwt>
<pdfrwt beam="2">  1       -2 0.50416758E-01 0.70511699E+03</pdfrwt>
<totfact> 0.24425249E+00</totfact>
</mgrwt>
</event>
<event>
 4    2  0.2930016E-007  0.9616727E+03  0.7818608E-02  0.9433515E-01
         -2   -1    0    0    0  501 -0.00000000000E+00  0.00000000000E+00  0.31106738894E+03  0.31106738895E+03  0.25500000000E-02 0.  1.
          2   -1    0    0  501    0  0.00000000000E+00 -0.00000000000E+00 -0.24745298236E+04  0.24745298236E+04  0.25500000000E-02 0. -1.
    8880023    1    1    2    0    0  0.66204428946E+03  0.22956802534E+03 -0.82488584225E+03  0.12669849954E+04  0.65864270000E+03 0.  0.
    8880022    1    1    2    0    0 -0.66204428946E+03 -0.22956802534E+03 -0.13385765924E+04  0.15186122172E+04  0.15294330000E+03 0.  0.
<mgrwt>
<rscale>  0 0.89368122E+03</rscale>
<asrwt>0</asrwt>
<pdfrwt beam="1">  1        2 0.38069688E+00 0.96167267E+03</pdfrwt>
<pdfrwt beam="2">  1       -2 0.47856523E-01 0.96167267E+03</pdfrwt>
<totfact> 0.15142635E+01</totfact>
</mgrwt>
</event>
<event>
 4    2  0.2930016E-007  0.6594749E+03  0.7818608E-02  0.1024701E+00
          2   -1    0    0  501    0  0.00000000000E+00  0.00000000000E+00  0.20748185004E+04  0.20748185004E+04  0.25500000000E-02 0. -1.
         -2   -1    0    0    0  501 -0.00000000000E+00 -0.00000000000E+00 -0.38399563808E+03  0.38399563809E+03  0.25500000000E-02 0.  1.
    8880023    1    1    2    0    0  0.10402374435E+02 -0.31444660442E+02  0.20034551266E+04  0.21092035527E+04  0.65864270000E+03 0. -1.
    8880022    1    1    2    0    0 -0.10402374435E+02  0.31444660442E+02 -0.31263226425E+03  0.34961058584E+03  0.15294330000E+03 0.  0.
<mgrwt>
<rscale>  0 0.46027700E+03</rscale>
<asrwt>0</asrwt>
<pdfrwt beam="1">  1        2 0.31920285E+00 0.65947493E+03</pdfrwt>
<pdfrwt beam="2">  1       -2 0.59076252E-01 0.65947493E+03</pdfrwt>
<totfact> 0.17067847E+01</totfact>
</mgrwt>
</event>
<event>
 4    2  0.2930016E-007  0.8182015E+03  0.7818608E-02  0.9672740E-01
          2   -1    0    0  501    0  0.00000000000E+00  0.00000000000E+00  0.15879528572E+04  0.15879528572E+04  0.25500000000E-02 0. -1.
         -2   -1    0    0    0  501 -0.00000000000E+00 -0.00000000000E+00 -0.36587035836E+03  0.36587035837E+03  0.25500000000E-02 0.  1.
    8880023    1    1    2    0    0  0.25230603519E+03  0.41471090472E+03  0.11896233606E+04  0.14438342759E+04  0.65864270000E+03 0. -1.
    8880022    1    1    2    0    0 -0.25230603519E+03 -0.41471090472E+03  0.32459138183E+02  0.50998893963E+03  0.15294330000E+03 0.  0.
<mgrwt>
<rscale>  0 0.72663286E+03</rscale>
<asrwt>0</asrwt>
<pdfrwt beam="1">  1        2 0.24430044E+00 0.81820149E+03</pdfrwt>
<pdfrwt beam="2">  1       -2 0.56287748E-01 0.81820149E+03</pdfrwt>
<totfact> 0.34116189E+01</totfact>
</mgrwt>
</event>
<event>
 4    2  0.2930016E-007  0.1258568E+04  0.7818608E-02  0.9102191E-01
         -2   -1    0    0    0  501 -0.00000000000E+00  0.00000000000E+00  0.14715444518E+04  0.14715444518E+04  0.25500000000E-02 0.  1.
          2   -1    0    0  501    0  0.00000000000E+00 -0.00000000000E+00 -0.11679249036E+04  0.11679249036E+04  0.25500000000E-02 0. -1.
    8880023    1    1    2    0    0  0.35032500508E+03  0.10136352286E+04 -0.43127035705E+03  0.13304090773E+04  0.65864270000E+03 0.  0.
    8880022    1    1    2    0    0 -0.35032500508E+03 -0.10136352286E+04  0.73488990527E+03  0.13090602781E+04  0.15294330000E+03 0.  0.
<mgrwt>
<rscale>  0 0.12122620E+04</rscale>
<asrwt>0</asrwt>
<pdfrwt beam="1">  1        2 0.17968075E+00 0.12585683E+04</pdfrwt>
<pdfrwt beam="2">  1       -2 0.22639145E+00 0.12585683E+04</pdfrwt>
<totfact> 0.17227270E+00</totfact>
</mgrwt>
</event>
<event>
 4    2  0.2930016E-007  0.6839948E+03  0.7818608E-02  0.1007149E+00
         -2   -1    0    0    0  501 -0.00000000000E+00  0.00000000000E+00  0.13366951050E+04  0.13366951050E+04  0.25500000000E-02 0.  1.
          2   -1    0    0  501    0  0.00000000000E+00 -0.00000000000E+00 -0.40852169555E+03  0.40852169556E+03  0.25500000000E-02 0. -1.
    8880023    1    1    2    0    0  0.14915668190E+03 -0.10858615871E+03 -0.98405452305E+02  0.69103727029E+03  0.65864270000E+03 0. -1.
    8880022    1    1    2    0    0 -0.14915668190E+03  0.10858615871E+03  0.10265788617E+04  0.10541795302E+04  0.15294330000E+03 0.  0.
<mgrwt>
<rscale>  0 0.52623806E+03</rscale>
<asrwt>0</asrwt>
<pdfrwt beam="1">  1        2 0.62849493E-01 0.68399479E+03</pdfrwt>
<pdfrwt beam="2">  1       -2 0.20564540E+00 0.68399479E+03</pdfrwt>
<totfact> 0.97421256E+00</totfact>
</mgrwt>
</event>
<event>
 4    2  0.2930016E-007  0.6625261E+03  0.7818608E-02  0.1021706E+00
          2   -1    0    0  501    0  0.00000000000E+00  0.00000000000E+00  0.77447717790E+02  0.77447717832E+02  0.25500000000E-02 0. -1.
         -2   -1    0    0    0  501 -0.00000000000E+00 -0.00000000000E+00 -0.35486957623E+04  0.35486957623E+04  0.25500000000E-02 0.  1.
    8880023    1    1    2    0    0 -0.69282940729E+02  0.18178927860E+02 -0.14089957009E+04  0.15569873766E+04  0.65864270000E+03 0. -1.
    8880022    1    1    2    0    0  0.69282940729E+02 -0.18178927860E+02 -0.20622523436E+04  0.20691561036E+04  0.15294330000E+03 0.  0.
<mgrwt>
<rscale>  0 0.47076071E+03</rscale>
<asrwt>0</asrwt>
<pdfrwt beam="1">  1        2 0.11915036E-01 0.66252608E+03</pdfrwt>
<pdfrwt beam="2">  1       -2 0.54595307E+00 0.66252608E+03</pdfrwt>
<totfact> 0.50186599E-01</totfact>
</mgrwt>
</event>
<event>
 4    2  0.2930016E-007  0.6698689E+03  0.7818608E-02  0.1015757E+00
         -2   -1    0    0    0  501 -0.00000000000E+00  0.00000000000E+00  0.60878952599E+03  0.60878952600E+03  0.25500000000E-02 0.  1.
          2   -1    0    0  501    0  0.00000000000E+00 -0.00000000000E+00 -0.80664027206E+03  0.80664027207E+03  0.25500000000E-02 0. -1.
    8880023    1    1    2    0    0 -0.12194574469E+03 -0.65837931285E+01 -0.64338658307E+03  0.92880063120E+03  0.65864270000E+03 0.  0.
    8880022    1    1    2    0    0  0.12194574469E+03  0.65837931285E+01  0.44553583700E+03  0.48662916687E+03  0.15294330000E+03 0.  1.
<mgrwt>
<rscale>  0 0.49249335E+03</rscale>
<asrwt>0</asrwt>
<pdfrwt beam="1">  1        2 0.12409850E+00 0.66986888E+03</pdfrwt>
<pdfrwt beam="2">  1       -2 0.93659927E-01 0.66986888E+03</pdfrwt>
<totfact> 0.33533450E+01</totfact>
</mgrwt>
</event>
<event>
 4    2  0.2930016E-007  0.7805614E+03  0.7818608E-02  0.9754520E-01
          2   -1    0    0  501    0  0.00000000000E+00  0.00000000000E+00  0.16142339190E+04  0.16142339190E+04  0.25500000000E-02 0. -1.
         -2   -1    0    0    0  501 -0.00000000000E+00 -0.00000000000E+00 -0.48528169655E+03  0.48528169656E+03  0.25500000000E-02 0.  1.
    8880023    1    1    2    0    0 -0.37122258783E+02 -0.41723824805E+03  0.13816980849E+04  0.15869359224E+04  0.65864270000E+03 0. -1.
    8880022    1    1    2    0    0  0.37122258783E+02  0.41723824805E+03 -0.25274586252E+03  0.51257969309E+03  0.15294330000E+03 0.  0.
<mgrwt>
<rscale>  0 0.67861432E+03</rscale>
<asrwt>0</asrwt>
<pdfrwt beam="1">  1        2 0.24834368E+00 0.78056135E+03</pdfrwt>
<pdfrwt beam="2">  1       -2 0.74658724E-01 0.78056135E+03</pdfrwt>
<totfact> 0.18055683E+01</totfact>
</mgrwt>
</event>
<event>
 4    2  0.2930016E-007  0.8715280E+03  0.7818608E-02  0.9573377E-01
          2   -1    0    0  501    0  0.00000000000E+00  0.00000000000E+00  0.58855252332E+03  0.58855252333E+03  0.25500000000E-02 0. -1.
         -2   -1    0    0    0  501 -0.00000000000E+00 -0.00000000000E+00 -0.12660134916E+04  0.12660134916E+04  0.25500000000E-02 0.  1.
    8880023    1    1    2    0    0  0.55544160302E+03  0.13128419816E+03 -0.87162916912E+03  0.12325982840E+04  0.65864270000E+03 0.  0.
    8880022    1    1    2    0    0 -0.55544160302E+03 -0.13128419816E+03  0.19416820085E+03  0.62196773091E+03  0.15294330000E+03 0.  0.
<mgrwt>
<rscale>  0 0.79083589E+03</rscale>
<asrwt>0</asrwt>
<pdfrwt beam="1">  1        2 0.90546542E-01 0.87152804E+03</pdfrwt>
<pdfrwt beam="2">  1       -2 0.19477131E+00 0.87152804E+03</pdfrwt>
<totfact> 0.73554871E+00</totfact>
</mgrwt>
</event>
<event>
 4    2  0.2930016E-007  0.1137314E+04  0.7818608E-02  0.9220606E-01
         -2   -1    0    0    0  501 -0.00000000000E+00  0.00000000000E+00  0.25966049591E+04  0.25966049591E+04  0.25500000000E-02 0.  1.
          2   -1    0    0  501    0  0.00000000000E+00 -0.00000000000E+00 -0.51864307705E+03  0.51864307706E+03  0.25500000000E-02 0. -1.
    8880023    1    1    2    0    0 -0.92683793420E+03  0.25370981874E+02  0.42555251083E+03  0.12143217814E+04  0.65864270000E+03 0.  0.
    8880022    1    1    2    0    0  0.92683793420E+03 -0.25370981874E+02  0.16524093712E+04  0.19009262548E+04  0.15294330000E+03 0.  0.
<mgrwt>
<rscale>  0 0.10843244E+04</rscale>
<asrwt>0</asrwt>
<pdfrwt beam="1">  1        2 0.79791244E-01 0.11373137E+04</pdfrwt>
<pdfrwt beam="2">  1       -2 0.39947768E+00 0.11373137E+04</pdfrwt>
<totfact> 0.44192244E-01</totfact>
</mgrwt>
</event>
<event>
 4    2  0.2930016E-007  0.6941172E+03  0.7818608E-02  0.1002254E+00
         -2   -1    0    0    0  501 -0.00000000000E+00  0.00000000000E+00  0.24741676450E+03  0.24741676451E+03  0.25500000000E-02 0.  1.
          2   -1    0    0  501    0  0.00000000000E+00 -0.00000000000E+00 -0.14308998987E+04  0.14308998987E+04  0.25500000000E-02 0. -1.
    8880023    1    1    2    0    0  0.18010426891E+03  0.12470314427E+03 -0.12249550510E+04  0.14079465562E+04  0.65864270000E+03 0. -1.
    8880022    1    1    2    0    0 -0.18010426891E+03 -0.12470314427E+03  0.41471916802E+02  0.27037010702E+03  0.15294330000E+03 0.  0.
<mgrwt>
<rscale>  0 0.54672850E+03</rscale>
<asrwt>0</asrwt>
<pdfrwt beam="1">  1        2 0.22013844E+00 0.69411716E+03</pdfrwt>
<pdfrwt beam="2">  1       -2 0.38064118E-01 0.69411716E+03</pdfrwt>
<totfact> 0.92627494E+01</totfact>
</mgrwt>
</event>
<event>
 4    2  0.2930016E-007  0.7045774E+03  0.7818608E-02  0.9978717E-01
         -2   -1    0    0    0  501 -0.00000000000E+00  0.00000000000E+00  0.32898167687E+03  0.32898167688E+03  0.25500000000E-02 0.  1.
          2   -1    0    0  501    0  0.00000000000E+00 -0.00000000000E+00 -0.91882432639E+03  0.91882432639E+03  0.25500000000E-02 0. -1.
    8880023    1    1    2    0    0 -0.10928908929E+03 -0.22511121897E+03 -0.63810833318E+03  0.95058488158E+03  0.65864270000E+03 0. -1.
    8880022    1    1    2    0    0  0.10928908929E+03  0.22511121897E+03  0.48265683660E+02  0.29722112169E+03  0.15294330000E+03 0.  0.
<mgrwt>
<rscale>  0 0.56593387E+03</rscale>
<asrwt>0</asrwt>
<pdfrwt beam="1">  1        2 0.14135759E+00 0.70457744E+03</pdfrwt>
<pdfrwt beam="2">  1       -2 0.50612566E-01 0.70457744E+03</pdfrwt>
<totfact> 0.10680128E+02</totfact>
</mgrwt>
</event>
<event>
 4    2  0.2930016E-007  0.1078555E+04  0.7818608E-02  0.9285316E-01
          2   -1    0    0  501    0  0.00000000000E+00  0.00000000000E+00  0.93700818994E+03  0.93700818994E+03  0.25500000000E-02 0. -1.
         -2   -1    0    0    0  501 -0.00000000000E+00 -0.00000000000E+00 -0.18313296091E+04  0.18313296091E+04  0.25500000000E-02 0.  1.
    8880023    1    1    2    0    0 -0.42570044666E+03 -0.74043946102E+03  0.44971547873E+03  0.11685570948E+04  0.65864270000E+03 0.  0.
    8880022    1    1    2    0    0  0.42570044666E+03  0.74043946102E+03 -0.13440368979E+04  0.15997807042E+04  0.15294330000E+03 0.  0.
<mgrwt>
<rscale>  0 0.10214599E+04</rscale>
<asrwt>0</asrwt>
<pdfrwt beam="1">  1        2 0.14415511E+00 0.10785554E+04</pdfrwt>
<pdfrwt beam="2">  1       -2 0.28174302E+00 0.10785554E+04</pdfrwt>
<totfact> 0.11279623E+00</totfact>
</mgrwt>
</event>
<event>
 4    2  0.2930016E-007  0.9772951E+03  0.7818608E-02  0.9411885E-01
          2   -1    0    0  501    0  0.00000000000E+00  0.00000000000E+00  0.37644126145E+04  0.37644126145E+04  0.25500000000E-02 0. -1.
         -2   -1    0    0    0  501 -0.00000000000E+00 -0.00000000000E+00 -0.20120798439E+03  0.20120798440E+03  0.25500000000E-02 0.  1.
    8880023    1    1    2    0    0  0.65059814764E+03  0.31307757411E+03  0.16894054270E+04  0.19517162756E+04  0.65864270000E+03 0. -1.
    8880022    1    1    2    0    0 -0.65059814764E+03 -0.31307757411E+03  0.18737992030E+04  0.20139043233E+04  0.15294330000E+03 0.  0.
<mgrwt>
<rscale>  0 0.91104050E+03</rscale>
<asrwt>0</asrwt>
<pdfrwt beam="1">  1        2 0.57914032E+00 0.97729511E+03</pdfrwt>
<pdfrwt beam="2">  1       -2 0.30955079E-01 0.97729511E+03</pdfrwt>
<totfact> 0.53002673E+00</totfact>
</mgrwt>
</event>
<event>
 4    2  0.2930016E-007  0.7582709E+03  0.7818608E-02  0.9809605E-01
         -2   -1    0    0    0  501 -0.00000000000E+00  0.00000000000E+00  0.20796822929E+03  0.20796822930E+03  0.25500000000E-02 0.  1.
          2   -1    0    0  501    0  0.00000000000E+00 -0.00000000000E+00 -0.19525382324E+04  0.19525382324E+04  0.25500000000E-02 0. -1.
    8880023    1    1    2    0    0  0.28462691975E+03  0.24525912389E+03 -0.15155719492E+04  0.16946778634E+04  0.65864270000E+03 0.  0.
    8880022    1    1    2    0    0 -0.28462691975E+03 -0.24525912389E+03 -0.22899805397E+03  0.46582859834E+03  0.15294330000E+03 0.  0.
<mgrwt>
<rscale>  0 0.64849638E+03</rscale>
<asrwt>0</asrwt>
<pdfrwt beam="1">  1        2 0.30039049E+00 0.75827088E+03</pdfrwt>
<pdfrwt beam="2">  1       -2 0.31995113E-01 0.75827088E+03</pdfrwt>
<totfact> 0.66213778E+01</totfact>
</mgrwt>
</event>
<event>
 4    2  0.2930016E-007  0.8749826E+03  0.7818608E-02  0.9567449E-01
         -2   -1    0    0    0  501 -0.00000000000E+00  0.00000000000E+00  0.43801512200E+03  0.43801512200E+03  0.25500000000E-02 0.  1.
          2   -1    0    0  501    0  0.00000000000E+00 -0.00000000000E+00 -0.20443620187E+04  0.20443620187E+04  0.25500000000E-02 0. -1.
    8880023    1    1    2    0    0  0.43576968866E+03 -0.37668163539E+03 -0.16676608374E+04  0.18832650241E+04  0.65864270000E+03 0.  0.
    8880022    1    1    2    0    0 -0.43576968866E+03  0.37668163539E+03  0.61313940683E+02  0.59911211666E+03  0.15294330000E+03 0.  0.
<mgrwt>
<rscale>  0 0.79488626E+03</rscale>
<asrwt>0</asrwt>
<pdfrwt beam="1">  1        2 0.31451723E+00 0.87498256E+03</pdfrwt>
<pdfrwt beam="2">  1       -2 0.67386943E-01 0.87498256E+03</pdfrwt>
<totfact> 0.12982415E+01</totfact>
</mgrwt>
</event>
<event>
 4    2  0.2930016E-007  0.6619012E+03  0.7818608E-02  0.1022288E+00
          2   -1    0    0  501    0  0.00000000000E+00  0.00000000000E+00  0.92685926216E+03  0.92685926217E+03  0.25500000000E-02 0. -1.
         -2   -1    0    0    0  501 -0.00000000000E+00 -0.00000000000E+00 -0.36601116041E+03  0.36601116042E+03  0.25500000000E-02 0.  1.
    8880023    1    1    2    0    0 -0.62778688739E+02  0.19022316432E+02  0.77659450631E+03  0.10203980820E+04  0.65864270000E+03 0. -1.
    8880022    1    1    2    0    0  0.62778688739E+02 -0.19022316432E+02 -0.21574640456E+03  0.27247234057E+03  0.15294330000E+03 0.  0.
<mgrwt>
<rscale>  0 0.46869940E+03</rscale>
<asrwt>0</asrwt>
<pdfrwt beam="1">  1        2 0.14259373E+00 0.66190122E+03</pdfrwt>
<pdfrwt beam="2">  1       -2 0.56309409E-01 0.66190122E+03</pdfrwt>
<totfact> 0.84975462E+01</totfact>
</mgrwt>
</event>
<event>
 4    2  0.2930016E-007  0.1381091E+04  0.7818608E-02  0.8998517E-01
          2   -1    0    0  501    0  0.00000000000E+00  0.00000000000E+00  0.91033542386E+03  0.91033542386E+03  0.25500000000E-02 0. -1.
         -2   -1    0    0    0  501 -0.00000000000E+00 -0.00000000000E+00 -0.21550976998E+04  0.21550976998E+04  0.25500000000E-02 0.  1.
    8880023    1    1    2    0    0  0.66632713859E+03 -0.10146971145E+04 -0.91590878173E+02  0.13841247000E+04  0.65864270000E+03 0.  0.
    8880022    1    1    2    0    0 -0.66632713859E+03  0.10146971145E+04 -0.11531713978E+04  0.16813084237E+04  0.15294330000E+03 0.  0.
<mgrwt>
<rscale>  0 0.13398902E+04</rscale>
<asrwt>0</asrwt>
<pdfrwt beam="1">  1        2 0.14005160E+00 0.13810910E+04</pdfrwt>
<pdfrwt beam="2">  1       -2 0.33155349E+00 0.13810910E+04</pdfrwt>
<totfact> 0.56360815E-01</totfact>
</mgrwt>
</event>
<event>
 4    2  0.2930016E-007  0.9067573E+03  0.7818608E-02  0.9515270E-01
          2   -1    0    0  501    0  0.00000000000E+00  0.00000000000E+00  0.78533036395E+03  0.78533036395E+03  0.25500000000E-02 0. -1.
         -2   -1    0    0    0  501 -0.00000000000E+00 -0.00000000000E+00 -0.13881860954E+04  0.13881860954E+04  0.25500000000E-02 0.  1.
    8880023    1    1    2    0    0 -0.14421895065E+03 -0.60629984734E+03  0.39344766196E+03  0.98843810103E+03  0.65864270000E+03 0.  0.
    8880022    1    1    2    0    0  0.14421895065E+03  0.60629984734E+03 -0.99630339338E+03  0.11850783583E+04  0.15294330000E+03 0.  0.
<mgrwt>
<rscale>  0 0.83167339E+03</rscale>
<asrwt>0</asrwt>
<pdfrwt beam="1">  1        2 0.12082006E+00 0.90675731E+03</pdfrwt>
<pdfrwt beam="2">  1       -2 0.21356709E+00 0.90675731E+03</pdfrwt>
<totfact> 0.38500213E+00</totfact>
</mgrwt>
</event>
<event>
 4    2  0.2930016E-007  0.7001347E+03  0.7818608E-02  0.9996643E-01
          2   -1    0    0  501    0  0.00000000000E+00  0.00000000000E+00  0.18126428202E+04  0.18126428202E+04  0.25500000000E-02 0. -1.
         -2   -1    0    0    0  501 -0.00000000000E+00 -0.00000000000E+00 -0.39775799925E+03  0.39775799926E+03  0.25500000000E-02 0.  1.
    8880023    1    1    2    0    0  0.15918388167E+03  0.17617850163E+03  0.16818512571E+04  0.18217607499E+04  0.65864270000E+03 0. -1.
    8880022    1    1    2    0    0 -0.15918388167E+03 -0.17617850163E+03 -0.26696643615E+03  0.38864006956E+03  0.15294330000E+03 0.  0.
<mgrwt>
<rscale>  0 0.55797683E+03</rscale>
<asrwt>0</asrwt>
<pdfrwt beam="1">  1        2 0.27886813E+00 0.70013469E+03</pdfrwt>
<pdfrwt beam="2">  1       -2 0.61193539E-01 0.70013469E+03</pdfrwt>
<totfact> 0.21866251E+01</totfact>
</mgrwt>
</event>
<event>
 4    2  0.2930016E-007  0.6684289E+03  0.7818608E-02  0.1016815E+00
          2   -1    0    0  501    0  0.00000000000E+00  0.00000000000E+00  0.91496074258E+03  0.91496074258E+03  0.25500000000E-02 0. -1.
         -2   -1    0    0    0  501 -0.00000000000E+00 -0.00000000000E+00 -0.47480348621E+03  0.47480348622E+03  0.25500000000E-02 0.  1.
    8880023    1    1    2    0    0 -0.72966358035E+01  0.11372648771E+03  0.76325402015E+03  0.10145707765E+04  0.65864270000E+03 0. -1.
    8880022    1    1    2    0    0  0.72966358035E+01 -0.11372648771E+03 -0.32309676378E+03  0.37519345235E+03  0.15294330000E+03 0.  0.
<mgrwt>
<rscale>  0 0.48853666E+03</rscale>
<asrwt>0</asrwt>
<pdfrwt beam="1">  1        2 0.14076319E+00 0.66842888E+03</pdfrwt>
<pdfrwt beam="2">  1       -2 0.73046689E-01 0.66842888E+03</pdfrwt>
<totfact> 0.49565582E+01</totfact>
</mgrwt>
</event>
<event>
 4    2  0.2930016E-007  0.7988470E+03  0.7818608E-02  0.9713295E-01
          2   -1    0    0  501    0  0.00000000000E+00  0.00000000000E+00  0.12249193697E+04  0.12249193697E+04  0.25500000000E-02 0. -1.
         -2   -1    0    0    0  501 -0.00000000000E+00 -0.00000000000E+00 -0.59547595270E+03  0.59547595271E+03  0.25500000000E-02 0.  1.
    8880023    1    1    2    0    0  0.38962695898E+02  0.45036461642E+03  0.95322677923E+03  0.12437032919E+04  0.65864270000E+03 0.  0.
    8880022    1    1    2    0    0 -0.38962695898E+02 -0.45036461642E+03 -0.32378336222E+03  0.57669203051E+03  0.15294330000E+03 0.  0.
<mgrwt>
<rscale>  0 0.70230727E+03</rscale>
<asrwt>0</asrwt>
<pdfrwt beam="1">  1        2 0.18844913E+00 0.79884704E+03</pdfrwt>
<pdfrwt beam="2">  1       -2 0.91611686E-01 0.79884704E+03</pdfrwt>
<totfact> 0.18825841E+01</totfact>
</mgrwt>
</event>
<event>
 4    2  0.2930016E-007  0.7239290E+03  0.7818608E-02  0.9909509E-01
          2   -1    0    0  501    0  0.00000000000E+00  0.00000000000E+00  0.12066684256E+04  0.12066684257E+04  0.25500000000E-02 0. -1.
         -2   -1    0    0    0  501 -0.00000000000E+00 -0.00000000000E+00 -0.36718054715E+03  0.36718054716E+03  0.25500000000E-02 0.  1.
    8880023    1    1    2    0    0  0.24464128781E+02  0.29944025654E+03  0.97170015901E+03  0.12117237169E+04  0.65864270000E+03 0. -1.
    8880022    1    1    2    0    0 -0.24464128781E+02 -0.29944025654E+03 -0.13221228051E+03  0.36212525591E+03  0.15294330000E+03 0.  0.
<mgrwt>
<rscale>  0 0.59802640E+03</rscale>
<asrwt>0</asrwt>
<pdfrwt beam="1">  1        2 0.18564130E+00 0.72392898E+03</pdfrwt>
<pdfrwt beam="2">  1       -2 0.56489314E-01 0.72392898E+03</pdfrwt>
<totfact> 0.56284539E+01</totfact>
</mgrwt>
</event>
<event>
 4    2  0.2930016E-007  0.6624921E+03  0.7818608E-02  0.1021737E+00
         -2   -1    0    0    0  501 -0.00000000000E+00  0.00000000000E+00  0.26577361328E+03  0.26577361329E+03  0.25500000000E-02 0.  1.
          2   -1    0    0  501    0  0.00000000000E+00 -0.00000000000E+00 -0.84188889442E+03  0.84188889442E+03  0.25500000000E-02 0. -1.
    8880023    1    1    2    0    0 -0.42462399537E+02  0.57292720728E+02 -0.64571794383E+03  0.92512019785E+03  0.65864270000E+03 0. -1.
    8880022    1    1    2    0    0  0.42462399537E+02 -0.57292720728E+02  0.69602662688E+02  0.18254230987E+03  0.15294330000E+03 0.  0.
<mgrwt>
<rscale>  0 0.47064949E+03</rscale>
<asrwt>0</asrwt>
<pdfrwt beam="1">  1        2 0.12952137E+00 0.66249205E+03</pdfrwt>
<pdfrwt beam="2">  1       -2 0.40888249E-01 0.66249205E+03</pdfrwt>
<totfact> 0.18492242E+02</totfact>
</mgrwt>
</event>
<event>
 4    2  0.2930016E-007  0.9985136E+03  0.7818608E-02  0.9383505E-01
         -2   -1    0    0    0  501 -0.00000000000E+00  0.00000000000E+00  0.41926114321E+03  0.41926114321E+03  0.25500000000E-02 0.  1.
          2   -1    0    0  501    0  0.00000000000E+00 -0.00000000000E+00 -0.22519568859E+04  0.22519568859E+04  0.25500000000E-02 0. -1.
    8880023    1    1    2    0    0  0.60249087413E+03  0.44746387557E+03 -0.15717069718E+04  0.18620666435E+04  0.65864270000E+03 0.  0.
    8880022    1    1    2    0    0 -0.60249087413E+03 -0.44746387557E+03 -0.26098877093E+03  0.80915138566E+03  0.15294330000E+03 0.  0.
<mgrwt>
<rscale>  0 0.93445683E+03</rscale>
<asrwt>0</asrwt>
<pdfrwt beam="1">  1        2 0.34645490E+00 0.99851359E+03</pdfrwt>
<pdfrwt beam="2">  1       -2 0.64501716E-01 0.99851359E+03</pdfrwt>
<totfact> 0.10791243E+01</totfact>
</mgrwt>
</event>
<event>
 4    2  0.2930016E-007  0.8036585E+03  0.7818608E-02  0.9702941E-01
         -2   -1    0    0    0  501 -0.00000000000E+00  0.00000000000E+00  0.37323898868E+03  0.37323898869E+03  0.25500000000E-02 0.  1.
          2   -1    0    0  501    0  0.00000000000E+00 -0.00000000000E+00 -0.23494315547E+04  0.23494315547E+04  0.25500000000E-02 0. -1.
    8880023    1    1    2    0    0 -0.33087628556E+03  0.32027750903E+03 -0.20770171154E+04  0.22270759087E+04  0.65864270000E+03 0. -1.
    8880022    1    1    2    0    0  0.33087628556E+03 -0.32027750903E+03  0.10082454942E+03  0.49559463467E+03  0.15294330000E+03 0.  0.
<mgrwt>
<rscale>  0 0.70841972E+03</rscale>
<asrwt>0</asrwt>
<pdfrwt beam="1">  1        2 0.36145100E+00 0.80365851E+03</pdfrwt>
<pdfrwt beam="2">  1       -2 0.57421384E-01 0.80365851E+03</pdfrwt>
<totfact> 0.12499605E+01</totfact>
</mgrwt>
</event>
<event>
 4    2  0.2930016E-007  0.1256759E+04  0.7818608E-02  0.9103831E-01
          2   -1    0    0  501    0  0.00000000000E+00  0.00000000000E+00  0.10738589930E+04  0.10738589930E+04  0.25500000000E-02 0. -1.
         -2   -1    0    0    0  501 -0.00000000000E+00 -0.00000000000E+00 -0.15708108287E+04  0.15708108287E+04  0.25500000000E-02 0.  1.
    8880023    1    1    2    0    0 -0.36809508685E+03  0.10050566015E+04 -0.83848700371E+03  0.15107956271E+04  0.65864270000E+03 0.  0.
    8880022    1    1    2    0    0  0.36809508685E+03 -0.10050566015E+04  0.34153516799E+03  0.11338741946E+04  0.15294330000E+03 0.  0.
<mgrwt>
<rscale>  0 0.12103666E+04</rscale>
<asrwt>0</asrwt>
<pdfrwt beam="1">  1        2 0.16520908E+00 0.12567589E+04</pdfrwt>
<pdfrwt beam="2">  1       -2 0.24166320E+00 0.12567589E+04</pdfrwt>
<totfact> 0.15827192E+00</totfact>
</mgrwt>
</event>
<event>
 4    2  0.2930016E-007  0.6992190E+03  0.7818608E-02  0.1000046E+00
          2   -1    0    0  501    0  0.00000000000E+00  0.00000000000E+00  0.11068803271E+04  0.11068803271E+04  0.25500000000E-02 0. -1.
         -2   -1    0    0    0  501 -0.00000000000E+00 -0.00000000000E+00 -0.26445410584E+03  0.26445410585E+03  0.25500000000E-02 0.  1.
    8880023    1    1    2    0    0  0.18827536760E+03  0.14017624164E+03  0.83765726155E+03  0.10911355951E+04  0.65864270000E+03 0. -1.
    8880022    1    1    2    0    0 -0.18827536760E+03 -0.14017624164E+03  0.47689597353E+01  0.28019883789E+03  0.15294330000E+03 0.  1.
<mgrwt>
<rscale>  0 0.55630219E+03</rscale>
<asrwt>0</asrwt>
<pdfrwt beam="1">  1        2 0.17028928E+00 0.69921899E+03</pdfrwt>
<pdfrwt beam="2">  1       -2 0.40685248E-01 0.69921899E+03</pdfrwt>
<totfact> 0.12552367E+02</totfact>
</mgrwt>
</event>
<event>
 4    2  0.2930016E-007  0.8151197E+03  0.7818608E-02  0.9679010E-01
          2   -1    0    0  501    0  0.00000000000E+00  0.00000000000E+00  0.19185054528E+04  0.19185054528E+04  0.25500000000E-02 0. -1.
         -2   -1    0    0    0  501 -0.00000000000E+00 -0.00000000000E+00 -0.62626466744E+03  0.62626466744E+03  0.25500000000E-02 0.  1.
    8880023    1    1    2    0    0  0.45798664265E+03 -0.14442351885E+03  0.17072805713E+04  0.18918845295E+04  0.65864270000E+03 0. -1.
    8880022    1    1    2    0    0 -0.45798664265E+03  0.14442351885E+03 -0.41503978594E+03  0.65288559072E+03  0.15294330000E+03 0.  0.
<mgrwt>
<rscale>  0 0.72280407E+03</rscale>
<asrwt>0</asrwt>
<pdfrwt beam="1">  1        2 0.29515468E+00 0.81511970E+03</pdfrwt>
<pdfrwt beam="2">  1       -2 0.96348413E-01 0.81511970E+03</pdfrwt>
<totfact> 0.68463467E+00</totfact>
</mgrwt>
</event>
<event>
 4    2  0.2930016E-007  0.8165398E+03  0.7818608E-02  0.9676112E-01
         -2   -1    0    0    0  501 -0.00000000000E+00  0.00000000000E+00  0.38146966169E+03  0.38146966170E+03  0.25500000000E-02 0.  1.
          2   -1    0    0  501    0  0.00000000000E+00 -0.00000000000E+00 -0.14173307581E+04  0.14173307581E+04  0.25500000000E-02 0. -1.
    8880023    1    1    2    0    0 -0.47059331922E+03  0.10709359034E+03 -0.10003277003E+04  0.12912756575E+04  0.65864270000E+03 0.  0.
    8880022    1    1    2    0    0  0.47059331922E+03 -0.10709359034E+03 -0.35533396111E+02  0.50752476240E+03  0.15294330000E+03 0.  0.
<mgrwt>
<rscale>  0 0.72457040E+03</rscale>
<asrwt>0</asrwt>
<pdfrwt beam="1">  1        2 0.21805088E+00 0.81653984E+03</pdfrwt>
<pdfrwt beam="2">  1       -2 0.58687641E-01 0.81653984E+03</pdfrwt>
<totfact> 0.38936326E+01</totfact>
</mgrwt>
</event>
<event>
 4    2  0.2930016E-007  0.7699180E+03  0.7818608E-02  0.9780076E-01
          2   -1    0    0  501    0  0.00000000000E+00  0.00000000000E+00  0.11287401389E+04  0.11287401389E+04  0.25500000000E-02 0. -1.
         -2   -1    0    0    0  501 -0.00000000000E+00 -0.00000000000E+00 -0.85499768589E+03  0.85499768589E+03  0.25500000000E-02 0.  1.
    8880023    1    1    2    0    0  0.23802527044E+03 -0.31985535106E+03  0.92591441618E+03  0.12041973208E+04  0.65864270000E+03 0. -1.
    8880022    1    1    2    0    0 -0.23802527044E+03  0.31985535106E+03 -0.65217196314E+03  0.77954050407E+03  0.15294330000E+03 0.  0.
<mgrwt>
<rscale>  0 0.66442825E+03</rscale>
<asrwt>0</asrwt>
<pdfrwt beam="1">  1        2 0.17365233E+00 0.76991797E+03</pdfrwt>
<pdfrwt beam="2">  1       -2 0.13153811E+00 0.76991797E+03</pdfrwt>
<totfact> 0.89640436E+00</totfact>
</mgrwt>
</event>
<event>
 4    2  0.2930016E-007  0.9518899E+03  0.7818608E-02  0.9447400E-01
         -2   -1    0    0    0  501 -0.00000000000E+00  0.00000000000E+00  0.35101776215E+03  0.35101776216E+03  0.25500000000E-02 0.  1.
          2   -1    0    0  501    0  0.00000000000E+00 -0.00000000000E+00 -0.23848344929E+04  0.23848344929E+04  0.25500000000E-02 0. -1.
    8880023    1    1    2    0    0 -0.66330262547E+03 -0.17976049660E+03 -0.17182965915E+04  0.19643415161E+04  0.65864270000E+03 0. -1.
    8880022    1    1    2    0    0  0.66330262547E+03  0.17976049660E+03 -0.31552013921E+03  0.77151073897E+03  0.15294330000E+03 0.  0.
<mgrwt>
<rscale>  0 0.88275415E+03</rscale>
<asrwt>0</asrwt>
<pdfrwt beam="1">  1        2 0.36689760E+00 0.95188992E+03</pdfrwt>
<pdfrwt beam="2">  1       -2 0.54002734E-01 0.95188992E+03</pdfrwt>
<totfact> 0.13304317E+01</totfact>
</mgrwt>
</event>
<event>
 4    2  0.2930016E-007  0.1061817E+04  0.7818608E-02  0.9304809E-01
          2   -1    0    0  501    0  0.00000000000E+00  0.00000000000E+00  0.79915838803E+03  0.79915838803E+03  0.25500000000E-02 0. -1.
         -2   -1    0    0    0  501 -0.00000000000E+00 -0.00000000000E+00 -0.12890415428E+04  0.12890415428E+04  0.25500000000E-02 0.  1.
    8880023    1    1    2    0    0  0.82492976612E+03 -0.11461327411E+03  0.84216869364E+02  0.10651516366E+04  0.65864270000E+03 0.  0.
    8880022    1    1    2    0    0 -0.82492976612E+03  0.11461327411E+03 -0.57410002418E+03  0.10230482943E+04  0.15294330000E+03 0.  0.
<mgrwt>
<rscale>  0 0.10034136E+04</rscale>
<asrwt>0</asrwt>
<pdfrwt beam="1">  1        2 0.12294744E+00 0.10618171E+04</pdfrwt>
<pdfrwt beam="2">  1       -2 0.19831408E+00 0.10618171E+04</pdfrwt>
<totfact> 0.46447913E+00</totfact>
</mgrwt>
</event>
<event>
 4    2  0.2930016E-007  0.1364867E+04  0.7818608E-02  0.9011474E-01
         -2   -1    0    0    0  501 -0.00000000000E+00  0.00000000000E+00  0.14866906506E+04  0.14866906506E+04  0.25500000000E-02 0.  1.
          2   -1    0    0  501    0  0.00000000000E+00 -0.00000000000E+00 -0.21566430304E+04  0.21566430304E+04  0.25500000000E-02 0. -1.
    8880023    1    1    2    0    0  0.70840325977E+03  0.96292109475E+03 -0.16130563958E+04  0.21130104958E+04  0.65864270000E+03 0.  0.
    8880022    1    1    2    0    0 -0.70840325977E+03 -0.96292109475E+03  0.94310401604E+03  0.15303231852E+04  0.15294330000E+03 0.  0.
<mgrwt>
<rscale>  0 0.13230621E+04</rscale>
<asrwt>0</asrwt>
<pdfrwt beam="1">  1        2 0.33179124E+00 0.13648672E+04</pdfrwt>
<pdfrwt beam="2">  1       -2 0.22872164E+00 0.13648672E+04</pdfrwt>
<totfact> 0.45307748E-01</totfact>
</mgrwt>
</event>
<event>
 4    2  0.2930016E-007  0.1150163E+04  0.7818608E-02  0.9207159E-01
          2   -1    0    0  501    0  0.00000000000E+00  0.00000000000E+00  0.96414289865E+03  0.96414289866E+03  0.25500000000E-02 0. -1.
         -2   -1    0    0    0  501 -0.00000000000E+00 -0.00000000000E+00 -0.13781041188E+04  0.13781041188E+04  0.25500000000E-02 0.  1.
    8880023    1    1    2    0    0  0.29877503155E+03  0.89431383263E+03  0.25243835264E+03  0.11775394171E+04  0.65864270000E+03 0. -1.
    8880022    1    1    2    0    0 -0.29877503155E+03 -0.89431383263E+03 -0.66639957282E+03  0.11647076004E+04  0.15294330000E+03 0.  0.
<mgrwt>
<rscale>  0 0.10979837E+04</rscale>
<asrwt>0</asrwt>
<pdfrwt beam="1">  1        2 0.14832968E+00 0.11501626E+04</pdfrwt>
<pdfrwt beam="2">  1       -2 0.21201602E+00 0.11501626E+04</pdfrwt>
<totfact> 0.28876288E+00</totfact>
</mgrwt>
</event>
<event>
 4    2  0.2930016E-007  0.9048704E+03  0.7818608E-02  0.9518258E-01
          2   -1    0    0  501    0  0.00000000000E+00  0.00000000000E+00  0.22472295339E+04  0.22472295339E+04  0.25500000000E-02 0. -1.
         -2   -1    0    0    0  501 -0.00000000000E+00 -0.00000000000E+00 -0.37902287028E+03  0.37902287029E+03  0.25500000000E-02 0.  1.
    8880023    1    1    2    0    0  0.43541477143E+03  0.44203414214E+03  0.17587926381E+04  0.19779135360E+04  0.65864270000E+03 0.  0.
    8880022    1    1    2    0    0 -0.43541477143E+03 -0.44203414214E+03  0.10941402558E+03  0.64833886819E+03  0.15294330000E+03 0.  0.
<mgrwt>
<rscale>  0 0.82951025E+03</rscale>
<asrwt>0</asrwt>
<pdfrwt beam="1">  1        2 0.34572761E+00 0.90487038E+03</pdfrwt>
<pdfrwt beam="2">  1       -2 0.58311212E-01 0.90487038E+03</pdfrwt>
<totfact> 0.13611423E+01</totfact>
</mgrwt>
</event>
<event>
 4    2  0.4155260E-007  0.7267276E+03  0.7818608E-02  0.9900447E-01
          2   -1    0    0  501    0  0.00000000000E+00  0.00000000000E+00  0.12250892435E+04  0.12250892435E+04  0.25500000000E-02 0. -1.
         -2   -1    0    0    0  501 -0.00000000000E+00 -0.00000000000E+00 -0.12746488661E+04  0.12746488661E+04  0.25500000000E-02 0.  1.
    8880023    1    1    2    0    0 -0.12100752353E+03 -0.28227634188E+03  0.10897758656E+04  0.13098642668E+04  0.65864270000E+03 0. -1.
    8880022    1    1    2    0    0  0.12100752353E+03  0.28227634188E+03 -0.11393354883E+04  0.11898738428E+04  0.15294330000E+03 0.  0.
<mgrwt>
<rscale>  0 0.60239649E+03</rscale>
<asrwt>0</asrwt>
<pdfrwt beam="1">  1        2 0.18847527E+00 0.72672757E+03</pdfrwt>
<pdfrwt beam="2">  1       -2 0.19609983E+00 0.72672757E+03</pdfrwt>
<totfact> 0.26618317E+00</totfact>
</mgrwt>
</event>
<event>
 4    2  0.2930016E-007  0.9789399E+03  0.7818608E-02  0.9409644E-01
          2   -1    0    0  501    0  0.00000000000E+00  0.00000000000E+00  0.37483671498E+04  0.37483671498E+04  0.25500000000E-02 0. -1.
         -2   -1    0    0    0  501 -0.00000000000E+00 -0.00000000000E+00 -0.78916112751E+03  0.78916112751E+03  0.25500000000E-02 0.  1.
    8880023    1    1    2    0    0 -0.12424775186E+03  0.71349540428E+03  0.34912821621E+04  0.36259308512E+04  0.65864270000E+03 0.  0.
    8880022    1    1    2    0    0  0.12424775186E+03 -0.71349540428E+03 -0.53207613982E+03  0.91159742614E+03  0.15294330000E+03 0.  0.
<mgrwt>
<rscale>  0 0.91286210E+03</rscale>
<asrwt>0</asrwt>
<pdfrwt beam="1">  1        2 0.57667187E+00 0.97893994E+03</pdfrwt>
<pdfrwt beam="2">  1       -2 0.12140940E+00 0.97893994E+03</pdfrwt>
<totfact> 0.28944910E-01</totfact>
</mgrwt>
</event>
<event>
 4    2  0.2930016E-007  0.7049683E+03  0.7818608E-02  0.9977183E-01
         -2   -1    0    0    0  501 -0.00000000000E+00  0.00000000000E+00  0.42380642372E+03  0.42380642373E+03  0.25500000000E-02 0.  1.
          2   -1    0    0  501    0  0.00000000000E+00 -0.00000000000E+00 -0.18513012512E+04  0.18513012512E+04  0.25500000000E-02 0. -1.
    8880023    1    1    2    0    0  0.24903294521E+03 -0.33950727079E+02 -0.17208386219E+04  0.18596413172E+04  0.65864270000E+03 0. -1.
    8880022    1    1    2    0    0 -0.24903294521E+03  0.33950727079E+02  0.29334379443E+03  0.41546635774E+03  0.15294330000E+03 0.  0.
<mgrwt>
<rscale>  0 0.56662132E+03</rscale>
<asrwt>0</asrwt>
<pdfrwt beam="1">  1        2 0.28481557E+00 0.70496827E+03</pdfrwt>
<pdfrwt beam="2">  1       -2 0.65200989E-01 0.70496827E+03</pdfrwt>
<totfact> 0.18183805E+01</totfact>
</mgrwt>
</event>
<event>
 4    2  0.2930016E-007  0.7882280E+03  0.7818608E-02  0.9736853E-01
          2   -1    0    0  501    0  0.00000000000E+00  0.00000000000E+00  0.27883667242E+04  0.27883667242E+04  0.25500000000E-02 0. -1.
         -2   -1    0    0    0  501 -0.00000000000E+00 -0.00000000000E+00 -0.18637634488E+03  0.18637634490E+03  0.25500000000E-02 0.  1.
    8880023    1    1    2    0    0 -0.83259323687E+02  0.42492475715E+03  0.22839577181E+04  0.24161469800E+04  0.65864270000E+03 0. -1.
    8880022    1    1    2    0    0  0.83259323687E+02 -0.42492475715E+03  0.31803266117E+03  0.55859608914E+03  0.15294330000E+03 0.  0.
<mgrwt>
<rscale>  0 0.68864366E+03</rscale>
<asrwt>0</asrwt>
<pdfrwt beam="1">  1        2 0.42897950E+00 0.78822799E+03</pdfrwt>
<pdfrwt beam="2">  1       -2 0.28673283E-01 0.78822799E+03</pdfrwt>
<totfact> 0.27398147E+01</totfact>
</mgrwt>
</event>
<event>
 4    2  0.2930016E-007  0.1107804E+04  0.7818608E-02  0.9252417E-01
          2   -1    0    0  501    0  0.00000000000E+00  0.00000000000E+00  0.29862187351E+04  0.29862187351E+04  0.25500000000E-02 0. -1.
         -2   -1    0    0    0  501 -0.00000000000E+00 -0.00000000000E+00 -0.65878107711E+03  0.65878107712E+03  0.25500000000E-02 0.  1.
    8880023    1    1    2    0    0 -0.82935424469E+03 -0.32494812609E+03  0.24912892803E+04  0.27264908275E+04  0.65864270000E+03 0. -1.
    8880022    1    1    2    0    0  0.82935424469E+03  0.32494812609E+03 -0.16385162236E+03  0.91850898472E+03  0.15294330000E+03 0.  0.
<mgrwt>
<rscale>  0 0.10528402E+04</rscale>
<asrwt>0</asrwt>
<pdfrwt beam="1">  1        2 0.45941826E+00 0.11078041E+04</pdfrwt>
<pdfrwt beam="2">  1       -2 0.10135094E+00 0.11078041E+04</pdfrwt>
<totfact> 0.14247962E+00</totfact>
</mgrwt>
</event>
<event>
 4    2  0.2930016E-007  0.7034355E+03  0.7818608E-02  0.9983237E-01
          2   -1    0    0  501    0  0.00000000000E+00  0.00000000000E+00  0.51860767697E+03  0.51860767698E+03  0.25500000000E-02 0. -1.
         -2   -1    0    0    0  501 -0.00000000000E+00 -0.00000000000E+00 -0.47625895076E+03  0.47625895076E+03  0.25500000000E-02 0.  1.
    8880023    1    1    2    0    0  0.87237702540E+02 -0.23108628058E+03  0.28206541709E+02  0.70400078201E+03  0.65864270000E+03 0. -1.
    8880022    1    1    2    0    0 -0.87237702540E+02  0.23108628058E+03  0.14142184509E+02  0.29086584573E+03  0.15294330000E+03 0.  0.
<mgrwt>
<rscale>  0 0.56391404E+03</rscale>
<asrwt>0</asrwt>
<pdfrwt beam="1">  1        2 0.79785796E-01 0.70343549E+03</pdfrwt>
<pdfrwt beam="2">  1       -2 0.73270608E-01 0.70343549E+03</pdfrwt>
<totfact> 0.10057360E+02</totfact>
</mgrwt>
</event>
<event>
 4    2  0.2930016E-007  0.7653859E+03  0.7818608E-02  0.9791358E-01
         -2   -1    0    0    0  501 -0.00000000000E+00  0.00000000000E+00  0.36086971744E+03  0.36086971745E+03  0.25500000000E-02 0.  1.
          2   -1    0    0  501    0  0.00000000000E+00 -0.00000000000E+00 -0.13301418674E+04  0.13301418674E+04  0.25500000000E-02 0. -1.
    8880023    1    1    2    0    0  0.23647958809E+03  0.30997210293E+03 -0.10133228132E+04  0.12698970944E+04  0.65864270000E+03 0. -1.
    8880022    1    1    2    0    0 -0.23647958809E+03 -0.30997210293E+03  0.44050663240E+02  0.42111449052E+03  0.15294330000E+03 0.  0.
<mgrwt>
<rscale>  0 0.65828367E+03</rscale>
<asrwt>0</asrwt>
<pdfrwt beam="1">  1        2 0.20463721E+00 0.76538585E+03</pdfrwt>
<pdfrwt beam="2">  1       -2 0.55518419E-01 0.76538585E+03</pdfrwt>
<totfact> 0.49270048E+01</totfact>
</mgrwt>
</event>
<event>
 4    2  0.2930016E-007  0.6851800E+03  0.7818608E-02  0.1006533E+00
          2   -1    0    0  501    0  0.00000000000E+00  0.00000000000E+00  0.50593078587E+03  0.50593078588E+03  0.25500000000E-02 0. -1.
         -2   -1    0    0    0  501 -0.00000000000E+00 -0.00000000000E+00 -0.43402149922E+03  0.43402149922E+03  0.25500000000E-02 0.  1.
    8880023    1    1    2    0    0 -0.18395667795E+03 -0.42677314309E+02  0.11007375598E+03  0.69396530932E+03  0.65864270000E+03 0.  1.
    8880022    1    1    2    0    0  0.18395667795E+03  0.42677314309E+02 -0.38164469329E+02  0.24598697578E+03  0.15294330000E+03 0. -1.
<mgrwt>
<rscale>  0 0.52876026E+03</rscale>
<asrwt>0</asrwt>
<pdfrwt beam="1">  1        2 0.77835505E-01 0.68517999E+03</pdfrwt>
<pdfrwt beam="2">  1       -2 0.66772539E-01 0.68517999E+03</pdfrwt>
<totfact> 0.12687228E+02</totfact>
</mgrwt>
</event>
<event>
 4    2  0.2930016E-007  0.7848140E+03  0.7818608E-02  0.9744648E-01
         -2   -1    0    0    0  501 -0.00000000000E+00  0.00000000000E+00  0.16123637614E+04  0.16123637614E+04  0.25500000000E-02 0.  1.
          2   -1    0    0  501    0  0.00000000000E+00 -0.00000000000E+00 -0.38252636764E+03  0.38252636765E+03  0.25500000000E-02 0. -1.
    8880023    1    1    2    0    0  0.69559629051E+02 -0.42105133408E+03  0.11729537532E+03  0.79353083069E+03  0.65864270000E+03 0.  0.
    8880022    1    1    2    0    0 -0.69559629051E+02  0.42105133408E+03  0.11125420184E+04  0.12013592983E+04  0.15294330000E+03 0.  0.
<mgrwt>
<rscale>  0 0.68419569E+03</rscale>
<asrwt>0</asrwt>
<pdfrwt beam="1">  1        2 0.58850210E-01 0.78481397E+03</pdfrwt>
<pdfrwt beam="2">  1       -2 0.24805597E+00 0.78481397E+03</pdfrwt>
<totfact> 0.56542861E+00</totfact>
</mgrwt>
</event>
<event>
 4    2  0.2930016E-007  0.7111094E+03  0.7818608E-02  0.9953904E-01
          2   -1    0    0  501    0  0.00000000000E+00  0.00000000000E+00  0.24221675801E+04  0.24221675801E+04  0.25500000000E-02 0. -1.
         -2   -1    0    0    0  501 -0.00000000000E+00 -0.00000000000E+00 -0.14943878557E+03  0.14943878559E+03  0.25500000000E-02 0.  1.
    8880023    1    1    2    0    0  0.12712394740E+03  0.23602102337E+03  0.21017116040E+04  0.22187537705E+04  0.65864270000E+03 0. -1.
    8880022    1    1    2    0    0 -0.12712394740E+03 -0.23602102337E+03  0.17101719060E+03  0.35285259524E+03  0.15294330000E+03 0.  0.
<mgrwt>
<rscale>  0 0.57718503E+03</rscale>
<asrwt>0</asrwt>
<pdfrwt beam="1">  1        2 0.37264114E+00 0.71110943E+03</pdfrwt>
<pdfrwt beam="2">  1       -2 0.22990584E-01 0.71110943E+03</pdfrwt>
<totfact> 0.67099670E+01</totfact>
</mgrwt>
</event>
<event>
 4    2  0.2930016E-007  0.6640143E+03  0.7818608E-02  0.1020375E+00
          2   -1    0    0  501    0  0.00000000000E+00  0.00000000000E+00  0.56800586775E+03  0.56800586776E+03  0.25500000000E-02 0. -1.
         -2   -1    0    0    0  501 -0.00000000000E+00 -0.00000000000E+00 -0.46676698261E+03  0.46676698261E+03  0.25500000000E-02 0.  1.
    8880023    1    1    2    0    0 -0.77621794339E+02  0.32857654620E+02  0.33440064538E+03  0.74346403163E+03  0.65864270000E+03 0. -1.
    8880022    1    1    2    0    0  0.77621794339E+02 -0.32857654620E+02 -0.23316176024E+03  0.29130881874E+03  0.15294330000E+03 0.  0.
<mgrwt>
<rscale>  0 0.47551495E+03</rscale>
<asrwt>0</asrwt>
<pdfrwt beam="1">  1        2 0.87385518E-01 0.66401429E+03</pdfrwt>
<pdfrwt beam="2">  1       -2 0.71810305E-01 0.66401429E+03</pdfrwt>
<totfact> 0.94674751E+01</totfact>
</mgrwt>
</event>
<event>
 4    2  0.2930016E-007  0.1372139E+04  0.7818608E-02  0.9005639E-01
          2   -1    0    0  501    0  0.00000000000E+00  0.00000000000E+00  0.28332062453E+04  0.28332062453E+04  0.25500000000E-02 0. -1.
         -2   -1    0    0    0  501 -0.00000000000E+00 -0.00000000000E+00 -0.70894195755E+03  0.70894195755E+03  0.25500000000E-02 0.  1.
    8880023    1    1    2    0    0 -0.11982926707E+04  0.11423696270E+03  0.39173246503E+03  0.14269617860E+04  0.65864270000E+03 0.  0.
    8880022    1    1    2    0    0  0.11982926707E+04 -0.11423696270E+03  0.17325318227E+04  0.21151864168E+04  0.15294330000E+03 0.  0.
<mgrwt>
<rscale>  0 0.13306072E+04</rscale>
<asrwt>0</asrwt>
<pdfrwt beam="1">  1        2 0.43587788E+00 0.13721391E+04</pdfrwt>
<pdfrwt beam="2">  1       -2 0.10906799E+00 0.13721391E+04</pdfrwt>
<totfact> 0.14310871E+00</totfact>
</mgrwt>
</event>
<event>
 4    2  0.2930016E-007  0.1207013E+04  0.7818608E-02  0.9150335E-01
          2   -1    0    0  501    0  0.00000000000E+00  0.00000000000E+00  0.87211543138E+03  0.87211543138E+03  0.25500000000E-02 0. -1.
         -2   -1    0    0    0  501 -0.00000000000E+00 -0.00000000000E+00 -0.15301392165E+04  0.15301392165E+04  0.25500000000E-02 0.  1.
    8880023    1    1    2    0    0  0.80257853515E+03  0.61557979462E+03 -0.41210359118E+02  0.12077165597E+04  0.65864270000E+03 0.  0.
    8880022    1    1    2    0    0 -0.80257853515E+03 -0.61557979462E+03 -0.61681342602E+03  0.11945380882E+04  0.15294330000E+03 0.  0.
<mgrwt>
<rscale>  0 0.11581091E+04</rscale>
<asrwt>0</asrwt>
<pdfrwt beam="1">  1        2 0.13417161E+00 0.12070133E+04</pdfrwt>
<pdfrwt beam="2">  1       -2 0.23540603E+00 0.12070133E+04</pdfrwt>
<totfact> 0.23610781E+00</totfact>
</mgrwt>
</event>
<event>
 4    2  0.2930016E-007  0.6760170E+03  0.7818608E-02  0.1011673E+00
         -2   -1    0    0    0  501 -0.00000000000E+00  0.00000000000E+00  0.97697326671E+02  0.97697326704E+02  0.25500000000E-02 0.  1.
          2   -1    0    0  501    0  0.00000000000E+00 -0.00000000000E+00 -0.22065236042E+04  0.22065236042E+04  0.25500000000E-02 0. -1.
    8880023    1    1    2    0    0  0.12503863142E+03 -0.86914366542E+02 -0.18350148097E+04  0.19555762129E+04  0.65864270000E+03 0.  0.
    8880022    1    1    2    0    0 -0.12503863142E+03  0.86914366542E+02 -0.27381146789E+03  0.34864471805E+03  0.15294330000E+03 0.  0.
<mgrwt>
<rscale>  0 0.50815199E+03</rscale>
<asrwt>0</asrwt>
<pdfrwt beam="1">  1        2 0.33946513E+00 0.67601699E+03</pdfrwt>
<pdfrwt beam="2">  1       -2 0.15030360E-01 0.67601699E+03</pdfrwt>
<totfact> 0.18538824E+02</totfact>
</mgrwt>
</event>
<event>
 4    2  0.2930016E-007  0.1145217E+04  0.7818608E-02  0.9212307E-01
         -2   -1    0    0    0  501 -0.00000000000E+00  0.00000000000E+00  0.17049833322E+04  0.17049833322E+04  0.25500000000E-02 0.  1.
          2   -1    0    0  501    0  0.00000000000E+00 -0.00000000000E+00 -0.18499782524E+04  0.18499782524E+04  0.25500000000E-02 0. -1.
    8880023    1    1    2    0    0  0.84659007072E+03 -0.40124553820E+03 -0.15082517822E+04  0.18937651318E+04  0.65864270000E+03 0.  0.
    8880022    1    1    2    0    0 -0.84659007072E+03  0.40124553820E+03  0.13632568620E+04  0.16611964527E+04  0.15294330000E+03 0.  0.
<mgrwt>
<rscale>  0 0.10927299E+04</rscale>
<asrwt>0</asrwt>
<pdfrwt beam="1">  1        2 0.28461204E+00 0.11452174E+04</pdfrwt>
<pdfrwt beam="2">  1       -2 0.26230513E+00 0.11452174E+04</pdfrwt>
<totfact> 0.42874109E-01</totfact>
</mgrwt>
</event>
<event>
 4    2  0.2930016E-007  0.7819926E+03  0.7818608E-02  0.9751177E-01
          2   -1    0    0  501    0  0.00000000000E+00  0.00000000000E+00  0.17687368629E+04  0.17687368629E+04  0.25500000000E-02 0. -1.
         -2   -1    0    0    0  501 -0.00000000000E+00 -0.00000000000E+00 -0.52269736020E+03  0.52269736021E+03  0.25500000000E-02 0.  1.
    8880023    1    1    2    0    0 -0.40711988824E+03 -0.10934181243E+03  0.15593131974E+04  0.17444111009E+04  0.65864270000E+03 0. -1.
    8880022    1    1    2    0    0  0.40711988824E+03  0.10934181243E+03 -0.31327369469E+03  0.54702312213E+03  0.15294330000E+03 0.  0.
<mgrwt>
<rscale>  0 0.68049799E+03</rscale>
<asrwt>0</asrwt>
<pdfrwt beam="1">  1        2 0.27211336E+00 0.78199261E+03</pdfrwt>
<pdfrwt beam="2">  1       -2 0.80414979E-01 0.78199261E+03</pdfrwt>
<totfact> 0.12581219E+01</totfact>
</mgrwt>
</event>
<event>
 4    2  0.2930016E-007  0.7371471E+03  0.7818608E-02  0.9868337E-01
         -2   -1    0    0    0  501 -0.00000000000E+00  0.00000000000E+00  0.41634360162E+03  0.41634360163E+03  0.25500000000E-02 0.  1.
          2   -1    0    0  501    0  0.00000000000E+00 -0.00000000000E+00 -0.12402632244E+04  0.12402632244E+04  0.25500000000E-02 0. -1.
    8880023    1    1    2    0    0 -0.27214215523E+03  0.18845240791E+03 -0.10074839254E+04  0.12483628194E+04  0.65864270000E+03 0.  0.
    8880022    1    1    2    0    0  0.27214215523E+03 -0.18845240791E+03  0.18356430263E+03  0.40824400659E+03  0.15294330000E+03 0.  0.
<mgrwt>
<rscale>  0 0.61820675E+03</rscale>
<asrwt>0</asrwt>
<pdfrwt beam="1">  1        2 0.19080972E+00 0.73714711E+03</pdfrwt>
<pdfrwt beam="2">  1       -2 0.64052863E-01 0.73714711E+03</pdfrwt>
<totfact> 0.41191751E+01</totfact>
</mgrwt>
</event>
<event>
 4    2  0.2930016E-007  0.8211725E+03  0.7818608E-02  0.9666758E-01
         -2   -1    0    0    0  501 -0.00000000000E+00  0.00000000000E+00  0.75050150703E+03  0.75050150703E+03  0.25500000000E-02 0.  1.
          2   -1    0    0  501    0  0.00000000000E+00 -0.00000000000E+00 -0.77692317096E+03  0.77692317097E+03  0.25500000000E-02 0. -1.
    8880023    1    1    2    0    0  0.48067876691E+03 -0.97272811931E+02 -0.37893862468E+03  0.90438861362E+03  0.65864270000E+03 0.  0.
    8880022    1    1    2    0    0 -0.48067876691E+03  0.97272811931E+02  0.35251696074E+03  0.62303606439E+03  0.15294330000E+03 0.  0.
<mgrwt>
<rscale>  0 0.73030942E+03</rscale>
<asrwt>0</asrwt>
<pdfrwt beam="1">  1        2 0.11952664E+00 0.82117251E+03</pdfrwt>
<pdfrwt beam="2">  1       -2 0.11546177E+00 0.82117251E+03</pdfrwt>
<totfact> 0.21071457E+01</totfact>
</mgrwt>
</event>
<event>
 4    2  0.2930016E-007  0.7317480E+03  0.7818608E-02  0.9884671E-01
         -2   -1    0    0    0  501 -0.00000000000E+00  0.00000000000E+00  0.50670891721E+03  0.50670891721E+03  0.25500000000E-02 0.  1.
          2   -1    0    0  501    0  0.00000000000E+00 -0.00000000000E+00 -0.25186094731E+04  0.25186094731E+04  0.25500000000E-02 0. -1.
    8880023    1    1    2    0    0 -0.19320713719E+03  0.25360593139E+03 -0.23948107119E+04  0.25041113231E+04  0.65864270000E+03 0. -1.
    8880022    1    1    2    0    0  0.19320713719E+03 -0.25360593139E+03  0.38291015603E+03  0.52120706721E+03  0.15294330000E+03 0.  0.
<mgrwt>
<rscale>  0 0.61009972E+03</rscale>
<asrwt>0</asrwt>
<pdfrwt beam="1">  1        2 0.38747837E+00 0.73174803E+03</pdfrwt>
<pdfrwt beam="2">  1       -2 0.77955220E-01 0.73174803E+03</pdfrwt>
<totfact> 0.52422202E+00</totfact>
</mgrwt>
</event>
<event>
 4    2  0.2930016E-007  0.1085774E+04  0.7818608E-02  0.9277062E-01
         -2   -1    0    0    0  501 -0.00000000000E+00  0.00000000000E+00  0.20922820416E+04  0.20922820416E+04  0.25500000000E-02 0.  1.
          2   -1    0    0  501    0  0.00000000000E+00 -0.00000000000E+00 -0.77239441844E+03  0.77239441844E+03  0.25500000000E-02 0. -1.
    8880023    1    1    2    0    0  0.84600448928E+03  0.17138276791E+03 -0.20576703806E+03  0.11050999635E+04  0.65864270000E+03 0. -1.
    8880022    1    1    2    0    0 -0.84600448928E+03 -0.17138276791E+03  0.15256546612E+04  0.17595764966E+04  0.15294330000E+03 0.  0.
<mgrwt>
<rscale>  0 0.10292225E+04</rscale>
<asrwt>0</asrwt>
<pdfrwt beam="1">  1        2 0.11882991E+00 0.10857743E+04</pdfrwt>
<pdfrwt beam="2">  1       -2 0.32188955E+00 0.10857743E+04</pdfrwt>
<totfact> 0.83828231E-01</totfact>
</mgrwt>
</event>
<event>
 4    2  0.2930016E-007  0.9084524E+03  0.7818608E-02  0.9512597E-01
         -2   -1    0    0    0  501 -0.00000000000E+00  0.00000000000E+00  0.63290956532E+03  0.63290956533E+03  0.25500000000E-02 0.  1.
          2   -1    0    0  501    0  0.00000000000E+00 -0.00000000000E+00 -0.12351965135E+04  0.12351965135E+04  0.25500000000E-02 0. -1.
    8880023    1    1    2    0    0 -0.47813695087E+03  0.40355990204E+03  0.10145970808E+03  0.91410055079E+03  0.65864270000E+03 0.  1.
    8880022    1    1    2    0    0  0.47813695087E+03 -0.40355990204E+03 -0.70374665628E+03  0.95400552805E+03  0.15294330000E+03 0. -1.
<mgrwt>
<rscale>  0 0.83361451E+03</rscale>
<asrwt>0</asrwt>
<pdfrwt beam="1">  1        2 0.19003023E+00 0.90845239E+03</pdfrwt>
<pdfrwt beam="2">  1       -2 0.97370703E-01 0.90845239E+03</pdfrwt>
<totfact> 0.15920558E+01</totfact>
</mgrwt>
</event>
<event>
 4    2  0.2930016E-007  0.1232868E+04  0.7818608E-02  0.9125816E-01
          2   -1    0    0  501    0  0.00000000000E+00  0.00000000000E+00  0.11181658287E+04  0.11181658287E+04  0.25500000000E-02 0. -1.
         -2   -1    0    0    0  501 -0.00000000000E+00 -0.00000000000E+00 -0.18740601912E+04  0.18740601912E+04  0.25500000000E-02 0.  1.
    8880023    1    1    2    0    0  0.43382665309E+03  0.94760048498E+03  0.51970470351E+03  0.13379295307E+04  0.65864270000E+03 0. -1.
    8880022    1    1    2    0    0 -0.43382665309E+03 -0.94760048498E+03 -0.12755990660E+04  0.16542964892E+04  0.15294330000E+03 0.  0.
<mgrwt>
<rscale>  0 0.11853057E+04</rscale>
<asrwt>0</asrwt>
<pdfrwt beam="1">  1        2 0.17202551E+00 0.12328676E+04</pdfrwt>
<pdfrwt beam="2">  1       -2 0.28831695E+00 0.12328676E+04</pdfrwt>
<totfact> 0.77347545E-01</totfact>
</mgrwt>
</event>
<event>
 4    2  0.2930016E-007  0.7037341E+03  0.7818608E-02  0.9982050E-01
         -2   -1    0    0    0  501 -0.00000000000E+00  0.00000000000E+00  0.61217311769E+03  0.61217311770E+03  0.25500000000E-02 0.  1.
          2   -1    0    0  501    0  0.00000000000E+00 -0.00000000000E+00 -0.44132020257E+04  0.44132020257E+04  0.25500000000E-02 0. -1.
    8880023    1    1    2    0    0  0.74273890673E+02 -0.23646312679E+03 -0.43485963323E+04  0.44051710170E+04  0.65864270000E+03 0. -1.
    8880022    1    1    2    0    0 -0.74273890673E+02  0.23646312679E+03  0.54756742434E+03  0.62020412638E+03  0.15294330000E+03 0.  0.
<mgrwt>
<rscale>  0 0.56444376E+03</rscale>
<asrwt>0</asrwt>
<pdfrwt beam="1">  1        2 0.67895414E+00 0.70373406E+03</pdfrwt>
<pdfrwt beam="2">  1       -2 0.94180482E-01 0.70373406E+03</pdfrwt>
<totfact> 0.16390266E-01</totfact>
</mgrwt>
</event>
<event>
 4    2  0.2930016E-007  0.7474135E+03  0.7818608E-02  0.9838855E-01
         -2   -1    0    0    0  501 -0.00000000000E+00  0.00000000000E+00  0.14733930651E+03  0.14733930653E+03  0.25500000000E-02 0.  1.
          2   -1    0    0  501    0  0.00000000000E+00 -0.00000000000E+00 -0.44163475964E+04  0.44163475964E+04  0.25500000000E-02 0. -1.
    8880023    1    1    2    0    0 -0.33963201220E+03  0.97297686135E+02 -0.40548343940E+04  0.41231430866E+04  0.65864270000E+03 0.  0.
    8880022    1    1    2    0    0  0.33963201220E+03 -0.97297686135E+02 -0.21417389592E+03  0.44054381638E+03  0.15294330000E+03 0.  0.
<mgrwt>
<rscale>  0 0.63318382E+03</rscale>
<asrwt>0</asrwt>
<pdfrwt beam="1">  1        2 0.67943799E+00 0.74741351E+03</pdfrwt>
<pdfrwt beam="2">  1       -2 0.22667589E-01 0.74741351E+03</pdfrwt>
<totfact> 0.28586709E+00</totfact>
</mgrwt>
</event>
<event>
 4    2  0.2930016E-007  0.7945571E+03  0.7818608E-02  0.9722691E-01
          2   -1    0    0  501    0  0.00000000000E+00  0.00000000000E+00  0.26101883520E+04  0.26101883520E+04  0.25500000000E-02 0. -1.
         -2   -1    0    0    0  501 -0.00000000000E+00 -0.00000000000E+00 -0.41902147060E+03  0.41902147061E+03  0.25500000000E-02 0.  1.
    8880023    1    1    2    0    0 -0.23330994065E+03 -0.37825561832E+03  0.23901975991E+04  0.25188024159E+04  0.65864270000E+03 0. -1.
    8880022    1    1    2    0    0  0.23330994065E+03  0.37825561832E+03 -0.19903071774E+03  0.51040740670E+03  0.15294330000E+03 0.  0.
<mgrwt>
<rscale>  0 0.69681731E+03</rscale>
<asrwt>0</asrwt>
<pdfrwt beam="1">  1        2 0.40156744E+00 0.79455714E+03</pdfrwt>
<pdfrwt beam="2">  1       -2 0.64464841E-01 0.79455714E+03</pdfrwt>
<totfact> 0.69683537E+00</totfact>
</mgrwt>
</event>
<event>
 4    2  0.2930016E-007  0.7215943E+03  0.7818608E-02  0.9917228E-01
         -2   -1    0    0    0  501 -0.00000000000E+00  0.00000000000E+00  0.10639433203E+03  0.10639433206E+03  0.25500000000E-02 0.  1.
          2   -1    0    0  501    0  0.00000000000E+00 -0.00000000000E+00 -0.47766054224E+04  0.47766054224E+04  0.25500000000E-02 0. -1.
    8880023    1    1    2    0    0  0.41258648923E+02 -0.29186611000E+03 -0.43887715065E+04  0.44476975667E+04  0.65864270000E+03 0. -1.
    8880022    1    1    2    0    0 -0.41258648923E+02  0.29186611000E+03 -0.28143958383E+03  0.43530218773E+03  0.15294330000E+03 0.  0.
<mgrwt>
<rscale>  0 0.59433566E+03</rscale>
<asrwt>0</asrwt>
<pdfrwt beam="1">  1        2 0.73486221E+00 0.72159428E+03</pdfrwt>
<pdfrwt beam="2">  1       -2 0.16368362E-01 0.72159428E+03</pdfrwt>
<totfact> 0.22169978E+00</totfact>
</mgrwt>
</event>
<event>
 4    2  0.2930016E-007  0.8233413E+03  0.7818608E-02  0.9662430E-01
          2   -1    0    0  501    0  0.00000000000E+00  0.00000000000E+00  0.21462660016E+04  0.21462660016E+04  0.25500000000E-02 0. -1.
         -2   -1    0    0    0  501 -0.00000000000E+00 -0.00000000000E+00 -0.23965906669E+03  0.23965906671E+03  0.25500000000E-02 0.  1.
    8880023    1    1    2    0    0 -0.45210179303E+03 -0.19921007072E+03  0.15581653131E+04  0.17623195036E+04  0.65864270000E+03 0. -1.
    8880022    1    1    2    0    0  0.45210179303E+03  0.19921007072E+03  0.34844162185E+03  0.62360556475E+03  0.15294330000E+03 0.  0.
<mgrwt>
<rscale>  0 0.73298449E+03</rscale>
<asrwt>0</asrwt>
<pdfrwt beam="1">  1        2 0.33019477E+00 0.82334130E+03</pdfrwt>
<pdfrwt beam="2">  1       -2 0.36870625E-01 0.82334130E+03</pdfrwt>
<totfact> 0.39314414E+01</totfact>
</mgrwt>
</event>
<event>
 4    2  0.2930016E-007  0.6933549E+03  0.7818608E-02  0.1002597E+00
         -2   -1    0    0    0  501 -0.00000000000E+00  0.00000000000E+00  0.32337416391E+03  0.32337416392E+03  0.25500000000E-02 0.  1.
          2   -1    0    0  501    0  0.00000000000E+00 -0.00000000000E+00 -0.91909882637E+03  0.91909882637E+03  0.25500000000E-02 0. -1.
    8880023    1    1    2    0    0 -0.77594906576E+02 -0.20226178387E+03 -0.67299326086E+03  0.96626131774E+03  0.65864270000E+03 0. -1.
    8880022    1    1    2    0    0  0.77594906576E+02  0.20226178387E+03  0.77268598407E+02  0.27621167255E+03  0.15294330000E+03 0.  0.
<mgrwt>
<rscale>  0 0.54525975E+03</rscale>
<asrwt>0</asrwt>
<pdfrwt beam="1">  1        2 0.14139982E+00 0.69335489E+03</pdfrwt>
<pdfrwt beam="2">  1       -2 0.49749872E-01 0.69335489E+03</pdfrwt>
<totfact> 0.11064863E+02</totfact>
</mgrwt>
</event>
<event>
 4    2  0.2930016E-007  0.7433632E+03  0.7818608E-02  0.9850256E-01
         -2   -1    0    0    0  501 -0.00000000000E+00  0.00000000000E+00  0.28693010400E+03  0.28693010402E+03  0.25500000000E-02 0.  1.
          2   -1    0    0  501    0  0.00000000000E+00 -0.00000000000E+00 -0.13476005690E+04  0.13476005690E+04  0.25500000000E-02 0. -1.
    8880023    1    1    2    0    0 -0.10812193364E+03 -0.32724351713E+03 -0.10100260364E+04  0.12540898981E+04  0.65864270000E+03 0. -1.
    8880022    1    1    2    0    0  0.10812193364E+03  0.32724351713E+03 -0.50644428564E+02  0.38044077489E+03  0.15294330000E+03 0.  0.
<mgrwt>
<rscale>  0 0.62733847E+03</rscale>
<asrwt>0</asrwt>
<pdfrwt beam="1">  1        2 0.20732316E+00 0.74336322E+03</pdfrwt>
<pdfrwt beam="2">  1       -2 0.44143094E-01 0.74336322E+03</pdfrwt>
<totfact> 0.76885958E+01</totfact>
</mgrwt>
</event>
<event>
 4    2  0.2930016E-007  0.8101262E+03  0.7818608E-02  0.9689314E-01
          2   -1    0    0  501    0  0.00000000000E+00  0.00000000000E+00  0.69466653823E+03  0.69466653824E+03  0.25500000000E-02 0. -1.
         -2   -1    0    0    0  501 -0.00000000000E+00 -0.00000000000E+00 -0.12282427157E+04  0.12282427157E+04  0.25500000000E-02 0.  1.
    8880023    1    1    2    0    0 -0.21816799508E+03  0.41820688770E+03  0.37123157710E+03  0.89113263047E+03  0.65864270000E+03 0. -1.
    8880022    1    1    2    0    0  0.21816799508E+03 -0.41820688770E+03 -0.90480775461E+03  0.10317766235E+04  0.15294330000E+03 0.  0.
<mgrwt>
<rscale>  0 0.71656604E+03</rscale>
<asrwt>0</asrwt>
<pdfrwt beam="1">  1        2 0.10687178E+00 0.81012621E+03</pdfrwt>
<pdfrwt beam="2">  1       -2 0.18896042E+00 0.81012621E+03</pdfrwt>
<totfact> 0.65960347E+00</totfact>
</mgrwt>
</event>
<event>
 4    2  0.2930016E-007  0.7637566E+03  0.7818608E-02  0.9795477E-01
          2   -1    0    0  501    0  0.00000000000E+00  0.00000000000E+00  0.17206731642E+04  0.17206731642E+04  0.25500000000E-02 0. -1.
         -2   -1    0    0    0  501 -0.00000000000E+00 -0.00000000000E+00 -0.69744547656E+03  0.69744547657E+03  0.25500000000E-02 0.  1.
    8880023    1    1    2    0    0 -0.38546981459E+03 -0.30446989699E+02  0.15613007354E+04  0.17380978654E+04  0.65864270000E+03 0. -1.
    8880022    1    1    2    0    0  0.38546981459E+03  0.30446989699E+02 -0.53807304777E+03  0.68002077534E+03  0.15294330000E+03 0.  1.
<mgrwt>
<rscale>  0 0.65605824E+03</rscale>
<asrwt>0</asrwt>
<pdfrwt beam="1">  1        2 0.26471895E+00 0.76375664E+03</pdfrwt>
<pdfrwt beam="2">  1       -2 0.10729930E+00 0.76375664E+03</pdfrwt>
<totfact> 0.68457109E+00</totfact>
</mgrwt>
</event>
<event>
 4    2  0.2930016E-007  0.8413714E+03  0.7818608E-02  0.9627600E-01
         -2   -1    0    0    0  501 -0.00000000000E+00  0.00000000000E+00  0.11080803184E+04  0.11080803184E+04  0.25500000000E-02 0.  1.
          2   -1    0    0  501    0  0.00000000000E+00 -0.00000000000E+00 -0.10455122825E+04  0.10455122825E+04  0.25500000000E-02 0. -1.
    8880023    1    1    2    0    0  0.35327627981E+03 -0.38638250728E+03 -0.78170508520E+03  0.11484635903E+04  0.65864270000E+03 0. -1.
    8880022    1    1    2    0    0 -0.35327627981E+03  0.38638250728E+03  0.84427312110E+03  0.10051290105E+04  0.15294330000E+03 0.  0.
<mgrwt>
<rscale>  0 0.75496069E+03</rscale>
<asrwt>0</asrwt>
<pdfrwt beam="1">  1        2 0.16084804E+00 0.84137137E+03</pdfrwt>
<pdfrwt beam="2">  1       -2 0.17047389E+00 0.84137137E+03</pdfrwt>
<totfact> 0.50269422E+00</totfact>
</mgrwt>
</event>
<event>
 4    2  0.2930016E-007  0.8258398E+03  0.7818608E-02  0.9657482E-01
          2   -1    0    0  501    0  0.00000000000E+00  0.00000000000E+00  0.16569312681E+04  0.16569312681E+04  0.25500000000E-02 0. -1.
         -2   -1    0    0    0  501 -0.00000000000E+00 -0.00000000000E+00 -0.66566186066E+03  0.66566186066E+03  0.25500000000E-02 0.  1.
    8880023    1    1    2    0    0  0.48025446862E+03 -0.13250194958E+03  0.14233790486E+04  0.16456060414E+04  0.65864270000E+03 0.  0.
    8880022    1    1    2    0    0 -0.48025446862E+03  0.13250194958E+03 -0.43210964124E+03  0.67698708727E+03  0.15294330000E+03 0.  1.
<mgrwt>
<rscale>  0 0.73605730E+03</rscale>
<asrwt>0</asrwt>
<pdfrwt beam="1">  1        2 0.25491250E+00 0.82583977E+03</pdfrwt>
<pdfrwt beam="2">  1       -2 0.10240952E+00 0.82583977E+03</pdfrwt>
<totfact> 0.82279877E+00</totfact>
</mgrwt>
</event>
<event>
 4    2  0.2930016E-007  0.9505356E+03  0.7818608E-02  0.9449344E-01
          2   -1    0    0  501    0  0.00000000000E+00  0.00000000000E+00  0.72937785850E+03  0.72937785850E+03  0.25500000000E-02 0. -1.
         -2   -1    0    0    0  501 -0.00000000000E+00 -0.00000000000E+00 -0.12723611547E+04  0.12723611547E+04  0.25500000000E-02 0.  1.
    8880023    1    1    2    0    0 -0.56468081338E+03 -0.38838543398E+03  0.20860362940E+03  0.97315638352E+03  0.65864270000E+03 0.  0.
    8880022    1    1    2    0    0  0.56468081338E+03  0.38838543398E+03 -0.75158692559E+03  0.10285826297E+04  0.15294330000E+03 0.  0.
<mgrwt>
<rscale>  0 0.88123773E+03</rscale>
<asrwt>0</asrwt>
<pdfrwt beam="1">  1        2 0.11221198E+00 0.95053557E+03</pdfrwt>
<pdfrwt beam="2">  1       -2 0.19574787E+00 0.95053557E+03</pdfrwt>
<totfact> 0.55041774E+00</totfact>
</mgrwt>
</event>
<event>
 4    2  0.2930016E-007  0.9179385E+03  0.7818608E-02  0.9497827E-01
          2   -1    0    0  501    0  0.00000000000E+00  0.00000000000E+00  0.46365327847E+03  0.46365327847E+03  0.25500000000E-02 0. -1.
         -2   -1    0    0    0  501 -0.00000000000E+00 -0.00000000000E+00 -0.20131251955E+04  0.20131251955E+04  0.25500000000E-02 0.  1.
    8880023    1    1    2    0    0  0.63572311622E+03 -0.68242494562E+02 -0.14936642258E+03  0.93001153381E+03  0.65864270000E+03 0. -1.
    8880022    1    1    2    0    0 -0.63572311622E+03  0.68242494562E+02 -0.14001054944E+04  0.15467669402E+04  0.15294330000E+03 0.  0.
<mgrwt>
<rscale>  0 0.84444206E+03</rscale>
<asrwt>0</asrwt>
<pdfrwt beam="1">  1        2 0.71331275E-01 0.91793852E+03</pdfrwt>
<pdfrwt beam="2">  1       -2 0.30971156E+00 0.91793852E+03</pdfrwt>
<totfact> 0.18977727E+00</totfact>
</mgrwt>
</event>
<event>
 4    2  0.2930016E-007  0.6732242E+03  0.7818608E-02  0.1013450E+00
         -2   -1    0    0    0  501 -0.00000000000E+00  0.00000000000E+00  0.12687364153E+03  0.12687364156E+03  0.25500000000E-02 0.  1.
          2   -1    0    0  501    0  0.00000000000E+00 -0.00000000000E+00 -0.21715341161E+04  0.21715341161E+04  0.25500000000E-02 0. -1.
    8880023    1    1    2    0    0  0.12563469398E+03 -0.60303662769E+02 -0.19642563662E+04  0.20764233399E+04  0.65864270000E+03 0. -1.
    8880022    1    1    2    0    0 -0.12563469398E+03  0.60303662769E+02 -0.80404108382E+02  0.22198441777E+03  0.15294330000E+03 0.  0.
<mgrwt>
<rscale>  0 0.50126318E+03</rscale>
<asrwt>0</asrwt>
<pdfrwt beam="1">  1        2 0.33408215E+00 0.67322419E+03</pdfrwt>
<pdfrwt beam="2">  1       -2 0.19519023E-01 0.67322419E+03</pdfrwt>
<totfact> 0.12384955E+02</totfact>
</mgrwt>
</event>
<event>
 4    2  0.2930016E-007  0.6858013E+03  0.7818608E-02  0.1006216E+00
          2   -1    0    0  501    0  0.00000000000E+00  0.00000000000E+00  0.13994865014E+04  0.13994865014E+04  0.25500000000E-02 0. -1.
         -2   -1    0    0    0  501 -0.00000000000E+00 -0.00000000000E+00 -0.40835645411E+03  0.40835645412E+03  0.25500000000E-02 0.  1.
    8880023    1    1    2    0    0  0.71073123079E+01 -0.19095206271E+03  0.12659858936E+04  0.14398068250E+04  0.65864270000E+03 0. -1.
    8880022    1    1    2    0    0 -0.71073123079E+01  0.19095206271E+03 -0.27485584631E+03  0.36803613057E+03  0.15294330000E+03 0.  0.
<mgrwt>
<rscale>  0 0.53006787E+03</rscale>
<asrwt>0</asrwt>
<pdfrwt beam="1">  1        2 0.21530562E+00 0.68580129E+03</pdfrwt>
<pdfrwt beam="2">  1       -2 0.62824070E-01 0.68580129E+03</pdfrwt>
<totfact> 0.34987061E+01</totfact>
</mgrwt>
</event>
<event>
 4    2  0.2930016E-007  0.6823361E+03  0.7818608E-02  0.1008032E+00
          2   -1    0    0  501    0  0.00000000000E+00  0.00000000000E+00  0.78877298971E+03  0.78877298972E+03  0.25500000000E-02 0. -1.
         -2   -1    0    0    0  501 -0.00000000000E+00 -0.00000000000E+00 -0.46305649186E+03  0.46305649187E+03  0.25500000000E-02 0.  1.
    8880023    1    1    2    0    0 -0.14033033132E+03  0.10990804843E+03  0.58729710128E+03  0.90027799730E+03  0.65864270000E+03 0.  0.
    8880022    1    1    2    0    0  0.14033033132E+03 -0.10990804843E+03 -0.26158060343E+03  0.35155148428E+03  0.15294330000E+03 0.  1.
<mgrwt>
<rscale>  0 0.52264377E+03</rscale>
<asrwt>0</asrwt>
<pdfrwt beam="1">  1        2 0.12134969E+00 0.68233612E+03</pdfrwt>
<pdfrwt beam="2">  1       -2 0.71239461E-01 0.68233612E+03</pdfrwt>
<totfact> 0.63952211E+01</totfact>
</mgrwt>
</event>
<event>
 4    2  0.2930016E-007  0.1213169E+04  0.7818608E-02  0.9144427E-01
         -2   -1    0    0    0  501 -0.00000000000E+00  0.00000000000E+00  0.14536628311E+04  0.14536628311E+04  0.25500000000E-02 0.  1.
          2   -1    0    0  501    0  0.00000000000E+00 -0.00000000000E+00 -0.16207937580E+04  0.16207937580E+04  0.25500000000E-02 0. -1.
    8880023    1    1    2    0    0 -0.47733911024E+03  0.90006403104E+03 -0.11346919071E+04  0.16611152328E+04  0.65864270000E+03 0. -1.
    8880022    1    1    2    0    0  0.47733911024E+03 -0.90006403104E+03  0.96756098024E+03  0.14133413564E+04  0.15294330000E+03 0.  0.
<mgrwt>
<rscale>  0 0.11645917E+04</rscale>
<asrwt>0</asrwt>
<pdfrwt beam="1">  1        2 0.24935289E+00 0.12131686E+04</pdfrwt>
<pdfrwt beam="2">  1       -2 0.22364044E+00 0.12131686E+04</pdfrwt>
<totfact> 0.98605698E-01</totfact>
</mgrwt>
</event>
<event>
 4    2  0.2930016E-007  0.7856606E+03  0.7818608E-02  0.9742704E-01
         -2   -1    0    0    0  501 -0.00000000000E+00  0.00000000000E+00  0.73762030234E+03  0.73762030235E+03  0.25500000000E-02 0.  1.
          2   -1    0    0  501    0  0.00000000000E+00 -0.00000000000E+00 -0.15716334996E+04  0.15716334996E+04  0.25500000000E-02 0. -1.
    8880023    1    1    2    0    0  0.36038286096E+03  0.23146616051E+03 -0.13865157363E+04  0.15936400105E+04  0.65864270000E+03 0. -1.
    8880022    1    1    2    0    0 -0.36038286096E+03 -0.23146616051E+03  0.55250253899E+03  0.71561379146E+03  0.15294330000E+03 0.  0.
<mgrwt>
<rscale>  0 0.68530139E+03</rscale>
<asrwt>0</asrwt>
<pdfrwt beam="1">  1        2 0.24178977E+00 0.78566061E+03</pdfrwt>
<pdfrwt beam="2">  1       -2 0.11348005E+00 0.78566061E+03</pdfrwt>
<totfact> 0.71955853E+00</totfact>
</mgrwt>
</event>
<event>
 4    2  0.2930016E-007  0.1225025E+04  0.7818608E-02  0.9133172E-01
          2   -1    0    0  501    0  0.00000000000E+00  0.00000000000E+00  0.26302323157E+04  0.26302323157E+04  0.25500000000E-02 0. -1.
         -2   -1    0    0    0  501 -0.00000000000E+00 -0.00000000000E+00 -0.13701268973E+04  0.13701268973E+04  0.25500000000E-02 0.  1.
    8880023    1    1    2    0    0 -0.77873124094E+03 -0.67856719413E+03  0.22497976137E+04  0.25616938325E+04  0.65864270000E+03 0. -1.
    8880022    1    1    2    0    0  0.77873124094E+03  0.67856719413E+03 -0.98969219531E+03  0.14386653805E+04  0.15294330000E+03 0.  0.
<mgrwt>
<rscale>  0 0.11770646E+04</rscale>
<asrwt>0</asrwt>
<pdfrwt beam="1">  1        2 0.40465112E+00 0.12250249E+04</pdfrwt>
<pdfrwt beam="2">  1       -2 0.21078876E+00 0.12250249E+04</pdfrwt>
<totfact> 0.32194597E-01</totfact>
</mgrwt>
</event>
<event>
 4    2  0.2930016E-007  0.7499109E+03  0.7818608E-02  0.9831964E-01
         -2   -1    0    0    0  501 -0.00000000000E+00  0.00000000000E+00  0.25889910304E+03  0.25889910305E+03  0.25500000000E-02 0.  1.
          2   -1    0    0  501    0  0.00000000000E+00 -0.00000000000E+00 -0.26842784801E+04  0.26842784801E+04  0.25500000000E-02 0. -1.
    8880023    1    1    2    0    0 -0.15481633685E+03 -0.32340069284E+03 -0.24404624247E+04  0.25530811110E+04  0.65864270000E+03 0. -1.
    8880022    1    1    2    0    0  0.15481633685E+03  0.32340069284E+03  0.15083047679E+02  0.39009647220E+03  0.15294330000E+03 0.  0.
<mgrwt>
<rscale>  0 0.63675010E+03</rscale>
<asrwt>0</asrwt>
<pdfrwt beam="1">  1        2 0.41296590E+00 0.74991087E+03</pdfrwt>
<pdfrwt beam="2">  1       -2 0.39830633E-01 0.74991087E+03</pdfrwt>
<totfact> 0.17012690E+01</totfact>
</mgrwt>
</event>
<event>
 4    2  0.2930016E-007  0.7957658E+03  0.7818608E-02  0.9720027E-01
         -2   -1    0    0    0  501 -0.00000000000E+00  0.00000000000E+00  0.38730411741E+03  0.38730411742E+03  0.25500000000E-02 0.  1.
          2   -1    0    0  501    0  0.00000000000E+00 -0.00000000000E+00 -0.12438728552E+04  0.12438728552E+04  0.25500000000E-02 0. -1.
    8880023    1    1    2    0    0  0.21627400952E+03 -0.39071538734E+03 -0.84253478941E+03  0.11589253810E+04  0.65864270000E+03 0. -1.
    8880022    1    1    2    0    0 -0.21627400952E+03  0.39071538734E+03 -0.14033948414E+02  0.47225159165E+03  0.15294330000E+03 0.  0.
<mgrwt>
<rscale>  0 0.69836801E+03</rscale>
<asrwt>0</asrwt>
<pdfrwt beam="1">  1        2 0.19136505E+00 0.79576577E+03</pdfrwt>
<pdfrwt beam="2">  1       -2 0.59585249E-01 0.79576577E+03</pdfrwt>
<totfact> 0.47533690E+01</totfact>
</mgrwt>
</event>
<event>
 4    2  0.2930016E-007  0.7017964E+03  0.7818608E-02  0.9989829E-01
          2   -1    0    0  501    0  0.00000000000E+00  0.00000000000E+00  0.14921252649E+04  0.14921252649E+04  0.25500000000E-02 0. -1.
         -2   -1    0    0    0  501 -0.00000000000E+00 -0.00000000000E+00 -0.38345052933E+03  0.38345052934E+03  0.25500000000E-02 0.  1.
    8880023    1    1    2    0    0 -0.15412373562E+03  0.18695950859E+03  0.13364716012E+04  0.15095279166E+04  0.65864270000E+03 0. -1.
    8880022    1    1    2    0    0  0.15412373562E+03 -0.18695950859E+03 -0.22779686565E+03  0.36604787768E+03  0.15294330000E+03 0.  0.
<mgrwt>
<rscale>  0 0.56098469E+03</rscale>
<asrwt>0</asrwt>
<pdfrwt beam="1">  1        2 0.22955774E+00 0.70179640E+03</pdfrwt>
<pdfrwt beam="2">  1       -2 0.58992388E-01 0.70179640E+03</pdfrwt>
<totfact> 0.35404012E+01</totfact>
</mgrwt>
</event>
<event>
 4    2  0.2930016E-007  0.1159430E+04  0.7818608E-02  0.9197605E-01
          2   -1    0    0  501    0  0.00000000000E+00  0.00000000000E+00  0.47053949265E+03  0.47053949266E+03  0.25500000000E-02 0. -1.
         -2   -1    0    0    0  501 -0.00000000000E+00 -0.00000000000E+00 -0.36960889019E+04  0.36960889019E+04  0.25500000000E-02 0.  1.
    8880023    1    1    2    0    0 -0.17578056374E+03 -0.93785367370E+03 -0.47801714018E+03  0.12541048251E+04  0.65864270000E+03 0. -1.
    8880022    1    1    2    0    0  0.17578056374E+03  0.93785367370E+03 -0.27475322691E+04  0.29125235695E+04  0.15294330000E+03 0.  0.
<mgrwt>
<rscale>  0 0.11078187E+04</rscale>
<asrwt>0</asrwt>
<pdfrwt beam="1">  1        2 0.72390693E-01 0.11594303E+04</pdfrwt>
<pdfrwt beam="2">  1       -2 0.56862905E+00 0.11594303E+04</pdfrwt>
<totfact> 0.44324467E-02</totfact>
</mgrwt>
</event>
<event>
 4    2  0.2930016E-007  0.9297753E+03  0.7818608E-02  0.9479830E-01
          2   -1    0    0  501    0  0.00000000000E+00  0.00000000000E+00  0.14531820684E+04  0.14531820684E+04  0.25500000000E-02 0. -1.
         -2   -1    0    0    0  501 -0.00000000000E+00 -0.00000000000E+00 -0.96472875828E+03  0.96472875828E+03  0.25500000000E-02 0.  1.
    8880023    1    1    2    0    0 -0.65479044460E+03 -0.43832540711E+02  0.11464539764E+04  0.14760890029E+04  0.65864270000E+03 0. -1.
    8880022    1    1    2    0    0  0.65479044460E+03  0.43832540711E+02 -0.65800066632E+03  0.94182182384E+03  0.15294330000E+03 0.  0.
<mgrwt>
<rscale>  0 0.85787312E+03</rscale>
<asrwt>0</asrwt>
<pdfrwt beam="1">  1        2 0.22356647E+00 0.92977525E+03</pdfrwt>
<pdfrwt beam="2">  1       -2 0.14841981E+00 0.92977525E+03</pdfrwt>
<totfact> 0.41609774E+00</totfact>
</mgrwt>
</event>
<event>
 4    2  0.2930016E-007  0.6936447E+03  0.7818608E-02  0.1002466E+00
         -2   -1    0    0    0  501 -0.00000000000E+00  0.00000000000E+00  0.56546202438E+03  0.56546202438E+03  0.25500000000E-02 0.  1.
          2   -1    0    0  501    0  0.00000000000E+00 -0.00000000000E+00 -0.80244242533E+03  0.80244242534E+03  0.25500000000E-02 0. -1.
    8880023    1    1    2    0    0  0.10110077247E+03 -0.19264320300E+03 -0.60051836944E+03  0.91747767720E+03  0.65864270000E+03 0. -1.
    8880022    1    1    2    0    0 -0.10110077247E+03  0.19264320300E+03  0.36353796849E+03  0.45042677252E+03  0.15294330000E+03 0.  0.
<mgrwt>
<rscale>  0 0.54581942E+03</rscale>
<asrwt>0</asrwt>
<pdfrwt beam="1">  1        2 0.12345268E+00 0.69364470E+03</pdfrwt>
<pdfrwt beam="2">  1       -2 0.86994158E-01 0.69364470E+03</pdfrwt>
<totfact> 0.39943216E+01</totfact>
</mgrwt>
</event>
<event>
 4    2  0.2930016E-007  0.1052663E+04  0.7818608E-02  0.9315687E-01
         -2   -1    0    0    0  501 -0.00000000000E+00  0.00000000000E+00  0.10444994821E+04  0.10444994821E+04  0.25500000000E-02 0.  1.
          2   -1    0    0  501    0  0.00000000000E+00 -0.00000000000E+00 -0.13217764275E+04  0.13217764275E+04  0.25500000000E-02 0. -1.
    8880023    1    1    2    0    0  0.80265580767E+03  0.17329885952E+03  0.55254736333E+03  0.11888682161E+04  0.65864270000E+03 0.  1.
    8880022    1    1    2    0    0 -0.80265580767E+03 -0.17329885952E+03 -0.82982430875E+03  0.11774076935E+04  0.15294330000E+03 0.  0.
<mgrwt>
<rscale>  0 0.99351411E+03</rscale>
<asrwt>0</asrwt>
<pdfrwt beam="1">  1        2 0.20335022E+00 0.10526628E+04</pdfrwt>
<pdfrwt beam="2">  1       -2 0.16069223E+00 0.10526628E+04</pdfrwt>
<totfact> 0.39406315E+00</totfact>
</mgrwt>
</event>
<event>
 4    2  0.2930016E-007  0.9625229E+03  0.7818608E-02  0.9432321E-01
         -2   -1    0    0    0  501 -0.00000000000E+00  0.00000000000E+00  0.46131207209E+03  0.46131207209E+03  0.25500000000E-02 0.  1.
          2   -1    0    0  501    0  0.00000000000E+00 -0.00000000000E+00 -0.23643798827E+04  0.23643798827E+04  0.25500000000E-02 0. -1.
    8880023    1    1    2    0    0 -0.70080625423E+03  0.38867499464E+02 -0.18740200614E+04  0.21067514057E+04  0.65864270000E+03 0.  0.
    8880022    1    1    2    0    0  0.70080625423E+03 -0.38867499464E+02 -0.29047749249E+02  0.71894054916E+03  0.15294330000E+03 0.  0.
<mgrwt>
<rscale>  0 0.89462875E+03</rscale>
<asrwt>0</asrwt>
<pdfrwt beam="1">  1        2 0.36375074E+00 0.96252288E+03</pdfrwt>
<pdfrwt beam="2">  1       -2 0.70971089E-01 0.96252288E+03</pdfrwt>
<totfact> 0.76151461E+00</totfact>
</mgrwt>
</event>
<event>
 4    2  0.2930016E-007  0.6613943E+03  0.7818608E-02  0.1022771E+00
          2   -1    0    0  501    0  0.00000000000E+00  0.00000000000E+00  0.75853523803E+03  0.75853523804E+03  0.25500000000E-02 0. -1.
         -2   -1    0    0    0  501 -0.00000000000E+00 -0.00000000000E+00 -0.72822261503E+03  0.72822261504E+03  0.25500000000E-02 0.  1.
    8880023    1    1    2    0    0  0.23142103982E+02 -0.55648035045E+02  0.60050838383E+03  0.89333800216E+03  0.65864270000E+03 0.  0.
    8880022    1    1    2    0    0 -0.23142103982E+02  0.55648035045E+02 -0.57019576083E+03  0.59341985092E+03  0.15294330000E+03 0.  1.
<mgrwt>
<rscale>  0 0.46699678E+03</rscale>
<asrwt>0</asrwt>
<pdfrwt beam="1">  1        2 0.11669773E+00 0.66139434E+03</pdfrwt>
<pdfrwt beam="2">  1       -2 0.11203425E+00 0.66139434E+03</pdfrwt>
<totfact> 0.23754561E+01</totfact>
</mgrwt>
</event>
<event>
 4    2  0.2930016E-007  0.7705391E+03  0.7818608E-02  0.9778549E-01
         -2   -1    0    0    0  501 -0.00000000000E+00  0.00000000000E+00  0.23158644529E+04  0.23158644529E+04  0.25500000000E-02 0.  1.
          2   -1    0    0  501    0  0.00000000000E+00 -0.00000000000E+00 -0.73088376819E+03  0.73088376819E+03  0.25500000000E-02 0. -1.
    8880023    1    1    2    0    0 -0.31580253113E+03 -0.24533444918E+03 -0.49981188786E+03  0.91844562176E+03  0.65864270000E+03 0.  0.
    8880022    1    1    2    0    0  0.31580253113E+03  0.24533444918E+03  0.20847925725E+04  0.21283025993E+04  0.15294330000E+03 0.  0.
<mgrwt>
<rscale>  0 0.66526522E+03</rscale>
<asrwt>0</asrwt>
<pdfrwt beam="1">  1        2 0.11244366E+00 0.77053906E+03</pdfrwt>
<pdfrwt beam="2">  1       -2 0.35628683E+00 0.77053906E+03</pdfrwt>
<totfact> 0.57978205E-01</totfact>
</mgrwt>
</event>
<event>
 4    2  0.2930016E-007  0.1258587E+04  0.7818608E-02  0.9102174E-01
          2   -1    0    0  501    0  0.00000000000E+00  0.00000000000E+00  0.24029121181E+04  0.24029121181E+04  0.25500000000E-02 0. -1.
         -2   -1    0    0    0  501 -0.00000000000E+00 -0.00000000000E+00 -0.92693952806E+03  0.92693952806E+03  0.25500000000E-02 0.  1.
    8880023    1    1    2    0    0 -0.97410111728E+03  0.44872866158E+03  0.18024590346E+04  0.21983855840E+04  0.65864270000E+03 0.  0.
    8880022    1    1    2    0    0  0.97410111728E+03 -0.44872866158E+03 -0.32648644451E+03  0.11314660622E+04  0.15294330000E+03 0.  0.
<mgrwt>
<rscale>  0 0.12122813E+04</rscale>
<asrwt>0</asrwt>
<pdfrwt beam="1">  1        2 0.36967878E+00 0.12585867E+04</pdfrwt>
<pdfrwt beam="2">  1       -2 0.14260608E+00 0.12585867E+04</pdfrwt>
<totfact> 0.13153865E+00</totfact>
</mgrwt>
</event>
<event>
 4    2  0.2930016E-007  0.9672386E+03  0.7818608E-02  0.9425734E-01
          2   -1    0    0  501    0  0.00000000000E+00  0.00000000000E+00  0.18739131005E+04  0.18739131006E+04  0.25500000000E-02 0. -1.
         -2   -1    0    0    0  501 -0.00000000000E+00 -0.00000000000E+00 -0.16337153430E+04  0.16337153430E+04  0.25500000000E-02 0.  1.
    8880023    1    1    2    0    0 -0.35512353865E+02  0.70744557620E+03 -0.14073906283E+04  0.17077174700E+04  0.65864270000E+03 0.  0.
    8880022    1    1    2    0    0  0.35512353865E+02 -0.70744557620E+03  0.16475883858E+04  0.17999109735E+04  0.15294330000E+03 0.  0.
<mgrwt>
<rscale>  0 0.89987832E+03</rscale>
<asrwt>0</asrwt>
<pdfrwt beam="1">  1        2 0.28829432E+00 0.96723863E+03</pdfrwt>
<pdfrwt beam="2">  1       -2 0.25134082E+00 0.96723863E+03</pdfrwt>
<totfact> 0.49870161E-01</totfact>
</mgrwt>
</event>
<event>
 4    2  0.2930016E-007  0.8720738E+03  0.7818608E-02  0.9572437E-01
          2   -1    0    0  501    0  0.00000000000E+00  0.00000000000E+00  0.89173313675E+03  0.89173313675E+03  0.25500000000E-02 0. -1.
         -2   -1    0    0    0  501 -0.00000000000E+00 -0.00000000000E+00 -0.13645984875E+04  0.13645984875E+04  0.25500000000E-02 0.  1.
    8880023    1    1    2    0    0 -0.19862725206E+03  0.53595686372E+03  0.58088526452E+03  0.10478265323E+04  0.65864270000E+03 0. -1.
    8880022    1    1    2    0    0  0.19862725206E+03 -0.53595686372E+03 -0.10537506153E+04  0.12085050919E+04  0.15294330000E+03 0.  0.
<mgrwt>
<rscale>  0 0.79147655E+03</rscale>
<asrwt>0</asrwt>
<pdfrwt beam="1">  1        2 0.13718971E+00 0.87207382E+03</pdfrwt>
<pdfrwt beam="2">  1       -2 0.20993823E+00 0.87207382E+03</pdfrwt>
<totfact> 0.34311659E+00</totfact>
</mgrwt>
</event>
<event>
 4    2  0.2930016E-007  0.7708234E+03  0.7818608E-02  0.9777852E-01
          2   -1    0    0  501    0  0.00000000000E+00  0.00000000000E+00  0.16445386425E+04  0.16445386425E+04  0.25500000000E-02 0. -1.
         -2   -1    0    0    0  501 -0.00000000000E+00 -0.00000000000E+00 -0.24255619324E+03  0.24255619325E+03  0.25500000000E-02 0.  1.
    8880023    1    1    2    0    0  0.25164799886E+03 -0.31149922096E+03  0.59656557431E+03  0.97470978794E+03  0.65864270000E+03 0.  0.
    8880022    1    1    2    0    0 -0.25164799886E+03  0.31149922096E+03  0.80541687493E+03  0.91238504779E+03  0.15294330000E+03 0.  1.
<mgrwt>
<rscale>  0 0.66564798E+03</rscale>
<asrwt>0</asrwt>
<pdfrwt beam="1">  1        2 0.25300594E+00 0.77082338E+03</pdfrwt>
<pdfrwt beam="2">  1       -2 0.37316338E-01 0.77082338E+03</pdfrwt>
<totfact> 0.72717685E+01</totfact>
</mgrwt>
</event>
<event>
 4    2  0.2930016E-007  0.7376002E+03  0.7818608E-02  0.9866994E-01
          2   -1    0    0  501    0  0.00000000000E+00  0.00000000000E+00  0.14362895024E+04  0.14362895024E+04  0.25500000000E-02 0. -1.
         -2   -1    0    0    0  501 -0.00000000000E+00 -0.00000000000E+00 -0.87682309055E+03  0.87682309055E+03  0.25500000000E-02 0.  1.
    8880023    1    1    2    0    0  0.25362540679E+03 -0.21428471108E+03  0.12958026128E+04  0.14910259562E+04  0.65864270000E+03 0. -1.
    8880022    1    1    2    0    0 -0.25362540679E+03  0.21428471108E+03 -0.73633620100E+03  0.82208663673E+03  0.15294330000E+03 0.  0.
<mgrwt>
<rscale>  0 0.61887930E+03</rscale>
<asrwt>0</asrwt>
<pdfrwt beam="1">  1        2 0.22096761E+00 0.73760016E+03</pdfrwt>
<pdfrwt beam="2">  1       -2 0.13489586E+00 0.73760016E+03</pdfrwt>
<totfact> 0.55969458E+00</totfact>
</mgrwt>
</event>
<event>
 4    2  0.2930016E-007  0.7195379E+03  0.7818608E-02  0.9924153E-01
         -2   -1    0    0    0  501 -0.00000000000E+00  0.00000000000E+00  0.36138330271E+03  0.36138330272E+03  0.25500000000E-02 0.  1.
          2   -1    0    0  501    0  0.00000000000E+00 -0.00000000000E+00 -0.13884994843E+04  0.13884994843E+04  0.25500000000E-02 0. -1.
    8880023    1    1    2    0    0 -0.27584740312E+03 -0.88503107770E+02 -0.11849085110E+04  0.13862694455E+04  0.65864270000E+03 0. -1.
    8880022    1    1    2    0    0  0.27584740312E+03  0.88503107770E+02  0.15779232939E+03  0.36361334151E+03  0.15294330000E+03 0.  0.
<mgrwt>
<rscale>  0 0.59104894E+03</rscale>
<asrwt>0</asrwt>
<pdfrwt beam="1">  1        2 0.21361530E+00 0.71953790E+03</pdfrwt>
<pdfrwt beam="2">  1       -2 0.55597432E-01 0.71953790E+03</pdfrwt>
<totfact> 0.45718380E+01</totfact>
</mgrwt>
</event>
<event>
 4    2  0.2930016E-007  0.9895194E+03  0.7818608E-02  0.9395400E-01
          2   -1    0    0  501    0  0.00000000000E+00  0.00000000000E+00  0.12281571609E+04  0.12281571609E+04  0.25500000000E-02 0. -1.
         -2   -1    0    0    0  501 -0.00000000000E+00 -0.00000000000E+00 -0.11546575394E+04  0.11546575394E+04  0.25500000000E-02 0.  1.
    8880023    1    1    2    0    0 -0.70866499560E+03  0.20768337125E+03  0.84700144338E+03  0.13025206755E+04  0.65864270000E+03 0. -1.
    8880022    1    1    2    0    0  0.70866499560E+03 -0.20768337125E+03 -0.77350182187E+03  0.10802940249E+04  0.15294330000E+03 0.  0.
<mgrwt>
<rscale>  0 0.92455237E+03</rscale>
<asrwt>0</asrwt>
<pdfrwt beam="1">  1        2 0.18894726E+00 0.98951941E+03</pdfrwt>
<pdfrwt beam="2">  1       -2 0.17763962E+00 0.98951941E+03</pdfrwt>
<totfact> 0.34060166E+00</totfact>
</mgrwt>
</event>
<event>
 4    2  0.2930016E-007  0.1175296E+04  0.7818608E-02  0.9181518E-01
         -2   -1    0    0    0  501 -0.00000000000E+00  0.00000000000E+00  0.29555785081E+04  0.29555785081E+04  0.25500000000E-02 0.  1.
          2   -1    0    0  501    0  0.00000000000E+00 -0.00000000000E+00 -0.10288022451E+04  0.10288022451E+04  0.25500000000E-02 0. -1.
    8880023    1    1    2    0    0  0.53982423417E+03 -0.81000051967E+03 -0.56559138521E+03  0.13043062780E+04  0.65864270000E+03 0. -1.
    8880022    1    1    2    0    0 -0.53982423417E+03  0.81000051967E+03  0.24923676482E+04  0.26800744752E+04  0.15294330000E+03 0.  0.
<mgrwt>
<rscale>  0 0.11246243E+04</rscale>
<asrwt>0</asrwt>
<pdfrwt beam="1">  1        2 0.15827727E+00 0.11752962E+04</pdfrwt>
<pdfrwt beam="2">  1       -2 0.45470437E+00 0.11752962E+04</pdfrwt>
<totfact> 0.77091312E-02</totfact>
</mgrwt>
</event>
<event>
 4    2  0.2930016E-007  0.6882831E+03  0.7818608E-02  0.1004980E+00
         -2   -1    0    0    0  501 -0.00000000000E+00  0.00000000000E+00  0.17523188450E+03  0.17523188452E+03  0.25500000000E-02 0.  1.
          2   -1    0    0  501    0  0.00000000000E+00 -0.00000000000E+00 -0.24154724206E+04  0.24154724206E+04  0.25500000000E-02 0. -1.
    8880023    1    1    2    0    0 -0.13768123398E+03 -0.14480067693E+03 -0.22354750151E+04  0.23390344392E+04  0.65864270000E+03 0. -1.
    8880022    1    1    2    0    0  0.13768123398E+03  0.14480067693E+03 -0.47655210151E+01  0.25166986597E+03  0.15294330000E+03 0.  0.
<mgrwt>
<rscale>  0 0.53519697E+03</rscale>
<asrwt>0</asrwt>
<pdfrwt beam="1">  1        2 0.37161112E+00 0.68828306E+03</pdfrwt>
<pdfrwt beam="2">  1       -2 0.26958753E-01 0.68828306E+03</pdfrwt>
<totfact> 0.50966982E+01</totfact>
</mgrwt>
</event>
<event>
 4    2  0.2930016E-007  0.6588386E+03  0.7818608E-02  0.1025379E+00
         -2   -1    0    0    0  501 -0.00000000000E+00  0.00000000000E+00  0.85550459222E+02  0.85550459260E+02  0.25500000000E-02 0.  1.
          2   -1    0    0  501    0  0.00000000000E+00 -0.00000000000E+00 -0.19789920329E+04  0.19789920329E+04  0.25500000000E-02 0. -1.
    8880023    1    1    2    0    0 -0.67416778012E+01 -0.14582322152E+02 -0.16490573642E+04  0.17757979871E+04  0.65864270000E+03 0.  0.
    8880022    1    1    2    0    0  0.67416778012E+01  0.14582322152E+02 -0.24438420946E+03  0.28874450503E+03  0.15294330000E+03 0.  0.
<mgrwt>
<rscale>  0 0.45794423E+03</rscale>
<asrwt>0</asrwt>
<pdfrwt beam="1">  1        2 0.30446028E+00 0.65883860E+03</pdfrwt>
<pdfrwt beam="2">  1       -2 0.13161611E-01 0.65883860E+03</pdfrwt>
<totfact> 0.30884021E+02</totfact>
</mgrwt>
</event>
<event>
 4    2  0.2930016E-007  0.1057732E+04  0.7818608E-02  0.9309644E-01
          2   -1    0    0  501    0  0.00000000000E+00  0.00000000000E+00  0.63852960475E+03  0.63852960476E+03  0.25500000000E-02 0. -1.
         -2   -1    0    0    0  501 -0.00000000000E+00 -0.00000000000E+00 -0.25808514604E+04  0.25808514604E+04  0.25500000000E-02 0.  1.
    8880023    1    1    2    0    0 -0.34781838394E+03  0.75100497503E+03  0.47584272386E+02  0.10588014781E+04  0.65864270000E+03 0.  0.
    8880022    1    1    2    0    0  0.34781838394E+03 -0.75100497503E+03 -0.19899061280E+04  0.21605795871E+04  0.15294330000E+03 0.  0.
<mgrwt>
<rscale>  0 0.99899830E+03</rscale>
<asrwt>0</asrwt>
<pdfrwt beam="1">  1        2 0.98235325E-01 0.10577317E+04</pdfrwt>
<pdfrwt beam="2">  1       -2 0.39705406E+00 0.10577317E+04</pdfrwt>
<totfact> 0.36014928E-01</totfact>
</mgrwt>
</event>
<event>
 4    2  0.2930016E-007  0.7792485E+03  0.7818608E-02  0.9757605E-01
          2   -1    0    0  501    0  0.00000000000E+00  0.00000000000E+00  0.34957579314E+04  0.34957579314E+04  0.25500000000E-02 0. -1.
         -2   -1    0    0    0  501 -0.00000000000E+00 -0.00000000000E+00 -0.18771461880E+03  0.18771461882E+03  0.25500000000E-02 0.  1.
    8880023    1    1    2    0    0 -0.19326086290E+03  0.36887434373E+03  0.30945269481E+04  0.31911322883E+04  0.65864270000E+03 0.  0.
    8880022    1    1    2    0    0  0.19326086290E+03 -0.36887434373E+03  0.21351636450E+03  0.49234026193E+03  0.15294330000E+03 0.  0.
<mgrwt>
<rscale>  0 0.67688174E+03</rscale>
<asrwt>0</asrwt>
<pdfrwt beam="1">  1        2 0.53780891E+00 0.77924852E+03</pdfrwt>
<pdfrwt beam="2">  1       -2 0.28879172E-01 0.77924852E+03</pdfrwt>
<totfact> 0.96732784E+00</totfact>
</mgrwt>
</event>
<event>
 4    2  0.2930016E-007  0.6620386E+03  0.7818608E-02  0.1022159E+00
         -2   -1    0    0    0  501 -0.00000000000E+00  0.00000000000E+00  0.14938980315E+03  0.14938980318E+03  0.25500000000E-02 0.  1.
          2   -1    0    0  501    0  0.00000000000E+00 -0.00000000000E+00 -0.12052160106E+04  0.12052160106E+04  0.25500000000E-02 0. -1.
    8880023    1    1    2    0    0 -0.56354409549E+02  0.36181371520E+02 -0.94641532507E+03  0.11549879155E+04  0.65864270000E+03 0. -1.
    8880022    1    1    2    0    0  0.56354409549E+02 -0.36181371520E+02 -0.10941088236E+03  0.19961789828E+03  0.15294330000E+03 0. -1.
<mgrwt>
<rscale>  0 0.46915613E+03</rscale>
<asrwt>0</asrwt>
<pdfrwt beam="1">  1        2 0.18541784E+00 0.66203861E+03</pdfrwt>
<pdfrwt beam="2">  1       -2 0.22983047E-01 0.66203861E+03</pdfrwt>
<totfact> 0.31821580E+02</totfact>
</mgrwt>
</event>
<event>
 4    2  0.2930016E-007  0.9254777E+03  0.7818608E-02  0.9486311E-01
          2   -1    0    0  501    0  0.00000000000E+00  0.00000000000E+00  0.21623015889E+04  0.21623015889E+04  0.25500000000E-02 0. -1.
         -2   -1    0    0    0  501 -0.00000000000E+00 -0.00000000000E+00 -0.36324920657E+03  0.36324920658E+03  0.25500000000E-02 0.  1.
    8880023    1    1    2    0    0  0.40531400594E+03  0.50834957221E+03  0.46970492566E+03  0.10378495336E+04  0.65864270000E+03 0.  1.
    8880022    1    1    2    0    0 -0.40531400594E+03 -0.50834957221E+03  0.13293474567E+04  0.14877012619E+04  0.15294330000E+03 0.  0.
<mgrwt>
<rscale>  0 0.85300646E+03</rscale>
<asrwt>0</asrwt>
<pdfrwt beam="1">  1        2 0.33266179E+00 0.92547768E+03</pdfrwt>
<pdfrwt beam="2">  1       -2 0.55884493E-01 0.92547768E+03</pdfrwt>
<totfact> 0.16544591E+01</totfact>
</mgrwt>
</event>
<event>
 4    2  0.2930016E-007  0.7272389E+03  0.7818608E-02  0.9898812E-01
          2   -1    0    0  501    0  0.00000000000E+00  0.00000000000E+00  0.56632795056E+03  0.56632795056E+03  0.25500000000E-02 0. -1.
         -2   -1    0    0    0  501 -0.00000000000E+00 -0.00000000000E+00 -0.10698672793E+04  0.10698672793E+04  0.25500000000E-02 0.  1.
    8880023    1    1    2    0    0 -0.59091483761E+02  0.30261256901E+03  0.28087574733E+03  0.77959448566E+03  0.65864270000E+03 0. -1.
    8880022    1    1    2    0    0  0.59091483761E+02 -0.30261256901E+03 -0.78441507603E+03  0.85660074415E+03  0.15294330000E+03 0.  0.
<mgrwt>
<rscale>  0 0.60318882E+03</rscale>
<asrwt>0</asrwt>
<pdfrwt beam="1">  1        2 0.87127377E-01 0.72723887E+03</pdfrwt>
<pdfrwt beam="2">  1       -2 0.16459497E+00 0.72723887E+03</pdfrwt>
<totfact> 0.12612549E+01</totfact>
</mgrwt>
</event>
<event>
 4    2  0.2930016E-007  0.8756045E+03  0.7818608E-02  0.9566387E-01
         -2   -1    0    0    0  501 -0.00000000000E+00  0.00000000000E+00  0.16688488935E+04  0.16688488935E+04  0.25500000000E-02 0.  1.
          2   -1    0    0  501    0  0.00000000000E+00 -0.00000000000E+00 -0.11169865542E+04  0.11169865542E+04  0.25500000000E-02 0. -1.
    8880023    1    1    2    0    0 -0.11535602459E+03  0.56530175892E+03 -0.87579584251E+03  0.12384270891E+04  0.65864270000E+03 0. -1.
    8880022    1    1    2    0    0  0.11535602459E+03 -0.56530175892E+03  0.14276581818E+04  0.15474083585E+04  0.15294330000E+03 0.  0.
<mgrwt>
<rscale>  0 0.79561435E+03</rscale>
<asrwt>0</asrwt>
<pdfrwt beam="1">  1        2 0.17184409E+00 0.87560453E+03</pdfrwt>
<pdfrwt beam="2">  1       -2 0.25674598E+00 0.87560453E+03</pdfrwt>
<totfact> 0.12617001E+00</totfact>
</mgrwt>
</event>
<event>
 4    2  0.2930016E-007  0.6684415E+03  0.7818608E-02  0.1016806E+00
         -2   -1    0    0    0  501 -0.00000000000E+00  0.00000000000E+00  0.46204855445E+03  0.46204855445E+03  0.25500000000E-02 0.  1.
          2   -1    0    0  501    0  0.00000000000E+00 -0.00000000000E+00 -0.11442525850E+04  0.11442525850E+04  0.25500000000E-02 0. -1.
    8880023    1    1    2    0    0  0.11357558706E+03 -0.10220065599E+02 -0.10193214764E+04  0.12189464066E+04  0.65864270000E+03 0. -1.
    8880022    1    1    2    0    0 -0.11357558706E+03  0.10220065599E+02  0.33711744586E+03  0.38735473282E+03  0.15294330000E+03 0.  0.
<mgrwt>
<rscale>  0 0.48857197E+03</rscale>
<asrwt>0</asrwt>
<pdfrwt beam="1">  1        2 0.17603886E+00 0.66844152E+03</pdfrwt>
<pdfrwt beam="2">  1       -2 0.71084394E-01 0.66844152E+03</pdfrwt>
<totfact> 0.37751520E+01</totfact>
</mgrwt>
</event>
<event>
 4    2  0.2930016E-007  0.1046070E+04  0.7818608E-02  0.9323621E-01
         -2   -1    0    0    0  501 -0.00000000000E+00  0.00000000000E+00  0.17536206404E+04  0.17536206404E+04  0.25500000000E-02 0.  1.
          2   -1    0    0  501    0  0.00000000000E+00 -0.00000000000E+00 -0.86768280621E+03  0.86768280621E+03  0.25500000000E-02 0. -1.
    8880023    1    1    2    0    0  0.80512229460E+03 -0.11059136142E+03 -0.37681623507E+03  0.11118691649E+04  0.65864270000E+03 0. -1.
    8880022    1    1    2    0    0 -0.80512229460E+03  0.11059136142E+03  0.12627540693E+04  0.15094342818E+04  0.15294330000E+03 0.  0.
<mgrwt>
<rscale>  0 0.98637080E+03</rscale>
<asrwt>0</asrwt>
<pdfrwt beam="1">  1        2 0.13348966E+00 0.10460701E+04</pdfrwt>
<pdfrwt beam="2">  1       -2 0.26978779E+00 0.10460701E+04</pdfrwt>
<totfact> 0.14909320E+00</totfact>
</mgrwt>
</event>
<event>
 4    2  0.2930016E-007  0.7049405E+03  0.7818608E-02  0.9977292E-01
         -2   -1    0    0    0  501 -0.00000000000E+00  0.00000000000E+00  0.37771416912E+03  0.37771416912E+03  0.25500000000E-02 0.  1.
          2   -1    0    0  501    0  0.00000000000E+00 -0.00000000000E+00 -0.19765685806E+04  0.19765685806E+04  0.25500000000E-02 0. -1.
    8880023    1    1    2    0    0 -0.11975036195E+03 -0.22088619021E+03 -0.18422338483E+04  0.19725026277E+04  0.65864270000E+03 0.  0.
    8880022    1    1    2    0    0  0.11975036195E+03  0.22088619021E+03  0.24337943688E+03  0.38178012196E+03  0.15294330000E+03 0.  0.
<mgrwt>
<rscale>  0 0.56657247E+03</rscale>
<asrwt>0</asrwt>
<pdfrwt beam="1">  1        2 0.30408747E+00 0.70494047E+03</pdfrwt>
<pdfrwt beam="2">  1       -2 0.58109873E-01 0.70494047E+03</pdfrwt>
<totfact> 0.19844045E+01</totfact>
</mgrwt>
</event>
<event>
 4    2  0.3895443E-007  0.7494587E+03  0.7818608E-02  0.9833204E-01
         -2   -1    0    0    0  501 -0.00000000000E+00  0.00000000000E+00  0.12151000095E+04  0.12151000095E+04  0.25500000000E-02 0.  1.
          2   -1    0    0  501    0  0.00000000000E+00 -0.00000000000E+00 -0.16908597105E+04  0.16908597105E+04  0.25500000000E-02 0. -1.
    8880023    1    1    2    0    0  0.25868304566E+03  0.24690326133E+03 -0.15726799607E+04  0.17421281824E+04  0.65864270000E+03 0. -1.
    8880022    1    1    2    0    0 -0.25868304566E+03 -0.24690326133E+03  0.10969202598E+04  0.11638315376E+04  0.15294330000E+03 0.  0.
<mgrwt>
<rscale>  0 0.63610646E+03</rscale>
<asrwt>0</asrwt>
<pdfrwt beam="1">  1        2 0.26013226E+00 0.74945870E+03</pdfrwt>
<pdfrwt beam="2">  1       -2 0.18693846E+00 0.74945870E+03</pdfrwt>
<totfact> 0.16686154E+00</totfact>
</mgrwt>
</event>
<event>
 4    2  0.2930016E-007  0.6945835E+03  0.7818608E-02  0.1002046E+00
         -2   -1    0    0    0  501 -0.00000000000E+00  0.00000000000E+00  0.19211172920E+03  0.19211172922E+03  0.25500000000E-02 0.  1.
          2   -1    0    0  501    0  0.00000000000E+00 -0.00000000000E+00 -0.12077003626E+04  0.12077003626E+04  0.25500000000E-02 0. -1.
    8880023    1    1    2    0    0 -0.61201040265E+02 -0.21187367443E+03 -0.71445050690E+03  0.99643652799E+03  0.65864270000E+03 0.  1.
    8880022    1    1    2    0    0  0.61201040265E+02  0.21187367443E+03 -0.30113812648E+03  0.40337556381E+03  0.15294330000E+03 0. -1.
<mgrwt>
<rscale>  0 0.54762185E+03</rscale>
<asrwt>0</asrwt>
<pdfrwt beam="1">  1        2 0.18580005E+00 0.69458349E+03</pdfrwt>
<pdfrwt beam="2">  1       -2 0.29555651E-01 0.69458349E+03</pdfrwt>
<totfact> 0.20056569E+02</totfact>
</mgrwt>
</event>
<event>
 4    2  0.2930016E-007  0.7824916E+03  0.7818608E-02  0.9750016E-01
          2   -1    0    0  501    0  0.00000000000E+00  0.00000000000E+00  0.13115187074E+04  0.13115187074E+04  0.25500000000E-02 0. -1.
         -2   -1    0    0    0  501 -0.00000000000E+00 -0.00000000000E+00 -0.67088537939E+03  0.67088537939E+03  0.25500000000E-02 0.  1.
    8880023    1    1    2    0    0  0.40594924606E+03  0.11699631834E+03  0.10933920994E+04  0.13445443162E+04  0.65864270000E+03 0.  0.
    8880022    1    1    2    0    0 -0.40594924606E+03 -0.11699631834E+03 -0.45275877139E+03  0.63785977062E+03  0.15294330000E+03 0.  0.
<mgrwt>
<rscale>  0 0.68115347E+03</rscale>
<asrwt>0</asrwt>
<pdfrwt beam="1">  1        2 0.20177211E+00 0.78249162E+03</pdfrwt>
<pdfrwt beam="2">  1       -2 0.10321314E+00 0.78249162E+03</pdfrwt>
<totfact> 0.12682689E+01</totfact>
</mgrwt>
</event>
<event>
 4    2  0.2930016E-007  0.1019081E+04  0.7818608E-02  0.9357009E-01
          2   -1    0    0  501    0  0.00000000000E+00  0.00000000000E+00  0.30209968509E+04  0.30209968509E+04  0.25500000000E-02 0. -1.
         -2   -1    0    0    0  501 -0.00000000000E+00 -0.00000000000E+00 -0.49273303734E+03  0.49273303735E+03  0.25500000000E-02 0.  1.
    8880023    1    1    2    0    0  0.22248596172E+02 -0.77731640338E+03  0.17938282209E+03  0.10347483724E+04  0.65864270000E+03 0.  1.
    8880022    1    1    2    0    0 -0.22248596172E+02  0.77731640338E+03  0.23488809915E+04  0.24789815159E+04  0.15294330000E+03 0.  0.
<mgrwt>
<rscale>  0 0.95699740E+03</rscale>
<asrwt>0</asrwt>
<pdfrwt beam="1">  1        2 0.46476874E+00 0.10190810E+04</pdfrwt>
<pdfrwt beam="2">  1       -2 0.75805083E-01 0.10190810E+04</pdfrwt>
<totfact> 0.26843174E+00</totfact>
</mgrwt>
</event>
<event>
 4    2  0.2930016E-007  0.1041235E+04  0.7818608E-02  0.9329493E-01
          2   -1    0    0  501    0  0.00000000000E+00  0.00000000000E+00  0.15051523594E+04  0.15051523594E+04  0.25500000000E-02 0. -1.
         -2   -1    0    0    0  501 -0.00000000000E+00 -0.00000000000E+00 -0.75316412965E+03  0.75316412966E+03  0.25500000000E-02 0.  1.
    8880023    1    1    2    0    0 -0.80587239667E+03 -0.30483485590E+02  0.95488306249E+03  0.14127885305E+04  0.65864270000E+03 0. -1.
    8880022    1    1    2    0    0  0.80587239667E+03  0.30483485590E+02 -0.20289483271E+03  0.84552795859E+03  0.15294330000E+03 0.  0.
<mgrwt>
<rscale>  0 0.98112407E+03</rscale>
<asrwt>0</asrwt>
<pdfrwt beam="1">  1        2 0.23156190E+00 0.10412347E+04</pdfrwt>
<pdfrwt beam="2">  1       -2 0.11587141E+00 0.10412347E+04</pdfrwt>
<totfact> 0.72265352E+00</totfact>
</mgrwt>
</event>
<event>
 4    2  0.2930016E-007  0.1090118E+04  0.7818608E-02  0.9272139E-01
          2   -1    0    0  501    0  0.00000000000E+00  0.00000000000E+00  0.41282156010E+04  0.41282156010E+04  0.25500000000E-02 0. -1.
         -2   -1    0    0    0  501 -0.00000000000E+00 -0.00000000000E+00 -0.89579199521E+03  0.89579199521E+03  0.25500000000E-02 0.  1.
    8880023    1    1    2    0    0  0.72030991680E+03 -0.48548947926E+03  0.38145209783E+04  0.39672316432E+04  0.65864270000E+03 0.  0.
    8880022    1    1    2    0    0 -0.72030991680E+03  0.48548947926E+03 -0.58209737252E+03  0.10567759530E+04  0.15294330000E+03 0.  0.
<mgrwt>
<rscale>  0 0.10338872E+04</rscale>
<asrwt>0</asrwt>
<pdfrwt beam="1">  1        2 0.63511009E+00 0.10901177E+04</pdfrwt>
<pdfrwt beam="2">  1       -2 0.13781415E+00 0.10901177E+04</pdfrwt>
<totfact> 0.10364975E-01</totfact>
</mgrwt>
</event>
<event>
 4    2  0.2930016E-007  0.7815013E+03  0.7818608E-02  0.9752322E-01
         -2   -1    0    0    0  501 -0.00000000000E+00  0.00000000000E+00  0.11531106785E+03  0.11531106788E+03  0.25500000000E-02 0.  1.
          2   -1    0    0  501    0  0.00000000000E+00 -0.00000000000E+00 -0.42072913814E+04  0.42072913814E+04  0.25500000000E-02 0. -1.
    8880023    1    1    2    0    0 -0.22006496513E+03  0.35847672844E+03 -0.34663645878E+04  0.35533685167E+04  0.65864270000E+03 0.  0.
    8880022    1    1    2    0    0  0.22006496513E+03 -0.35847672844E+03 -0.62561572576E+03  0.76923393258E+03  0.15294330000E+03 0.  0.
<mgrwt>
<rscale>  0 0.67985205E+03</rscale>
<asrwt>0</asrwt>
<pdfrwt beam="1">  1        2 0.64727548E+00 0.78150135E+03</pdfrwt>
<pdfrwt beam="2">  1       -2 0.17740168E-01 0.78150135E+03</pdfrwt>
<totfact> 0.66662862E+00</totfact>
</mgrwt>
</event>
<event>
 4    2  0.2930016E-007  0.8203477E+03  0.7818608E-02  0.9668413E-01
         -2   -1    0    0    0  501 -0.00000000000E+00  0.00000000000E+00  0.77906023533E+03  0.77906023534E+03  0.25500000000E-02 0.  1.
          2   -1    0    0  501    0  0.00000000000E+00 -0.00000000000E+00 -0.16105624478E+04  0.16105624478E+04  0.25500000000E-02 0. -1.
    8880023    1    1    2    0    0 -0.47689145538E+03 -0.10832640313E+03 -0.14010225636E+04  0.16235253309E+04  0.65864270000E+03 0.  0.
    8880022    1    1    2    0    0  0.47689145538E+03  0.10832640313E+03  0.56952035115E+03  0.76609735231E+03  0.15294330000E+03 0.  1.
<mgrwt>
<rscale>  0 0.72929009E+03</rscale>
<asrwt>0</asrwt>
<pdfrwt beam="1">  1        2 0.24777884E+00 0.82034766E+03</pdfrwt>
<pdfrwt beam="2">  1       -2 0.11985542E+00 0.82034766E+03</pdfrwt>
<totfact> 0.59590690E+00</totfact>
</mgrwt>
</event>
<event>
 4    2  0.2930016E-007  0.7840303E+03  0.7818608E-02  0.9746453E-01
          2   -1    0    0  501    0  0.00000000000E+00  0.00000000000E+00  0.66000745979E+03  0.66000745979E+03  0.25500000000E-02 0. -1.
         -2   -1    0    0    0  501 -0.00000000000E+00 -0.00000000000E+00 -0.95453765896E+03  0.95453765896E+03  0.25500000000E-02 0.  1.
    8880023    1    1    2    0    0  0.40528798093E+03  0.12897679887E+03  0.32411343374E+03  0.84838262967E+03  0.65864270000E+03 0.  0.
    8880022    1    1    2    0    0 -0.40528798093E+03 -0.12897679887E+03 -0.61864363291E+03  0.76616248909E+03  0.15294330000E+03 0.  0.
<mgrwt>
<rscale>  0 0.68317067E+03</rscale>
<asrwt>0</asrwt>
<pdfrwt beam="1">  1        2 0.10153961E+00 0.78403034E+03</pdfrwt>
<pdfrwt beam="2">  1       -2 0.14685195E+00 0.78403034E+03</pdfrwt>
<totfact> 0.14139468E+01</totfact>
</mgrwt>
</event>
<event>
 4    2  0.2930016E-007  0.7905320E+03  0.7818608E-02  0.9731655E-01
         -2   -1    0    0    0  501 -0.00000000000E+00  0.00000000000E+00  0.70809034375E+03  0.70809034375E+03  0.25500000000E-02 0.  1.
          2   -1    0    0  501    0  0.00000000000E+00 -0.00000000000E+00 -0.16994043496E+04  0.16994043496E+04  0.25500000000E-02 0. -1.
    8880023    1    1    2    0    0  0.29167966320E+03 -0.32565861360E+03 -0.15147096419E+04  0.17085918366E+04  0.65864270000E+03 0.  0.
    8880022    1    1    2    0    0 -0.29167966320E+03  0.32565861360E+03  0.52339563597E+03  0.69890285684E+03  0.15294330000E+03 0.  0.
<mgrwt>
<rscale>  0 0.69162965E+03</rscale>
<asrwt>0</asrwt>
<pdfrwt beam="1">  1        2 0.26144682E+00 0.79053195E+03</pdfrwt>
<pdfrwt beam="2">  1       -2 0.10893698E+00 0.79053195E+03</pdfrwt>
<totfact> 0.67530709E+00</totfact>
</mgrwt>
</event>
<event>
 4    2  0.2930016E-007  0.6770651E+03  0.7818608E-02  0.1011035E+00
         -2   -1    0    0    0  501 -0.00000000000E+00  0.00000000000E+00  0.21293023325E+03  0.21293023327E+03  0.25500000000E-02 0.  1.
          2   -1    0    0  501    0  0.00000000000E+00 -0.00000000000E+00 -0.11026381172E+04  0.11026381172E+04  0.25500000000E-02 0. -1.
    8880023    1    1    2    0    0  0.67067645888E+01  0.15672252854E+03 -0.85990455768E+03  0.10944647030E+04  0.65864270000E+03 0. -1.
    8880022    1    1    2    0    0 -0.67067645888E+01 -0.15672252854E+03 -0.29803326303E+02  0.22110364745E+03  0.15294330000E+03 0.  0.
<mgrwt>
<rscale>  0 0.51065357E+03</rscale>
<asrwt>0</asrwt>
<pdfrwt beam="1">  1        2 0.16963663E+00 0.67706509E+03</pdfrwt>
<pdfrwt beam="2">  1       -2 0.32758498E-01 0.67706509E+03</pdfrwt>
<totfact> 0.19158759E+02</totfact>
</mgrwt>
</event>
<event>
 4    2  0.2930016E-007  0.9888564E+03  0.7818608E-02  0.9396284E-01
          2   -1    0    0  501    0  0.00000000000E+00  0.00000000000E+00  0.26793411998E+04  0.26793411999E+04  0.25500000000E-02 0. -1.
         -2   -1    0    0    0  501 -0.00000000000E+00 -0.00000000000E+00 -0.39670849657E+03  0.39670849658E+03  0.25500000000E-02 0.  1.
    8880023    1    1    2    0    0  0.63172931083E+03  0.38071616747E+03  0.20688516353E+04  0.22930294410E+04  0.65864270000E+03 0.  0.
    8880022    1    1    2    0    0 -0.63172931083E+03 -0.38071616747E+03  0.21378106799E+03  0.78302025541E+03  0.15294330000E+03 0.  0.
<mgrwt>
<rscale>  0 0.92382102E+03</rscale>
<asrwt>0</asrwt>
<pdfrwt beam="1">  1        2 0.41220636E+00 0.98885637E+03</pdfrwt>
<pdfrwt beam="2">  1       -2 0.61032073E-01 0.98885637E+03</pdfrwt>
<totfact> 0.69385734E+00</totfact>
</mgrwt>
</event>
<event>
 4    2  0.2930016E-007  0.7047622E+03  0.7818608E-02  0.9977991E-01
          2   -1    0    0  501    0  0.00000000000E+00  0.00000000000E+00  0.32832335360E+04  0.32832335360E+04  0.25500000000E-02 0. -1.
         -2   -1    0    0    0  501 -0.00000000000E+00 -0.00000000000E+00 -0.15044637740E+03  0.15044637742E+03  0.25500000000E-02 0.  1.
    8880023    1    1    2    0    0 -0.23559609103E+03 -0.85872403900E+02  0.30473538860E+04  0.31277876368E+04  0.65864270000E+03 0. -1.
    8880022    1    1    2    0    0  0.23559609103E+03  0.85872403900E+02  0.85433272647E+02  0.30589227671E+03  0.15294330000E+03 0.  0.
<mgrwt>
<rscale>  0 0.56625913E+03</rscale>
<asrwt>0</asrwt>
<pdfrwt beam="1">  1        2 0.50511279E+00 0.70476223E+03</pdfrwt>
<pdfrwt beam="2">  1       -2 0.23145599E-01 0.70476223E+03</pdfrwt>
<totfact> 0.20274124E+01</totfact>
</mgrwt>
</event>
<event>
 4    2  0.2930016E-007  0.1077352E+04  0.7818608E-02  0.9286701E-01
         -2   -1    0    0    0  501 -0.00000000000E+00  0.00000000000E+00  0.12802670695E+04  0.12802670695E+04  0.25500000000E-02 0.  1.
          2   -1    0    0  501    0  0.00000000000E+00 -0.00000000000E+00 -0.14339910039E+04  0.14339910039E+04  0.25500000000E-02 0. -1.
    8880023    1    1    2    0    0 -0.83441285380E+03  0.17502252861E+03 -0.10240249597E+04  0.14863764733E+04  0.65864270000E+03 0.  0.
    8880022    1    1    2    0    0  0.83441285380E+03 -0.17502252861E+03  0.87030102535E+03  0.12278816001E+04  0.15294330000E+03 0.  0.
<mgrwt>
<rscale>  0 0.10201651E+04</rscale>
<asrwt>0</asrwt>
<pdfrwt beam="1">  1        2 0.22061400E+00 0.10773523E+04</pdfrwt>
<pdfrwt beam="2">  1       -2 0.19696416E+00 0.10773523E+04</pdfrwt>
<totfact> 0.18956018E+00</totfact>
</mgrwt>
</event>
<event>
 4    2  0.2930016E-007  0.7202338E+03  0.7818608E-02  0.9921796E-01
          2   -1    0    0  501    0  0.00000000000E+00  0.00000000000E+00  0.28857509567E+04  0.28857509567E+04  0.25500000000E-02 0. -1.
         -2   -1    0    0    0  501 -0.00000000000E+00 -0.00000000000E+00 -0.28812028790E+03  0.28812028791E+03  0.25500000000E-02 0.  1.
    8880023    1    1    2    0    0 -0.16938481232E+03 -0.23713989755E+03  0.27267992753E+04  0.28203139966E+04  0.65864270000E+03 0. -1.
    8880022    1    1    2    0    0  0.16938481232E+03  0.23713989755E+03 -0.12916860651E+03  0.35355724795E+03  0.15294330000E+03 0.  0.
<mgrwt>
<rscale>  0 0.59216510E+03</rscale>
<asrwt>0</asrwt>
<pdfrwt beam="1">  1        2 0.44396169E+00 0.72023382E+03</pdfrwt>
<pdfrwt beam="2">  1       -2 0.44326198E-01 0.72023382E+03</pdfrwt>
<totfact> 0.10539229E+01</totfact>
</mgrwt>
</event>
<event>
 4    2  0.2930016E-007  0.7064228E+03  0.7818608E-02  0.9971532E-01
         -2   -1    0    0    0  501 -0.00000000000E+00  0.00000000000E+00  0.14926082781E+03  0.14926082783E+03  0.25500000000E-02 0.  1.
          2   -1    0    0  501    0  0.00000000000E+00 -0.00000000000E+00 -0.22594430418E+04  0.22594430419E+04  0.25500000000E-02 0. -1.
    8880023    1    1    2    0    0  0.22570410561E+03  0.11950179089E+03 -0.19426767359E+04  0.20671299252E+04  0.65864270000E+03 0. -1.
    8880022    1    1    2    0    0 -0.22570410561E+03 -0.11950179089E+03 -0.16750547818E+03  0.34157394449E+03  0.15294330000E+03 0.  0.
<mgrwt>
<rscale>  0 0.56916312E+03</rscale>
<asrwt>0</asrwt>
<pdfrwt beam="1">  1        2 0.34760660E+00 0.70642284E+03</pdfrwt>
<pdfrwt beam="2">  1       -2 0.22963206E-01 0.70642284E+03</pdfrwt>
<totfact> 0.82887422E+01</totfact>
</mgrwt>
</event>
<event>
 4    2  0.2930016E-007  0.8696072E+03  0.7818608E-02  0.9576697E-01
          2   -1    0    0  501    0  0.00000000000E+00  0.00000000000E+00  0.27658502295E+04  0.27658502295E+04  0.25500000000E-02 0. -1.
         -2   -1    0    0    0  501 -0.00000000000E+00 -0.00000000000E+00 -0.32938306722E+03  0.32938306723E+03  0.25500000000E-02 0.  1.
    8880023    1    1    2    0    0 -0.11777329774E+03  0.55546008089E+03  0.36706601527E+03  0.94390365872E+03  0.65864270000E+03 0.  0.
    8880022    1    1    2    0    0  0.11777329774E+03 -0.55546008089E+03  0.20694011470E+04  0.21513296380E+04  0.15294330000E+03 0.  0.
<mgrwt>
<rscale>  0 0.78857892E+03</rscale>
<asrwt>0</asrwt>
<pdfrwt beam="1">  1        2 0.42551542E+00 0.86960719E+03</pdfrwt>
<pdfrwt beam="2">  1       -2 0.50674318E-01 0.86960719E+03</pdfrwt>
<totfact> 0.92509657E+00</totfact>
</mgrwt>
</event>
<event>
 4    2  0.3604377E-007  0.7449687E+03  0.7818608E-02  0.9845703E-01
          2   -1    0    0  501    0  0.00000000000E+00  0.00000000000E+00  0.21732812422E+04  0.21732812422E+04  0.25500000000E-02 0. -1.
         -2   -1    0    0    0  501 -0.00000000000E+00 -0.00000000000E+00 -0.92891266046E+03  0.92891266046E+03  0.25500000000E-02 0.  1.
    8880023    1    1    2    0    0 -0.34503387658E+03  0.46041380068E+02  0.20663496101E+04  0.21965379810E+04  0.65864270000E+03 0. -1.
    8880022    1    1    2    0    0  0.34503387658E+03 -0.46041380068E+02 -0.82198102828E+03  0.90565592171E+03  0.15294330000E+03 0.  0.
<mgrwt>
<rscale>  0 0.62966490E+03</rscale>
<asrwt>0</asrwt>
<pdfrwt beam="1">  1        2 0.33435096E+00 0.74496872E+03</pdfrwt>
<pdfrwt beam="2">  1       -2 0.14290964E+00 0.74496872E+03</pdfrwt>
<totfact> 0.18981279E+00</totfact>
</mgrwt>
</event>
<event>
 4    2  0.2930016E-007  0.6810996E+03  0.7818608E-02  0.1008708E+00
         -2   -1    0    0    0  501 -0.00000000000E+00  0.00000000000E+00  0.26440373881E+04  0.26440373881E+04  0.25500000000E-02 0.  1.
          2   -1    0    0  501    0  0.00000000000E+00 -0.00000000000E+00 -0.38142709062E+03  0.38142709063E+03  0.25500000000E-02 0. -1.
    8880023    1    1    2    0    0 -0.39255795028E+02 -0.16895384745E+03 -0.67015894627E+02  0.68438860044E+03  0.65864270000E+03 0. -1.
    8880022    1    1    2    0    0  0.39255795028E+02  0.16895384745E+03  0.23296261921E+04  0.23410758783E+04  0.15294330000E+03 0.  0.
<mgrwt>
<rscale>  0 0.51991210E+03</rscale>
<asrwt>0</asrwt>
<pdfrwt beam="1">  1        2 0.58681092E-01 0.68109957E+03</pdfrwt>
<pdfrwt beam="2">  1       -2 0.40677497E+00 0.68109957E+03</pdfrwt>
<totfact> 0.60615448E-01</totfact>
</mgrwt>
</event>
<event>
 4    2  0.2930016E-007  0.1098701E+04  0.7818608E-02  0.9262504E-01
         -2   -1    0    0    0  501 -0.00000000000E+00  0.00000000000E+00  0.33872121351E+03  0.33872121352E+03  0.25500000000E-02 0.  1.
          2   -1    0    0  501    0  0.00000000000E+00 -0.00000000000E+00 -0.42839102077E+04  0.42839102077E+04  0.25500000000E-02 0. -1.
    8880023    1    1    2    0    0 -0.83283780545E+03  0.28233761387E+03 -0.34082941012E+04  0.35810071523E+04  0.65864270000E+03 0.  0.
    8880022    1    1    2    0    0  0.83283780545E+03 -0.28233761387E+03 -0.53689489296E+03  0.10416242689E+04  0.15294330000E+03 0.  1.
<mgrwt>
<rscale>  0 0.10430933E+04</rscale>
<asrwt>0</asrwt>
<pdfrwt beam="1">  1        2 0.65906307E+00 0.10987008E+04</pdfrwt>
<pdfrwt beam="2">  1       -2 0.52110959E-01 0.10987008E+04</pdfrwt>
<totfact> 0.71393773E-01</totfact>
</mgrwt>
</event>
<event>
 4    2  0.2930016E-007  0.9298995E+03  0.7818608E-02  0.9479644E-01
          2   -1    0    0  501    0  0.00000000000E+00  0.00000000000E+00  0.11409632721E+04  0.11409632721E+04  0.25500000000E-02 0. -1.
         -2   -1    0    0    0  501 -0.00000000000E+00 -0.00000000000E+00 -0.56997650464E+03  0.56997650465E+03  0.25500000000E-02 0.  1.
    8880023    1    1    2    0    0  0.46300676112E+03 -0.46532521824E+03  0.24173868726E+03  0.96080727451E+03  0.65864270000E+03 0.  0.
    8880022    1    1    2    0    0 -0.46300676112E+03  0.46532521824E+03  0.32924808018E+03  0.75013250222E+03  0.15294330000E+03 0.  1.
<mgrwt>
<rscale>  0 0.85801362E+03</rscale>
<asrwt>0</asrwt>
<pdfrwt beam="1">  1        2 0.17553281E+00 0.92989947E+03</pdfrwt>
<pdfrwt beam="2">  1       -2 0.87688693E-01 0.92989947E+03</pdfrwt>
<totfact> 0.23089674E+01</totfact>
</mgrwt>
</event>
<event>
 4    2  0.2930016E-007  0.8008134E+03  0.7818608E-02  0.9709040E-01
         -2   -1    0    0    0  501 -0.00000000000E+00  0.00000000000E+00  0.74683888862E+03  0.74683888862E+03  0.25500000000E-02 0.  1.
          2   -1    0    0  501    0  0.00000000000E+00 -0.00000000000E+00 -0.57994022930E+03  0.57994022930E+03  0.25500000000E-02 0. -1.
    8880023    1    1    2    0    0  0.35226074431E+03 -0.28879791146E+03 -0.44018910166E+02  0.80202227922E+03  0.65864270000E+03 0.  0.
    8880022    1    1    2    0    0 -0.35226074431E+03  0.28879791146E+03  0.21091756949E+03  0.52475683871E+03  0.15294330000E+03 0.  0.
<mgrwt>
<rscale>  0 0.70481089E+03</rscale>
<asrwt>0</asrwt>
<pdfrwt beam="1">  1        2 0.89221574E-01 0.80081338E+03</pdfrwt>
<pdfrwt beam="2">  1       -2 0.11489829E+00 0.80081338E+03</pdfrwt>
<totfact> 0.30800366E+01</totfact>
</mgrwt>
</event>
<event>
 4    2  0.2930016E-007  0.9645221E+03  0.7818608E-02  0.9429521E-01
          2   -1    0    0  501    0  0.00000000000E+00  0.00000000000E+00  0.29248229579E+04  0.29248229579E+04  0.25500000000E-02 0. -1.
         -2   -1    0    0    0  501 -0.00000000000E+00 -0.00000000000E+00 -0.57757141564E+03  0.57757141564E+03  0.25500000000E-02 0.  1.
    8880023    1    1    2    0    0  0.65861151347E+03  0.25044650857E+03  0.25721974860E+04  0.27470898589E+04  0.65864270000E+03 0.  0.
    8880022    1    1    2    0    0 -0.65861151347E+03 -0.25044650857E+03 -0.22494594372E+03  0.75530451471E+03  0.15294330000E+03 0.  0.
<mgrwt>
<rscale>  0 0.89685545E+03</rscale>
<asrwt>0</asrwt>
<pdfrwt beam="1">  1        2 0.44997276E+00 0.96452205E+03</pdfrwt>
<pdfrwt beam="2">  1       -2 0.88857141E-01 0.96452205E+03</pdfrwt>
<totfact> 0.21622005E+00</totfact>
</mgrwt>
</event>
<event>
 4    2  0.2930016E-007  0.8426058E+03  0.7818608E-02  0.9625286E-01
         -2   -1    0    0    0  501 -0.00000000000E+00  0.00000000000E+00  0.27620779102E+03  0.27620779103E+03  0.25500000000E-02 0.  1.
          2   -1    0    0  501    0  0.00000000000E+00 -0.00000000000E+00 -0.24384807621E+04  0.24384807621E+04  0.25500000000E-02 0. -1.
    8880023    1    1    2    0    0  0.23998710162E+03  0.46752596373E+03 -0.19560228256E+04  0.21297910311E+04  0.65864270000E+03 0.  0.
    8880022    1    1    2    0    0 -0.23998710162E+03 -0.46752596373E+03 -0.20625014545E+03  0.58489752198E+03  0.15294330000E+03 0.  0.
<mgrwt>
<rscale>  0 0.75644943E+03</rscale>
<asrwt>0</asrwt>
<pdfrwt beam="1">  1        2 0.37515087E+00 0.84260580E+03</pdfrwt>
<pdfrwt beam="2">  1       -2 0.42493508E-01 0.84260580E+03</pdfrwt>
<totfact> 0.20438363E+01</totfact>
</mgrwt>
</event>
<event>
 4    2  0.2930016E-007  0.7143504E+03  0.7818608E-02  0.9942187E-01
         -2   -1    0    0    0  501 -0.00000000000E+00  0.00000000000E+00  0.15306938227E+04  0.15306938227E+04  0.25500000000E-02 0.  1.
          2   -1    0    0  501    0  0.00000000000E+00 -0.00000000000E+00 -0.46041544167E+03  0.46041544168E+03  0.25500000000E-02 0. -1.
    8880023    1    1    2    0    0 -0.27600355649E+03  0.17559397789E+02 -0.15054659898E+03  0.73004162921E+03  0.65864270000E+03 0. -1.
    8880022    1    1    2    0    0  0.27600355649E+03 -0.17559397789E+02  0.12208249800E+04  0.12610676352E+04  0.15294330000E+03 0.  0.
<mgrwt>
<rscale>  0 0.58259556E+03</rscale>
<asrwt>0</asrwt>
<pdfrwt beam="1">  1        2 0.70833145E-01 0.71435041E+03</pdfrwt>
<pdfrwt beam="2">  1       -2 0.23549136E+00 0.71435041E+03</pdfrwt>
<totfact> 0.55146338E+00</totfact>
</mgrwt>
</event>
<event>
 4    2  0.2930016E-007  0.6989636E+03  0.7818608E-02  0.1000153E+00
          2   -1    0    0  501    0  0.00000000000E+00  0.00000000000E+00  0.75924938995E+03  0.75924938996E+03  0.25500000000E-02 0. -1.
         -2   -1    0    0    0  501 -0.00000000000E+00 -0.00000000000E+00 -0.69388281172E+03  0.69388281173E+03  0.25500000000E-02 0.  1.
    8880023    1    1    2    0    0  0.17890641585E+03 -0.15077276608E+03  0.55286434284E+03  0.89118411143E+03  0.65864270000E+03 0.  0.
    8880022    1    1    2    0    0 -0.17890641585E+03  0.15077276608E+03 -0.48749776461E+03  0.56194809025E+03  0.15294330000E+03 0.  0.
<mgrwt>
<rscale>  0 0.55583291E+03</rscale>
<asrwt>0</asrwt>
<pdfrwt beam="1">  1        2 0.11680760E+00 0.69896362E+03</pdfrwt>
<pdfrwt beam="2">  1       -2 0.10675120E+00 0.69896362E+03</pdfrwt>
<totfact> 0.26560648E+01</totfact>
</mgrwt>
</event>
<event>
 4    2  0.2930016E-007  0.7843262E+03  0.7818608E-02  0.9745771E-01
         -2   -1    0    0    0  501 -0.00000000000E+00  0.00000000000E+00  0.21605911385E+03  0.21605911387E+03  0.25500000000E-02 0.  1.
          2   -1    0    0  501    0  0.00000000000E+00 -0.00000000000E+00 -0.21381517890E+04  0.21381517890E+04  0.25500000000E-02 0. -1.
    8880023    1    1    2    0    0  0.35547260925E+03 -0.23451364944E+03 -0.16481443767E+04  0.18252527279E+04  0.65864270000E+03 0. -1.
    8880022    1    1    2    0    0 -0.35547260925E+03  0.23451364944E+03 -0.27394829840E+03  0.52895817501E+03  0.15294330000E+03 0.  1.
<mgrwt>
<rscale>  0 0.68355789E+03</rscale>
<asrwt>0</asrwt>
<pdfrwt beam="1">  1        2 0.32894641E+00 0.78432623E+03</pdfrwt>
<pdfrwt beam="2">  1       -2 0.33239865E-01 0.78432623E+03</pdfrwt>
<totfact> 0.48624662E+01</totfact>
</mgrwt>
</event>
<event>
 4    2  0.2930016E-007  0.7755394E+03  0.7818608E-02  0.9766421E-01
          2   -1    0    0  501    0  0.00000000000E+00  0.00000000000E+00  0.22219852919E+04  0.22219852919E+04  0.25500000000E-02 0. -1.
         -2   -1    0    0    0  501 -0.00000000000E+00 -0.00000000000E+00 -0.27360316709E+03  0.27360316711E+03  0.25500000000E-02 0.  1.
    8880023    1    1    2    0    0  0.33500380595E+03 -0.23542205049E+03  0.19044458665E+04  0.20563013778E+04  0.65864270000E+03 0. -1.
    8880022    1    1    2    0    0 -0.33500380595E+03  0.23542205049E+03  0.43936258303E+02  0.43928708115E+03  0.15294330000E+03 0.  0.
<mgrwt>
<rscale>  0 0.67196121E+03</rscale>
<asrwt>0</asrwt>
<pdfrwt beam="1">  1        2 0.34184388E+00 0.77553936E+03</pdfrwt>
<pdfrwt beam="2">  1       -2 0.42092797E-01 0.77553936E+03</pdfrwt>
<totfact> 0.27756872E+01</totfact>
</mgrwt>
</event>
<event>
 4    2  0.2930016E-007  0.1206652E+04  0.7818608E-02  0.9150683E-01
         -2   -1    0    0    0  501 -0.00000000000E+00  0.00000000000E+00  0.28202296083E+04  0.28202296083E+04  0.25500000000E-02 0.  1.
          2   -1    0    0  501    0  0.00000000000E+00 -0.00000000000E+00 -0.70972299293E+03  0.70972299294E+03  0.25500000000E-02 0. -1.
    8880023    1    1    2    0    0  0.81594330985E+02 -0.10077405824E+04  0.24608792374E+02  0.12069028607E+04  0.65864270000E+03 0. -1.
    8880022    1    1    2    0    0 -0.81594330985E+02  0.10077405824E+04  0.20858978230E+04  0.23230497406E+04  0.15294330000E+03 0.  0.
<mgrwt>
<rscale>  0 0.11577285E+04</rscale>
<asrwt>0</asrwt>
<pdfrwt beam="1">  1        2 0.10918815E+00 0.12066519E+04</pdfrwt>
<pdfrwt beam="2">  1       -2 0.43388148E+00 0.12066519E+04</pdfrwt>
<totfact> 0.17671621E-01</totfact>
</mgrwt>
</event>
<event>
 4    2  0.2930016E-007  0.6927533E+03  0.7818608E-02  0.1002870E+00
          2   -1    0    0  501    0  0.00000000000E+00  0.00000000000E+00  0.65459887539E+03  0.65459887539E+03  0.25500000000E-02 0. -1.
         -2   -1    0    0    0  501 -0.00000000000E+00 -0.00000000000E+00 -0.77192496049E+03  0.77192496049E+03  0.25500000000E-02 0.  1.
    8880023    1    1    2    0    0  0.17179450504E+03  0.12877724696E+03  0.43256548391E+03  0.81671294555E+03  0.65864270000E+03 0. -1.
    8880022    1    1    2    0    0 -0.17179450504E+03 -0.12877724696E+03 -0.54989156901E+03  0.60981089034E+03  0.15294330000E+03 0.  0.
<mgrwt>
<rscale>  0 0.54409300E+03</rscale>
<asrwt>0</asrwt>
<pdfrwt beam="1">  1        2 0.10070752E+00 0.69275330E+03</pdfrwt>
<pdfrwt beam="2">  1       -2 0.11875769E+00 0.69275330E+03</pdfrwt>
<totfact> 0.24739288E+01</totfact>
</mgrwt>
</event>
<event>
 4    2  0.2930016E-007  0.1127274E+04  0.7818608E-02  0.9231281E-01
          2   -1    0    0  501    0  0.00000000000E+00  0.00000000000E+00  0.41850545568E+04  0.41850545568E+04  0.25500000000E-02 0. -1.
         -2   -1    0    0    0  501 -0.00000000000E+00 -0.00000000000E+00 -0.55221213492E+03  0.55221213493E+03  0.25500000000E-02 0.  1.
    8880023    1    1    2    0    0  0.21428553212E+03  0.88939197739E+03  0.36391097112E+04  0.38097068227E+04  0.65864270000E+03 0.  0.
    8880022    1    1    2    0    0 -0.21428553212E+03 -0.88939197739E+03 -0.62672892804E+01  0.92755986904E+03  0.15294330000E+03 0.  0.
<mgrwt>
<rscale>  0 0.10736312E+04</rscale>
<asrwt>0</asrwt>
<pdfrwt beam="1">  1        2 0.64385455E+00 0.11272740E+04</pdfrwt>
<pdfrwt beam="2">  1       -2 0.84955713E-01 0.11272740E+04</pdfrwt>
<totfact> 0.29895593E-01</totfact>
</mgrwt>
</event>
<event>
 4    2  0.2930016E-007  0.1737324E+04  0.7818608E-02  0.8758023E-01
          2   -1    0    0  501    0  0.00000000000E+00  0.00000000000E+00  0.31225374096E+04  0.31225374096E+04  0.25500000000E-02 0. -1.
         -2   -1    0    0    0  501 -0.00000000000E+00 -0.00000000000E+00 -0.10853127910E+04  0.10853127910E+04  0.25500000000E-02 0.  1.
    8880023    1    1    2    0    0 -0.15668623426E+04 -0.35975711924E+03  0.17985032723E+03  0.17466078930E+04  0.65864270000E+03 0.  0.
    8880022    1    1    2    0    0  0.15668623426E+04  0.35975711924E+03  0.18573742914E+04  0.24612423076E+04  0.15294330000E+03 0.  0.
<mgrwt>
<rscale>  0 0.17058717E+04</rscale>
<asrwt>0</asrwt>
<pdfrwt beam="1">  1        2 0.48039038E+00 0.17373235E+04</pdfrwt>
<pdfrwt beam="2">  1       -2 0.16697120E+00 0.17373235E+04</pdfrwt>
<totfact> 0.30070900E-01</totfact>
</mgrwt>
</event>
<event>
 4    2  0.2930016E-007  0.7258414E+03  0.7818608E-02  0.9903295E-01
          2   -1    0    0  501    0  0.00000000000E+00  0.00000000000E+00  0.13997403989E+04  0.13997403989E+04  0.25500000000E-02 0. -1.
         -2   -1    0    0    0  501 -0.00000000000E+00 -0.00000000000E+00 -0.65846573903E+03  0.65846573904E+03  0.25500000000E-02 0.  1.
    8880023    1    1    2    0    0  0.30733448990E+02  0.30346485958E+03  0.12501121799E+04  0.14455539196E+04  0.65864270000E+03 0.  1.
    8880022    1    1    2    0    0 -0.30733448990E+02 -0.30346485958E+03 -0.50883752000E+03  0.61265221836E+03  0.15294330000E+03 0.  0.
<mgrwt>
<rscale>  0 0.60101879E+03</rscale>
<asrwt>0</asrwt>
<pdfrwt beam="1">  1        2 0.21534468E+00 0.72584135E+03</pdfrwt>
<pdfrwt beam="2">  1       -2 0.10130242E+00 0.72584135E+03</pdfrwt>
<totfact> 0.11895317E+01</totfact>
</mgrwt>
</event>
<event>
 4    2  0.2930016E-007  0.7367617E+03  0.7818608E-02  0.9869482E-01
         -2   -1    0    0    0  501 -0.00000000000E+00  0.00000000000E+00  0.12643993547E+04  0.12643993547E+04  0.25500000000E-02 0.  1.
          2   -1    0    0  501    0  0.00000000000E+00 -0.00000000000E+00 -0.67363516778E+03  0.67363516779E+03  0.25500000000E-02 0. -1.
    8880023    1    1    2    0    0  0.28625463344E+03  0.16451716284E+03 -0.43089348509E+03  0.85351450708E+03  0.65864270000E+03 0. -1.
    8880022    1    1    2    0    0 -0.28625463344E+03 -0.16451716284E+03  0.10216576720E+04  0.10845200154E+04  0.15294330000E+03 0.  0.
<mgrwt>
<rscale>  0 0.61763370E+03</rscale>
<asrwt>0</asrwt>
<pdfrwt beam="1">  1        2 0.10363618E+00 0.73676171E+03</pdfrwt>
<pdfrwt beam="2">  1       -2 0.19452298E+00 0.73676171E+03</pdfrwt>
<totfact> 0.63513662E+00</totfact>
</mgrwt>
</event>
<event>
 4    2  0.2930016E-007  0.1111095E+04  0.7818608E-02  0.9248802E-01
         -2   -1    0    0    0  501 -0.00000000000E+00  0.00000000000E+00  0.68774589311E+03  0.68774589312E+03  0.25500000000E-02 0.  1.
          2   -1    0    0  501    0  0.00000000000E+00 -0.00000000000E+00 -0.21323714340E+04  0.21323714340E+04  0.25500000000E-02 0. -1.
    8880023    1    1    2    0    0 -0.19251092630E+03 -0.87387755062E+03  0.33472390136E+01  0.11111002837E+04  0.65864270000E+03 0.  1.
    8880022    1    1    2    0    0  0.19251092630E+03  0.87387755062E+03 -0.14479727799E+04  0.17090170433E+04  0.15294330000E+03 0.  0.
<mgrwt>
<rscale>  0 0.10563598E+04</rscale>
<asrwt>0</asrwt>
<pdfrwt beam="1">  1        2 0.32805714E+00 0.11110952E+04</pdfrwt>
<pdfrwt beam="2">  1       -2 0.10580706E+00 0.11110952E+04</pdfrwt>
<totfact> 0.40208297E+00</totfact>
</mgrwt>
</event>
<event>
 4    2  0.2930016E-007  0.6811801E+03  0.7818608E-02  0.1008664E+00
         -2   -1    0    0    0  501 -0.00000000000E+00  0.00000000000E+00  0.45276058593E+03  0.45276058594E+03  0.25500000000E-02 0.  1.
          2   -1    0    0  501    0  0.00000000000E+00 -0.00000000000E+00 -0.99707632852E+03  0.99707632852E+03  0.25500000000E-02 0. -1.
    8880023    1    1    2    0    0  0.90534820956E+02  0.14832255014E+03 -0.83540734514E+03  0.10779201136E+04  0.65864270000E+03 0. -1.
    8880022    1    1    2    0    0 -0.90534820956E+02 -0.14832255014E+03  0.29109160256E+03  0.37191680088E+03  0.15294330000E+03 0. -1.
<mgrwt>
<rscale>  0 0.52009143E+03</rscale>
<asrwt>0</asrwt>
<pdfrwt beam="1">  1        2 0.15339636E+00 0.68118011E+03</pdfrwt>
<pdfrwt beam="2">  1       -2 0.69655475E-01 0.68118011E+03</pdfrwt>
<totfact> 0.48579288E+01</totfact>
</mgrwt>
</event>
<event>
 4    2  0.2930016E-007  0.6824074E+03  0.7818608E-02  0.1007993E+00
          2   -1    0    0  501    0  0.00000000000E+00  0.00000000000E+00  0.75677571802E+03  0.75677571803E+03  0.25500000000E-02 0. -1.
         -2   -1    0    0    0  501 -0.00000000000E+00 -0.00000000000E+00 -0.42324736140E+03  0.42324736141E+03  0.25500000000E-02 0.  1.
    8880023    1    1    2    0    0  0.95136975610E+02 -0.15105837942E+03  0.53759515797E+03  0.86872805771E+03  0.65864270000E+03 0.  0.
    8880022    1    1    2    0    0 -0.95136975610E+02  0.15105837942E+03 -0.20406680135E+03  0.31129502172E+03  0.15294330000E+03 0.  0.
<mgrwt>
<rscale>  0 0.52279987E+03</rscale>
<asrwt>0</asrwt>
<pdfrwt beam="1">  1        2 0.11642703E+00 0.68240742E+03</pdfrwt>
<pdfrwt beam="2">  1       -2 0.65114980E-01 0.68240742E+03</pdfrwt>
<totfact> 0.82016029E+01</totfact>
</mgrwt>
</event>
<event>
 4    2  0.2930016E-007  0.9572802E+03  0.7818608E-02  0.9439716E-01
          2   -1    0    0  501    0  0.00000000000E+00  0.00000000000E+00  0.20916231535E+04  0.20916231535E+04  0.25500000000E-02 0. -1.
         -2   -1    0    0    0  501 -0.00000000000E+00 -0.00000000000E+00 -0.36867211909E+03  0.36867211910E+03  0.25500000000E-02 0.  1.
    8880023    1    1    2    0    0 -0.54616404704E+03 -0.42927838554E+03  0.13561455124E+04  0.16599746853E+04  0.65864270000E+03 0. -1.
    8880022    1    1    2    0    0  0.54616404704E+03  0.42927838554E+03  0.36680552200E+03  0.80032058736E+03  0.15294330000E+03 0.  0.
<mgrwt>
<rscale>  0 0.88878055E+03</rscale>
<asrwt>0</asrwt>
<pdfrwt beam="1">  1        2 0.32178817E+00 0.95728016E+03</pdfrwt>
<pdfrwt beam="2">  1       -2 0.56718789E-01 0.95728016E+03</pdfrwt>
<totfact> 0.17485679E+01</totfact>
</mgrwt>
</event>
<event>
 4    2  0.2930016E-007  0.7705755E+03  0.7818608E-02  0.9778460E-01
         -2   -1    0    0    0  501 -0.00000000000E+00  0.00000000000E+00  0.43475795951E+04  0.43475795951E+04  0.25500000000E-02 0.  1.
          2   -1    0    0  501    0  0.00000000000E+00 -0.00000000000E+00 -0.13026990934E+03  0.13026990937E+03  0.25500000000E-02 0. -1.
    8880023    1    1    2    0    0 -0.15673695701E+03 -0.36798090754E+03  0.11723191058E+04  0.14028965443E+04  0.65864270000E+03 0.  0.
    8880022    1    1    2    0    0  0.15673695701E+03  0.36798090754E+03  0.30449905799E+04  0.30749529601E+04  0.15294330000E+03 0.  0.
<mgrwt>
<rscale>  0 0.66531432E+03</rscale>
<asrwt>0</asrwt>
<pdfrwt beam="1">  1        2 0.20041524E-01 0.77057552E+03</pdfrwt>
<pdfrwt beam="2">  1       -2 0.66885843E+00 0.77057552E+03</pdfrwt>
<totfact> 0.85324786E-02</totfact>
</mgrwt>
</event>
<event>
 4    2  0.2930016E-007  0.6803174E+03  0.7818608E-02  0.1009145E+00
         -2   -1    0    0    0  501 -0.00000000000E+00  0.00000000000E+00  0.39688448137E+03  0.39688448138E+03  0.25500000000E-02 0.  1.
          2   -1    0    0  501    0  0.00000000000E+00 -0.00000000000E+00 -0.24735426850E+04  0.24735426850E+04  0.25500000000E-02 0. -1.
    8880023    1    1    2    0    0 -0.11344988841E+03  0.12708524875E+03 -0.23885405147E+04  0.24835373027E+04  0.65864270000E+03 0. -1.
    8880022    1    1    2    0    0  0.11344988841E+03 -0.12708524875E+03  0.31188231104E+03  0.38688986364E+03  0.15294330000E+03 0.  0.
<mgrwt>
<rscale>  0 0.51815984E+03</rscale>
<asrwt>0</asrwt>
<pdfrwt beam="1">  1        2 0.38054502E+00 0.68031738E+03</pdfrwt>
<pdfrwt beam="2">  1       -2 0.61059153E-01 0.68031738E+03</pdfrwt>
<totfact> 0.95471787E+00</totfact>
</mgrwt>
</event>
<event>
 4    2  0.2930016E-007  0.7284822E+03  0.7818608E-02  0.9894865E-01
          2   -1    0    0  501    0  0.00000000000E+00  0.00000000000E+00  0.15158554775E+04  0.15158554775E+04  0.25500000000E-02 0. -1.
         -2   -1    0    0    0  501 -0.00000000000E+00 -0.00000000000E+00 -0.59203805870E+03  0.59203805870E+03  0.25500000000E-02 0.  1.
    8880023    1    1    2    0    0  0.29089654247E+02 -0.30988682051E+03  0.13646993070E+04  0.15469616848E+04  0.65864270000E+03 0. -1.
    8880022    1    1    2    0    0 -0.29089654247E+02  0.30988682051E+03 -0.44088188821E+03  0.56093185137E+03  0.15294330000E+03 0.  0.
<mgrwt>
<rscale>  0 0.60510789E+03</rscale>
<asrwt>0</asrwt>
<pdfrwt beam="1">  1        2 0.23320853E+00 0.72848216E+03</pdfrwt>
<pdfrwt beam="2">  1       -2 0.91082780E-01 0.72848216E+03</pdfrwt>
<totfact> 0.13135933E+01</totfact>
</mgrwt>
</event>
<event>
 4    2  0.2930016E-007  0.8243287E+03  0.7818608E-02  0.9660469E-01
         -2   -1    0    0    0  501 -0.00000000000E+00  0.00000000000E+00  0.50833390715E+03  0.50833390716E+03  0.25500000000E-02 0.  1.
          2   -1    0    0  501    0  0.00000000000E+00 -0.00000000000E+00 -0.19109483266E+04  0.19109483266E+04  0.25500000000E-02 0. -1.
    8880023    1    1    2    0    0  0.13037332215E+03 -0.47823676537E+03 -0.16500829495E+04  0.18445301714E+04  0.65864270000E+03 0.  0.
    8880022    1    1    2    0    0 -0.13037332215E+03  0.47823676537E+03  0.24746852998E+03  0.57475206239E+03  0.15294330000E+03 0.  0.
<mgrwt>
<rscale>  0 0.73420000E+03</rscale>
<asrwt>0</asrwt>
<pdfrwt beam="1">  1        2 0.29399205E+00 0.82432870E+03</pdfrwt>
<pdfrwt beam="2">  1       -2 0.78205217E-01 0.82432870E+03</pdfrwt>
<totfact> 0.11136508E+01</totfact>
</mgrwt>
</event>
<event>
 4    2  0.2930016E-007  0.7613247E+03  0.7818608E-02  0.9801690E-01
          2   -1    0    0  501    0  0.00000000000E+00  0.00000000000E+00  0.27441412244E+04  0.27441412244E+04  0.25500000000E-02 0. -1.
         -2   -1    0    0    0  501 -0.00000000000E+00 -0.00000000000E+00 -0.15580578179E+03  0.15580578181E+03  0.25500000000E-02 0.  1.
    8880023    1    1    2    0    0 -0.17114464777E+03 -0.34134246377E+03  0.22231463297E+04  0.23498925460E+04  0.65864270000E+03 0.  0.
    8880022    1    1    2    0    0  0.17114464777E+03  0.34134246377E+03  0.36518911292E+03  0.55005446026E+03  0.15294330000E+03 0.  0.
<mgrwt>
<rscale>  0 0.65271935E+03</rscale>
<asrwt>0</asrwt>
<pdfrwt beam="1">  1        2 0.42217554E+00 0.76132475E+03</pdfrwt>
<pdfrwt beam="2">  1       -2 0.23970122E-01 0.76132475E+03</pdfrwt>
<totfact> 0.40448818E+01</totfact>
</mgrwt>
</event>
<event>
 4    2  0.2930016E-007  0.6723831E+03  0.7818608E-02  0.1014009E+00
          2   -1    0    0  501    0  0.00000000000E+00  0.00000000000E+00  0.51960295849E+03  0.51960295850E+03  0.25500000000E-02 0. -1.
         -2   -1    0    0    0  501 -0.00000000000E+00 -0.00000000000E+00 -0.99793413167E+03  0.99793413168E+03  0.25500000000E-02 0.  1.
    8880023    1    1    2    0    0 -0.13054445893E+03 -0.35312991659E+02  0.28284887715E+03  0.72945360147E+03  0.65864270000E+03 0. -1.
    8880022    1    1    2    0    0  0.13054445893E+03  0.35312991659E+02 -0.76118005032E+03  0.78808348870E+03  0.15294330000E+03 0.  0.
<mgrwt>
<rscale>  0 0.49911916E+03</rscale>
<asrwt>0</asrwt>
<pdfrwt beam="1">  1        2 0.79938917E-01 0.67238313E+03</pdfrwt>
<pdfrwt beam="2">  1       -2 0.15352833E+00 0.67238313E+03</pdfrwt>
<totfact> 0.16940154E+01</totfact>
</mgrwt>
</event>
<event>
 4    2  0.4242159E-007  0.6663065E+03  0.7818608E-02  0.1018462E+00
          2   -1    0    0  501    0  0.00000000000E+00  0.00000000000E+00  0.12239140201E+04  0.12239140201E+04  0.25500000000E-02 0. -1.
         -2   -1    0    0    0  501 -0.00000000000E+00 -0.00000000000E+00 -0.12064041808E+04  0.12064041808E+04  0.25500000000E-02 0.  1.
    8880023    1    1    2    0    0  0.97241039736E+02  0.26424916221E+02  0.11251475992E+04  0.13076396378E+04  0.65864270000E+03 0. -1.
    8880022    1    1    2    0    0 -0.97241039736E+02 -0.26424916221E+02 -0.11076377599E+04  0.11226785632E+04  0.15294330000E+03 0.  0.
<mgrwt>
<rscale>  0 0.48245877E+03</rscale>
<asrwt>0</asrwt>
<pdfrwt beam="1">  1        2 0.18829447E+00 0.66630646E+03</pdfrwt>
<pdfrwt beam="2">  1       -2 0.18560064E+00 0.66630646E+03</pdfrwt>
<totfact> 0.31629081E+00</totfact>
</mgrwt>
</event>
<event>
 4    2  0.2930016E-007  0.6727867E+03  0.7818608E-02  0.1013739E+00
         -2   -1    0    0    0  501 -0.00000000000E+00  0.00000000000E+00  0.10798647954E+03  0.10798647957E+03  0.25500000000E-02 0.  1.
          2   -1    0    0  501    0  0.00000000000E+00 -0.00000000000E+00 -0.21492732227E+04  0.21492732227E+04  0.25500000000E-02 0. -1.
    8880023    1    1    2    0    0  0.29122841802E+02 -0.13410281213E+03 -0.18777602505E+04  0.19946492094E+04  0.65864270000E+03 0. -1.
    8880022    1    1    2    0    0 -0.29122841802E+02  0.13410281213E+03 -0.16352649271E+03  0.26261049287E+03  0.15294330000E+03 0.  0.
<mgrwt>
<rscale>  0 0.50015214E+03</rscale>
<asrwt>0</asrwt>
<pdfrwt beam="1">  1        2 0.33065739E+00 0.67278668E+03</pdfrwt>
<pdfrwt beam="2">  1       -2 0.16613306E-01 0.67278668E+03</pdfrwt>
<totfact> 0.16818743E+02</totfact>
</mgrwt>
</event>
<event>
 4    2  0.2930016E-007  0.7230182E+03  0.7818608E-02  0.9912503E-01
         -2   -1    0    0    0  501 -0.00000000000E+00  0.00000000000E+00  0.51807469485E+03  0.51807469486E+03  0.25500000000E-02 0.  1.
          2   -1    0    0  501    0  0.00000000000E+00 -0.00000000000E+00 -0.12076317236E+04  0.12076317236E+04  0.25500000000E-02 0. -1.
    8880023    1    1    2    0    0 -0.14802892376E+03  0.25890645275E+03 -0.10231416379E+04  0.12528264569E+04  0.65864270000E+03 0. -1.
    8880022    1    1    2    0    0  0.14802892376E+03 -0.25890645275E+03  0.33358460920E+03  0.47287996157E+03  0.15294330000E+03 0.  0.
<mgrwt>
<rscale>  0 0.59659164E+03</rscale>
<asrwt>0</asrwt>
<pdfrwt beam="1">  1        2 0.18578950E+00 0.72301820E+03</pdfrwt>
<pdfrwt beam="2">  1       -2 0.79703799E-01 0.72301820E+03</pdfrwt>
<totfact> 0.26697518E+01</totfact>
</mgrwt>
</event>
<event>
 4    2  0.2930016E-007  0.6840554E+03  0.7818608E-02  0.1007117E+00
          2   -1    0    0  501    0  0.00000000000E+00  0.00000000000E+00  0.17657856697E+04  0.17657856697E+04  0.25500000000E-02 0. -1.
         -2   -1    0    0    0  501 -0.00000000000E+00 -0.00000000000E+00 -0.26584527039E+03  0.26584527041E+03  0.25500000000E-02 0.  1.
    8880023    1    1    2    0    0  0.79534714573E+02 -0.16672091291E+03  0.16235907329E+04  0.17618112010E+04  0.65864270000E+03 0. -1.
    8880022    1    1    2    0    0 -0.79534714573E+02  0.16672091291E+03 -0.12365033358E+03  0.26981973915E+03  0.15294330000E+03 0.  0.
<mgrwt>
<rscale>  0 0.52636802E+03</rscale>
<asrwt>0</asrwt>
<pdfrwt beam="1">  1        2 0.27165933E+00 0.68405544E+03</pdfrwt>
<pdfrwt beam="2">  1       -2 0.40899272E-01 0.68405544E+03</pdfrwt>
<totfact> 0.52749879E+01</totfact>
</mgrwt>
</event>
<event>
 4    2  0.2930016E-007  0.7566215E+03  0.7818608E-02  0.9813934E-01
         -2   -1    0    0    0  501 -0.00000000000E+00  0.00000000000E+00  0.62925123089E+03  0.62925123090E+03  0.25500000000E-02 0.  1.
          2   -1    0    0  501    0  0.00000000000E+00 -0.00000000000E+00 -0.16660692865E+04  0.16660692865E+04  0.25500000000E-02 0. -1.
    8880023    1    1    2    0    0  0.69247130731E+02  0.36588344529E+03 -0.15009857230E+04  0.16809027954E+04  0.65864270000E+03 0.  0.
    8880022    1    1    2    0    0 -0.69247130731E+02 -0.36588344529E+03  0.46416766739E+03  0.61441772201E+03  0.15294330000E+03 0.  0.
<mgrwt>
<rscale>  0 0.64620103E+03</rscale>
<asrwt>0</asrwt>
<pdfrwt beam="1">  1        2 0.25631835E+00 0.75662148E+03</pdfrwt>
<pdfrwt beam="2">  1       -2 0.96807883E-01 0.75662148E+03</pdfrwt>
<totfact> 0.93806550E+00</totfact>
</mgrwt>
</event>
<event>
 4    2  0.4253844E-007  0.7677728E+03  0.7818608E-02  0.9785385E-01
          2   -1    0    0  501    0  0.00000000000E+00  0.00000000000E+00  0.23247872578E+04  0.23247872578E+04  0.25500000000E-02 0. -1.
         -2   -1    0    0    0  501 -0.00000000000E+00 -0.00000000000E+00 -0.12634742551E+04  0.12634742551E+04  0.25500000000E-02 0.  1.
    8880023    1    1    2    0    0  0.31821488856E+03 -0.23324689536E+03  0.22230294624E+04  0.23518790416E+04  0.65864270000E+03 0. -1.
    8880022    1    1    2    0    0 -0.31821488856E+03  0.23324689536E+03 -0.11617164597E+04  0.12363824712E+04  0.15294330000E+03 0.  0.
<mgrwt>
<rscale>  0 0.66152809E+03</rscale>
<asrwt>0</asrwt>
<pdfrwt beam="1">  1        2 0.35765958E+00 0.76777278E+03</pdfrwt>
<pdfrwt beam="2">  1       -2 0.19438065E+00 0.76777278E+03</pdfrwt>
<totfact> 0.66637627E-01</totfact>
</mgrwt>
</event>
<event>
 4    2  0.2930016E-007  0.7611573E+03  0.7818608E-02  0.9802120E-01
          2   -1    0    0  501    0  0.00000000000E+00  0.00000000000E+00  0.26578196205E+04  0.26578196205E+04  0.25500000000E-02 0. -1.
         -2   -1    0    0    0  501 -0.00000000000E+00 -0.00000000000E+00 -0.29239368725E+03  0.29239368726E+03  0.25500000000E-02 0.  1.
    8880023    1    1    2    0    0 -0.36312209441E+03 -0.11701556342E+03  0.25893240411E+03  0.80399408810E+03  0.65864270000E+03 0.  1.
    8880022    1    1    2    0    0  0.36312209441E+03  0.11701556342E+03  0.21064935291E+04  0.21462192196E+04  0.15294330000E+03 0.  0.
<mgrwt>
<rscale>  0 0.65248874E+03</rscale>
<asrwt>0</asrwt>
<pdfrwt beam="1">  1        2 0.40889533E+00 0.76115734E+03</pdfrwt>
<pdfrwt beam="2">  1       -2 0.44983644E-01 0.76115734E+03</pdfrwt>
<totfact> 0.13841266E+01</totfact>
</mgrwt>
</event>
<event>
 4    2  0.2930016E-007  0.8993016E+03  0.7818608E-02  0.9527154E-01
          2   -1    0    0  501    0  0.00000000000E+00  0.00000000000E+00  0.76997231729E+03  0.76997231730E+03  0.25500000000E-02 0. -1.
         -2   -1    0    0    0  501 -0.00000000000E+00 -0.00000000000E+00 -0.19988449286E+04  0.19988449286E+04  0.25500000000E-02 0.  1.
    8880023    1    1    2    0    0 -0.66525492604E+02  0.60869328334E+03  0.42789397004E+03  0.99590994081E+03  0.65864270000E+03 0. -1.
    8880022    1    1    2    0    0  0.66525492604E+02 -0.60869328334E+03 -0.16567665814E+04  0.17729073051E+04  0.15294330000E+03 0.  0.
<mgrwt>
<rscale>  0 0.82311154E+03</rscale>
<asrwt>0</asrwt>
<pdfrwt beam="1">  1        2 0.11845728E+00 0.89930160E+03</pdfrwt>
<pdfrwt beam="2">  1       -2 0.30751460E+00 0.89930160E+03</pdfrwt>
<totfact> 0.10567380E+00</totfact>
</mgrwt>
</event>
<event>
 4    2  0.2930016E-007  0.1123569E+04  0.7818608E-02  0.9235258E-01
         -2   -1    0    0    0  501 -0.00000000000E+00  0.00000000000E+00  0.42311824615E+03  0.42311824616E+03  0.25500000000E-02 0.  1.
          2   -1    0    0  501    0  0.00000000000E+00 -0.00000000000E+00 -0.37914154402E+04  0.37914154402E+04  0.25500000000E-02 0. -1.
    8880023    1    1    2    0    0  0.77906406941E+03  0.47080347584E+03 -0.30297466507E+04  0.32313730380E+04  0.65864270000E+03 0.  0.
    8880022    1    1    2    0    0 -0.77906406941E+03 -0.47080347584E+03 -0.33855054340E+03  0.98316064840E+03  0.15294330000E+03 0.  0.
<mgrwt>
<rscale>  0 0.10696802E+04</rscale>
<asrwt>0</asrwt>
<pdfrwt beam="1">  1        2 0.58329466E+00 0.11235688E+04</pdfrwt>
<pdfrwt beam="2">  1       -2 0.65095117E-01 0.11235688E+04</pdfrwt>
<totfact> 0.11119787E+00</totfact>
</mgrwt>
</event>
<event>
 4    2  0.2930016E-007  0.7661401E+03  0.7818608E-02  0.9789463E-01
          2   -1    0    0  501    0  0.00000000000E+00  0.00000000000E+00  0.53547573326E+03  0.53547573327E+03  0.25500000000E-02 0. -1.
         -2   -1    0    0    0  501 -0.00000000000E+00 -0.00000000000E+00 -0.10237559949E+04  0.10237559949E+04  0.25500000000E-02 0.  1.
    8880023    1    1    2    0    0 -0.21317243367E+03 -0.32820419679E+03  0.16384257170E+03  0.78346351276E+03  0.65864270000E+03 0. -1.
    8880022    1    1    2    0    0  0.21317243367E+03  0.32820419679E+03 -0.65212283333E+03  0.77576821540E+03  0.15294330000E+03 0.  0.
<mgrwt>
<rscale>  0 0.65931093E+03</rscale>
<asrwt>0</asrwt>
<pdfrwt beam="1">  1        2 0.82380882E-01 0.76614012E+03</pdfrwt>
<pdfrwt beam="2">  1       -2 0.15750092E+00 0.76614012E+03</pdfrwt>
<totfact> 0.15133080E+01</totfact>
</mgrwt>
</event>
<event>
 4    2  0.2930016E-007  0.8727678E+03  0.7818608E-02  0.9571243E-01
         -2   -1    0    0    0  501 -0.00000000000E+00  0.00000000000E+00  0.50850185385E+03  0.50850185386E+03  0.25500000000E-02 0.  1.
          2   -1    0    0  501    0  0.00000000000E+00 -0.00000000000E+00 -0.15436346635E+04  0.15436346635E+04  0.25500000000E-02 0. -1.
    8880023    1    1    2    0    0 -0.25640399704E+03 -0.51202577936E+03 -0.11547562471E+04  0.14474755973E+04  0.65864270000E+03 0.  0.
    8880022    1    1    2    0    0  0.25640399704E+03  0.51202577936E+03  0.11962343743E+03  0.60466092004E+03  0.15294330000E+03 0.  0.
<mgrwt>
<rscale>  0 0.79229075E+03</rscale>
<asrwt>0</asrwt>
<pdfrwt beam="1">  1        2 0.23748225E+00 0.87276779E+03</pdfrwt>
<pdfrwt beam="2">  1       -2 0.78231055E-01 0.87276779E+03</pdfrwt>
<totfact> 0.17614339E+01</totfact>
</mgrwt>
</event>
<event>
 4    2  0.2930016E-007  0.9238593E+03  0.7818608E-02  0.9488767E-01
         -2   -1    0    0    0  501 -0.00000000000E+00  0.00000000000E+00  0.79101035649E+03  0.79101035649E+03  0.25500000000E-02 0.  1.
          2   -1    0    0  501    0  0.00000000000E+00 -0.00000000000E+00 -0.10820715731E+04  0.10820715731E+04  0.25500000000E-02 0. -1.
    8880023    1    1    2    0    0 -0.48620969829E+03 -0.42814239890E+03 -0.63770193792E+03  0.11225772812E+04  0.65864270000E+03 0.  0.
    8880022    1    1    2    0    0  0.48620969829E+03  0.42814239890E+03  0.34664072135E+03  0.75050464832E+03  0.15294330000E+03 0.  0.
<mgrwt>
<rscale>  0 0.85117092E+03</rscale>
<asrwt>0</asrwt>
<pdfrwt beam="1">  1        2 0.16647255E+00 0.92385929E+03</pdfrwt>
<pdfrwt beam="2">  1       -2 0.12169390E+00 0.92385929E+03</pdfrwt>
<totfact> 0.11454408E+01</totfact>
</mgrwt>
</event>
<event>
 4    2  0.2930016E-007  0.6691117E+03  0.7818608E-02  0.1016308E+00
          2   -1    0    0  501    0  0.00000000000E+00  0.00000000000E+00  0.14508474577E+04  0.14508474577E+04  0.25500000000E-02 0. -1.
         -2   -1    0    0    0  501 -0.00000000000E+00 -0.00000000000E+00 -0.24095550338E+03  0.24095550340E+03  0.25500000000E-02 0.  1.
    8880023    1    1    2    0    0 -0.11182857432E+03 -0.37344408378E+02  0.13124323444E+04  0.14731561695E+04  0.65864270000E+03 0.  0.
    8880022    1    1    2    0    0  0.11182857432E+03  0.37344408378E+02 -0.10254039006E+03  0.21864679161E+03  0.15294330000E+03 0.  0.
<mgrwt>
<rscale>  0 0.49042856E+03</rscale>
<asrwt>0</asrwt>
<pdfrwt beam="1">  1        2 0.22320730E+00 0.66911168E+03</pdfrwt>
<pdfrwt beam="2">  1       -2 0.37070078E-01 0.66911168E+03</pdfrwt>
<totfact> 0.95230671E+01</totfact>
</mgrwt>
</event>
<event>
 4    2  0.2930016E-007  0.9852390E+03  0.7818608E-02  0.9401129E-01
          2   -1    0    0  501    0  0.00000000000E+00  0.00000000000E+00  0.17570248562E+04  0.17570248563E+04  0.25500000000E-02 0. -1.
         -2   -1    0    0    0  501 -0.00000000000E+00 -0.00000000000E+00 -0.79807325295E+03  0.79807325295E+03  0.25500000000E-02 0.  1.
    8880023    1    1    2    0    0 -0.70393961134E+03 -0.20335849441E+03  0.13805172892E+04  0.16960317938E+04  0.65864270000E+03 0. -1.
    8880022    1    1    2    0    0  0.70393961134E+03  0.20335849441E+03 -0.42156568590E+03  0.85906631537E+03  0.15294330000E+03 0.  0.
<mgrwt>
<rscale>  0 0.91982788E+03</rscale>
<asrwt>0</asrwt>
<pdfrwt beam="1">  1        2 0.27031151E+00 0.98523899E+03</pdfrwt>
<pdfrwt beam="2">  1       -2 0.12278050E+00 0.98523899E+03</pdfrwt>
<totfact> 0.45617509E+00</totfact>
</mgrwt>
</event>
<event>
 4    2  0.2930016E-007  0.8184550E+03  0.7818608E-02  0.9672227E-01
          2   -1    0    0  501    0  0.00000000000E+00  0.00000000000E+00  0.22410978644E+04  0.22410978644E+04  0.25500000000E-02 0. -1.
         -2   -1    0    0    0  501 -0.00000000000E+00 -0.00000000000E+00 -0.34662094960E+03  0.34662094961E+03  0.25500000000E-02 0.  1.
    8880023    1    1    2    0    0  0.37691749392E+03  0.30658054087E+03  0.23455219180E+03  0.85140082347E+03  0.65864270000E+03 0.  0.
    8880022    1    1    2    0    0 -0.37691749392E+03 -0.30658054087E+03  0.16599247230E+04  0.17363179905E+04  0.15294330000E+03 0.  0.
<mgrwt>
<rscale>  0 0.72694715E+03</rscale>
<asrwt>0</asrwt>
<pdfrwt beam="1">  1        2 0.34478429E+00 0.81845503E+03</pdfrwt>
<pdfrwt beam="2">  1       -2 0.53326300E-01 0.81845503E+03</pdfrwt>
<totfact> 0.16716144E+01</totfact>
</mgrwt>
</event>
<event>
 4    2  0.2930016E-007  0.8346111E+03  0.7818608E-02  0.9640426E-01
          2   -1    0    0  501    0  0.00000000000E+00  0.00000000000E+00  0.46632292501E+03  0.46632292501E+03  0.25500000000E-02 0. -1.
         -2   -1    0    0    0  501 -0.00000000000E+00 -0.00000000000E+00 -0.11475323303E+04  0.11475323303E+04  0.25500000000E-02 0.  1.
    8880023    1    1    2    0    0 -0.23274700473E+03 -0.45672124345E+03 -0.12810226047E+03  0.84438489910E+03  0.65864270000E+03 0. -1.
    8880022    1    1    2    0    0  0.23274700473E+03  0.45672124345E+03 -0.55310714483E+03  0.76947035622E+03  0.15294330000E+03 0.  1.
<mgrwt>
<rscale>  0 0.74677313E+03</rscale>
<asrwt>0</asrwt>
<pdfrwt beam="1">  1        2 0.71741989E-01 0.83461109E+03</pdfrwt>
<pdfrwt beam="2">  1       -2 0.17654343E+00 0.83461109E+03</pdfrwt>
<totfact> 0.12896798E+01</totfact>
</mgrwt>
</event>
<event>
 4    2  0.2930016E-007  0.7133012E+03  0.7818608E-02  0.9945941E-01
          2   -1    0    0  501    0  0.00000000000E+00  0.00000000000E+00  0.19602523590E+04  0.19602523590E+04  0.25500000000E-02 0. -1.
         -2   -1    0    0    0  501 -0.00000000000E+00 -0.00000000000E+00 -0.30612974165E+03  0.30612974166E+03  0.25500000000E-02 0.  1.
    8880023    1    1    2    0    0  0.26757884215E+03 -0.58223006010E+02  0.17882414120E+04  0.19252547648E+04  0.65864270000E+03 0.  0.
    8880022    1    1    2    0    0 -0.26757884215E+03  0.58223006010E+02 -0.13411879469E+03  0.34112733590E+03  0.15294330000E+03 0.  0.
<mgrwt>
<rscale>  0 0.58085544E+03</rscale>
<asrwt>0</asrwt>
<pdfrwt beam="1">  1        2 0.30157729E+00 0.71330117E+03</pdfrwt>
<pdfrwt beam="2">  1       -2 0.47096882E-01 0.71330117E+03</pdfrwt>
<totfact> 0.31140341E+01</totfact>
</mgrwt>
</event>
<event>
 4    2  0.2930016E-007  0.7112123E+03  0.7818608E-02  0.9953526E-01
          2   -1    0    0  501    0  0.00000000000E+00  0.00000000000E+00  0.11511568034E+04  0.11511568034E+04  0.25500000000E-02 0. -1.
         -2   -1    0    0    0  501 -0.00000000000E+00 -0.00000000000E+00 -0.22998995513E+03  0.22998995514E+03  0.25500000000E-02 0.  1.
    8880023    1    1    2    0    0  0.21844055076E+03  0.15587324583E+03  0.55521366059E+03  0.90226667795E+03  0.65864270000E+03 0.  1.
    8880022    1    1    2    0    0 -0.21844055076E+03 -0.15587324583E+03  0.36595318765E+03  0.47888008055E+03  0.15294330000E+03 0. -1.
<mgrwt>
<rscale>  0 0.57735841E+03</rscale>
<asrwt>0</asrwt>
<pdfrwt beam="1">  1        2 0.17710105E+00 0.71121231E+03</pdfrwt>
<pdfrwt beam="2">  1       -2 0.35383070E-01 0.71121231E+03</pdfrwt>
<totfact> 0.15438648E+02</totfact>
</mgrwt>
</event>
<event>
 4    2  0.2930016E-007  0.7297174E+03  0.7818608E-02  0.9890980E-01
          2   -1    0    0  501    0  0.00000000000E+00  0.00000000000E+00  0.12361167707E+04  0.12361167707E+04  0.25500000000E-02 0. -1.
         -2   -1    0    0    0  501 -0.00000000000E+00 -0.00000000000E+00 -0.39810725907E+03  0.39810725908E+03  0.25500000000E-02 0.  1.
    8880023    1    1    2    0    0 -0.12320873018E+03 -0.28895817076E+03  0.10090194385E+04  0.12452339736E+04  0.65864270000E+03 0. -1.
    8880022    1    1    2    0    0  0.12320873018E+03  0.28895817076E+03 -0.17100992687E+03  0.38899005610E+03  0.15294330000E+03 0.  0.
<mgrwt>
<rscale>  0 0.60700410E+03</rscale>
<asrwt>0</asrwt>
<pdfrwt beam="1">  1        2 0.19017181E+00 0.72971736E+03</pdfrwt>
<pdfrwt beam="2">  1       -2 0.61247270E-01 0.72971736E+03</pdfrwt>
<totfact> 0.45603828E+01</totfact>
</mgrwt>
</event>
<event>
 4    2  0.2930016E-007  0.8310042E+03  0.7818608E-02  0.9647382E-01
         -2   -1    0    0    0  501 -0.00000000000E+00  0.00000000000E+00  0.13869608792E+04  0.13869608792E+04  0.25500000000E-02 0.  1.
          2   -1    0    0  501    0  0.00000000000E+00 -0.00000000000E+00 -0.37573180287E+03  0.37573180288E+03  0.25500000000E-02 0. -1.
    8880023    1    1    2    0    0 -0.30549444175E+02 -0.50579102430E+03  0.31633205828E+03  0.88917602653E+03  0.65864270000E+03 0.  1.
    8880022    1    1    2    0    0  0.30549444175E+02  0.50579102430E+03  0.69489701802E+03  0.87351665552E+03  0.15294330000E+03 0. -1.
<mgrwt>
<rscale>  0 0.74237981E+03</rscale>
<asrwt>0</asrwt>
<pdfrwt beam="1">  1        2 0.57804893E-01 0.83100423E+03</pdfrwt>
<pdfrwt beam="2">  1       -2 0.21337860E+00 0.83100423E+03</pdfrwt>
<totfact> 0.94098533E+00</totfact>
</mgrwt>
</event>
<event>
 4    2  0.2930016E-007  0.6961536E+03  0.7818608E-02  0.1001355E+00
         -2   -1    0    0    0  501 -0.00000000000E+00  0.00000000000E+00  0.10644369234E+04  0.10644369234E+04  0.25500000000E-02 0.  1.
          2   -1    0    0  501    0  0.00000000000E+00 -0.00000000000E+00 -0.26632773886E+03  0.26632773887E+03  0.25500000000E-02 0. -1.
    8880023    1    1    2    0    0  0.21334239445E+03  0.72833363176E+02  0.28981217061E+03  0.75406960989E+03  0.65864270000E+03 0.  0.
    8880022    1    1    2    0    0 -0.21334239445E+03 -0.72833363176E+02  0.50829701394E+03  0.57669505239E+03  0.15294330000E+03 0.  0.
<mgrwt>
<rscale>  0 0.55060176E+03</rscale>
<asrwt>0</asrwt>
<pdfrwt beam="1">  1        2 0.40973497E-01 0.69615363E+03</pdfrwt>
<pdfrwt beam="2">  1       -2 0.16375953E+00 0.69615363E+03</pdfrwt>
<totfact> 0.30126516E+01</totfact>
</mgrwt>
</event>
<event>
 4    2  0.2930016E-007  0.6615420E+03  0.7818608E-02  0.1022629E+00
         -2   -1    0    0    0  501 -0.00000000000E+00  0.00000000000E+00  0.23573042713E+03  0.23573042714E+03  0.25500000000E-02 0.  1.
          2   -1    0    0  501    0  0.00000000000E+00 -0.00000000000E+00 -0.88700694057E+03  0.88700694057E+03  0.25500000000E-02 0. -1.
    8880023    1    1    2    0    0 -0.45934315966E+02  0.41444226409E+02 -0.68721280444E+03  0.95388638219E+03  0.65864270000E+03 0.  0.
    8880022    1    1    2    0    0  0.45934315966E+02 -0.41444226409E+02  0.35936290993E+02  0.16885098552E+03  0.15294330000E+03 0.  0.
<mgrwt>
<rscale>  0 0.46749563E+03</rscale>
<asrwt>0</asrwt>
<pdfrwt beam="1">  1        2 0.13646260E+00 0.66154198E+03</pdfrwt>
<pdfrwt beam="2">  1       -2 0.36266220E-01 0.66154198E+03</pdfrwt>
<totfact> 0.21717601E+02</totfact>
</mgrwt>
</event>
<event>
 4    2  0.2930016E-007  0.6819755E+03  0.7818608E-02  0.1008228E+00
          2   -1    0    0  501    0  0.00000000000E+00  0.00000000000E+00  0.83364022943E+03  0.83364022943E+03  0.25500000000E-02 0. -1.
         -2   -1    0    0    0  501 -0.00000000000E+00 -0.00000000000E+00 -0.40005513109E+03  0.40005513110E+03  0.25500000000E-02 0.  1.
    8880023    1    1    2    0    0 -0.13525359325E+03  0.11396001223E+03  0.62991736054E+03  0.92837842836E+03  0.65864270000E+03 0. -1.
    8880022    1    1    2    0    0  0.13525359325E+03 -0.11396001223E+03 -0.19633226220E+03  0.30531693217E+03  0.15294330000E+03 0.  0.
<mgrwt>
<rscale>  0 0.52185192E+03</rscale>
<asrwt>0</asrwt>
<pdfrwt beam="1">  1        2 0.12825234E+00 0.68197553E+03</pdfrwt>
<pdfrwt beam="2">  1       -2 0.61546943E-01 0.68197553E+03</pdfrwt>
<totfact> 0.81424384E+01</totfact>
</mgrwt>
</event>
<event>
 4    2  0.2930016E-007  0.6605429E+03  0.7818608E-02  0.1023607E+00
          2   -1    0    0  501    0  0.00000000000E+00  0.00000000000E+00  0.33494531750E+04  0.33494531750E+04  0.25500000000E-02 0. -1.
         -2   -1    0    0    0  501 -0.00000000000E+00 -0.00000000000E+00 -0.92345231904E+02  0.92345231939E+02  0.25500000000E-02 0.  1.
    8880023    1    1    2    0    0  0.49251120366E+02  0.89987678532E+01  0.32054204368E+04  0.32727720717E+04  0.65864270000E+03 0. -1.
    8880022    1    1    2    0    0 -0.49251120366E+02 -0.89987678532E+01  0.51687506352E+02  0.16902633525E+03  0.15294330000E+03 0.  0.
<mgrwt>
<rscale>  0 0.46407125E+03</rscale>
<asrwt>0</asrwt>
<pdfrwt beam="1">  1        2 0.51530051E+00 0.66054285E+03</pdfrwt>
<pdfrwt beam="2">  1       -2 0.14206958E-01 0.66054285E+03</pdfrwt>
<totfact> 0.43000115E+01</totfact>
</mgrwt>
</event>
<event>
 4    2  0.2930016E-007  0.1363251E+04  0.7818608E-02  0.9012777E-01
          2   -1    0    0  501    0  0.00000000000E+00  0.00000000000E+00  0.33631731043E+04  0.33631731043E+04  0.25500000000E-02 0. -1.
         -2   -1    0    0    0  501 -0.00000000000E+00 -0.00000000000E+00 -0.66961987380E+03  0.66961987381E+03  0.25500000000E-02 0.  1.
    8880023    1    1    2    0    0  0.11372859125E+04 -0.36224935367E+03  0.24519375427E+04  0.28054325443E+04  0.65864270000E+03 0.  0.
    8880022    1    1    2    0    0 -0.11372859125E+04  0.36224935367E+03  0.24161568779E+03  0.12273604338E+04  0.15294330000E+03 0.  1.
<mgrwt>
<rscale>  0 0.13213849E+04</rscale>
<asrwt>0</asrwt>
<pdfrwt beam="1">  1        2 0.51741125E+00 0.13632513E+04</pdfrwt>
<pdfrwt beam="2">  1       -2 0.10301844E+00 0.13632513E+04</pdfrwt>
<totfact> 0.75810772E-01</totfact>
</mgrwt>
</event>
<event>
 4    2  0.2930016E-007  0.1170516E+04  0.7818608E-02  0.9186329E-01
         -2   -1    0    0    0  501 -0.00000000000E+00  0.00000000000E+00  0.12321430554E+04  0.12321430554E+04  0.25500000000E-02 0.  1.
          2   -1    0    0  501    0  0.00000000000E+00 -0.00000000000E+00 -0.11211997127E+04  0.11211997127E+04  0.25500000000E-02 0. -1.
    8880023    1    1    2    0    0 -0.27262458072E+03  0.92842538860E+03  0.53361658051E+03  0.12864115692E+04  0.65864270000E+03 0.  0.
    8880022    1    1    2    0    0  0.27262458072E+03 -0.92842538860E+03 -0.42267323775E+03  0.10669311989E+04  0.15294330000E+03 0.  0.
<mgrwt>
<rscale>  0 0.11195652E+04</rscale>
<asrwt>0</asrwt>
<pdfrwt beam="1">  1        2 0.17249226E+00 0.11705162E+04</pdfrwt>
<pdfrwt beam="2">  1       -2 0.18956047E+00 0.11705162E+04</pdfrwt>
<totfact> 0.32147509E+00</totfact>
</mgrwt>
</event>
<event>
 4    2  0.2930016E-007  0.7165625E+03  0.7818608E-02  0.9934393E-01
         -2   -1    0    0    0  501 -0.00000000000E+00  0.00000000000E+00  0.49635057022E+03  0.49635057022E+03  0.25500000000E-02 0.  1.
          2   -1    0    0  501    0  0.00000000000E+00 -0.00000000000E+00 -0.11862763987E+04  0.11862763987E+04  0.25500000000E-02 0. -1.
    8880023    1    1    2    0    0 -0.27833309162E+03  0.46715623654E+02 -0.10040333235E+04  0.12335091326E+04  0.65864270000E+03 0. -1.
    8880022    1    1    2    0    0  0.27833309162E+03 -0.46715623654E+02  0.31410749504E+03  0.44911783625E+03  0.15294330000E+03 0.  0.
<mgrwt>
<rscale>  0 0.58623001E+03</rscale>
<asrwt>0</asrwt>
<pdfrwt beam="1">  1        2 0.18250406E+00 0.71656253E+03</pdfrwt>
<pdfrwt beam="2">  1       -2 0.76361626E-01 0.71656253E+03</pdfrwt>
<totfact> 0.30268281E+01</totfact>
</mgrwt>
</event>
<event>
 4    2  0.2930016E-007  0.1100083E+04  0.7818608E-02  0.9260964E-01
          2   -1    0    0  501    0  0.00000000000E+00  0.00000000000E+00  0.36168697411E+04  0.36168697411E+04  0.25500000000E-02 0. -1.
         -2   -1    0    0    0  501 -0.00000000000E+00 -0.00000000000E+00 -0.33549826756E+03  0.33549826757E+03  0.25500000000E-02 0.  1.
    8880023    1    1    2    0    0  0.83390128375E+03  0.28457047767E+03  0.26154079897E+04  0.28373475054E+04  0.65864270000E+03 0.  0.
    8880022    1    1    2    0    0 -0.83390128375E+03 -0.28457047767E+03  0.66596348385E+03  0.11150205032E+04  0.15294330000E+03 0.  0.
<mgrwt>
<rscale>  0 0.10445739E+04</rscale>
<asrwt>0</asrwt>
<pdfrwt beam="1">  1        2 0.55644149E+00 0.11000827E+04</pdfrwt>
<pdfrwt beam="2">  1       -2 0.51615119E-01 0.11000827E+04</pdfrwt>
<totfact> 0.24393184E+00</totfact>
</mgrwt>
</event>
<event>
 4    2  0.2930016E-007  0.6971359E+03  0.7818608E-02  0.1000930E+00
          2   -1    0    0  501    0  0.00000000000E+00  0.00000000000E+00  0.97277284890E+03  0.97277284891E+03  0.25500000000E-02 0. -1.
         -2   -1    0    0    0  501 -0.00000000000E+00 -0.00000000000E+00 -0.44331906705E+03  0.44331906706E+03  0.25500000000E-02 0.  1.
    8880023    1    1    2    0    0  0.84914863942E+02 -0.21207956115E+03  0.77858808199E+03  0.10450827154E+04  0.65864270000E+03 0. -1.
    8880022    1    1    2    0    0 -0.84914863942E+02  0.21207956115E+03 -0.24913430013E+03  0.37100920055E+03  0.15294330000E+03 0.  0.
<mgrwt>
<rscale>  0 0.55244481E+03</rscale>
<asrwt>0</asrwt>
<pdfrwt beam="1">  1        2 0.14965736E+00 0.69713591E+03</pdfrwt>
<pdfrwt beam="2">  1       -2 0.68202934E-01 0.69713591E+03</pdfrwt>
<totfact> 0.52633876E+01</totfact>
</mgrwt>
</event>
<event>
 4    2  0.2930016E-007  0.6934583E+03  0.7818608E-02  0.1002550E+00
         -2   -1    0    0    0  501 -0.00000000000E+00  0.00000000000E+00  0.24465483454E+03  0.24465483455E+03  0.25500000000E-02 0.  1.
          2   -1    0    0  501    0  0.00000000000E+00 -0.00000000000E+00 -0.26377361272E+04  0.26377361272E+04  0.25500000000E-02 0. -1.
    8880023    1    1    2    0    0  0.12346159538E+03  0.17841363353E+03 -0.25013580761E+04  0.25957034925E+04  0.65864270000E+03 0. -1.
    8880022    1    1    2    0    0 -0.12346159538E+03 -0.17841363353E+03  0.10827678341E+03  0.28668746921E+03  0.15294330000E+03 0.  0.
<mgrwt>
<rscale>  0 0.54545960E+03</rscale>
<asrwt>0</asrwt>
<pdfrwt beam="1">  1        2 0.40580554E+00 0.69345829E+03</pdfrwt>
<pdfrwt beam="2">  1       -2 0.37639207E-01 0.69345829E+03</pdfrwt>
<totfact> 0.20386637E+01</totfact>
</mgrwt>
</event>
<event>
 4    2  0.2930016E-007  0.7671213E+03  0.7818608E-02  0.9787008E-01
          2   -1    0    0  501    0  0.00000000000E+00  0.00000000000E+00  0.28002199425E+04  0.28002199425E+04  0.25500000000E-02 0. -1.
         -2   -1    0    0    0  501 -0.00000000000E+00 -0.00000000000E+00 -0.12848393964E+03  0.12848393967E+03  0.25500000000E-02 0.  1.
    8880023    1    1    2    0    0  0.12749389342E+03 -0.37203529048E+03  0.15312536369E+04  0.17126625053E+04  0.65864270000E+03 0.  1.
    8880022    1    1    2    0    0 -0.12749389342E+03  0.37203529048E+03  0.11404823660E+04  0.12160413769E+04  0.15294330000E+03 0. -1.
<mgrwt>
<rscale>  0 0.66064448E+03</rscale>
<asrwt>0</asrwt>
<pdfrwt beam="1">  1        2 0.43080304E+00 0.76712134E+03</pdfrwt>
<pdfrwt beam="2">  1       -2 0.19766761E-01 0.76712134E+03</pdfrwt>
<totfact> 0.52698899E+01</totfact>
</mgrwt>
</event>
<event>
 4    2  0.2930016E-007  0.8853710E+03  0.7818608E-02  0.9549936E-01
         -2   -1    0    0    0  501 -0.00000000000E+00  0.00000000000E+00  0.46413172616E+03  0.46413172617E+03  0.25500000000E-02 0.  1.
          2   -1    0    0  501    0  0.00000000000E+00 -0.00000000000E+00 -0.22269473094E+04  0.22269473094E+04  0.25500000000E-02 0. -1.
    8880023    1    1    2    0    0 -0.22272949997E+03 -0.54814515447E+03 -0.66297754545E+02  0.88784972774E+03  0.65864270000E+03 0.  0.
    8880022    1    1    2    0    0  0.22272949997E+03  0.54814515447E+03 -0.16965178287E+04  0.18032293078E+04  0.15294330000E+03 0.  0.
<mgrwt>
<rscale>  0 0.80700260E+03</rscale>
<asrwt>0</asrwt>
<pdfrwt beam="1">  1        2 0.34260727E+00 0.88537097E+03</pdfrwt>
<pdfrwt beam="2">  1       -2 0.71404882E-01 0.88537097E+03</pdfrwt>
<totfact> 0.90587408E+00</totfact>
</mgrwt>
</event>
<event>
 4    2  0.2930016E-007  0.6886341E+03  0.7818608E-02  0.1004809E+00
          2   -1    0    0  501    0  0.00000000000E+00  0.00000000000E+00  0.92124969064E+03  0.92124969065E+03  0.25500000000E-02 0. -1.
         -2   -1    0    0    0  501 -0.00000000000E+00 -0.00000000000E+00 -0.52175204527E+03  0.52175204528E+03  0.25500000000E-02 0.  1.
    8880023    1    1    2    0    0 -0.14398792405E+03 -0.14026473025E+03  0.74532571310E+03  0.10147548185E+04  0.65864270000E+03 0. -1.
    8880022    1    1    2    0    0  0.14398792405E+03  0.14026473025E+03 -0.34582806774E+03  0.42824691741E+03  0.15294330000E+03 0.  0.
<mgrwt>
<rscale>  0 0.53591090E+03</rscale>
<asrwt>0</asrwt>
<pdfrwt beam="1">  1        2 0.14173072E+00 0.68863410E+03</pdfrwt>
<pdfrwt beam="2">  1       -2 0.80269547E-01 0.68863410E+03</pdfrwt>
<totfact> 0.39729356E+01</totfact>
</mgrwt>
</event>
<event>
 4    2  0.2930016E-007  0.7872683E+03  0.7818608E-02  0.9739033E-01
          2   -1    0    0  501    0  0.00000000000E+00  0.00000000000E+00  0.75322748648E+03  0.75322748649E+03  0.25500000000E-02 0. -1.
         -2   -1    0    0    0  501 -0.00000000000E+00 -0.00000000000E+00 -0.16391611719E+04  0.16391611719E+04  0.25500000000E-02 0.  1.
    8880023    1    1    2    0    0  0.24846113953E+03  0.35248855937E+03  0.50016644789E+03  0.93271528571E+03  0.65864270000E+03 0.  0.
    8880022    1    1    2    0    0 -0.24846113953E+03 -0.35248855937E+03 -0.13861001333E+04  0.14596733726E+04  0.15294330000E+03 0.  0.
<mgrwt>
<rscale>  0 0.68739614E+03</rscale>
<asrwt>0</asrwt>
<pdfrwt beam="1">  1        2 0.11588115E+00 0.78726827E+03</pdfrwt>
<pdfrwt beam="2">  1       -2 0.25217864E+00 0.78726827E+03</pdfrwt>
<totfact> 0.23839738E+00</totfact>
</mgrwt>
</event>
<event>
 4    2  0.2930016E-007  0.6843164E+03  0.7818608E-02  0.1006980E+00
          2   -1    0    0  501    0  0.00000000000E+00  0.00000000000E+00  0.21362692012E+04  0.21362692012E+04  0.25500000000E-02 0. -1.
         -2   -1    0    0    0  501 -0.00000000000E+00 -0.00000000000E+00 -0.10293670895E+03  0.10293670899E+03  0.25500000000E-02 0.  1.
    8880023    1    1    2    0    0 -0.10358992194E+03  0.15410334634E+03  0.16546461178E+04  0.17905704942E+04  0.65864270000E+03 0.  0.
    8880022    1    1    2    0    0  0.10358992194E+03 -0.15410334634E+03  0.37868637451E+03  0.44863541605E+03  0.15294330000E+03 0. -1.
<mgrwt>
<rscale>  0 0.52692613E+03</rscale>
<asrwt>0</asrwt>
<pdfrwt beam="1">  1        2 0.32865676E+00 0.68431639E+03</pdfrwt>
<pdfrwt beam="2">  1       -2 0.15836419E-01 0.68431639E+03</pdfrwt>
<totfact> 0.18526945E+02</totfact>
</mgrwt>
</event>
<event>
 4    2  0.2930016E-007  0.6971134E+03  0.7818608E-02  0.1000939E+00
         -2   -1    0    0    0  501 -0.00000000000E+00  0.00000000000E+00  0.16786425929E+03  0.16786425931E+03  0.25500000000E-02 0.  1.
          2   -1    0    0  501    0  0.00000000000E+00 -0.00000000000E+00 -0.14352956551E+04  0.14352956551E+04  0.25500000000E-02 0. -1.
    8880023    1    1    2    0    0 -0.20810517888E+03 -0.94069702236E+02 -0.10052107897E+04  0.12232807578E+04  0.65864270000E+03 0. -1.
    8880022    1    1    2    0    0  0.20810517888E+03  0.94069702236E+02 -0.26222060609E+03  0.37987915661E+03  0.15294330000E+03 0.  0.
<mgrwt>
<rscale>  0 0.55240273E+03</rscale>
<asrwt>0</asrwt>
<pdfrwt beam="1">  1        2 0.22081471E+00 0.69711339E+03</pdfrwt>
<pdfrwt beam="2">  1       -2 0.25825272E-01 0.69711339E+03</pdfrwt>
<totfact> 0.19007435E+02</totfact>
</mgrwt>
</event>
<event>
 4    2  0.3260983E-007  0.9337393E+03  0.7818608E-02  0.9473906E-01
         -2   -1    0    0    0  501 -0.00000000000E+00  0.00000000000E+00  0.12976255291E+04  0.12976255291E+04  0.25500000000E-02 0.  1.
          2   -1    0    0  501    0  0.00000000000E+00 -0.00000000000E+00 -0.16475837205E+04  0.16475837205E+04  0.25500000000E-02 0. -1.
    8880023    1    1    2    0    0 -0.34568628755E+03 -0.56441115797E+03 -0.14070400450E+04  0.16886772513E+04  0.65864270000E+03 0. -1.
    8880022    1    1    2    0    0  0.34568628755E+03  0.56441115797E+03  0.10570818536E+04  0.12565319983E+04  0.15294330000E+03 0.  0.
<mgrwt>
<rscale>  0 0.86235264E+03</rscale>
<asrwt>0</asrwt>
<pdfrwt beam="1">  1        2 0.25347442E+00 0.93373935E+03</pdfrwt>
<pdfrwt beam="2">  1       -2 0.19963470E+00 0.93373935E+03</pdfrwt>
<totfact> 0.14087497E+00</totfact>
</mgrwt>
</event>
<event>
 4    2  0.2930016E-007  0.8791789E+03  0.7818608E-02  0.9560318E-01
         -2   -1    0    0    0  501 -0.00000000000E+00  0.00000000000E+00  0.53700454100E+03  0.53700454101E+03  0.25500000000E-02 0.  1.
          2   -1    0    0  501    0  0.00000000000E+00 -0.00000000000E+00 -0.22793460067E+04  0.22793460067E+04  0.25500000000E-02 0. -1.
    8880023    1    1    2    0    0 -0.53502917072E+03  0.22997643250E+03 -0.19820418186E+04  0.21682816584E+04  0.65864270000E+03 0. -1.
    8880022    1    1    2    0    0  0.53502917072E+03 -0.22997643250E+03  0.23970035297E+03  0.64806888929E+03  0.15294330000E+03 0.  0.
<mgrwt>
<rscale>  0 0.79979189E+03</rscale>
<asrwt>0</asrwt>
<pdfrwt beam="1">  1        2 0.35066861E+00 0.87917892E+03</pdfrwt>
<pdfrwt beam="2">  1       -2 0.82616084E-01 0.87917892E+03</pdfrwt>
<totfact> 0.61209953E+00</totfact>
</mgrwt>
</event>
<event>
 4    2  0.2930016E-007  0.7544582E+03  0.7818608E-02  0.9819672E-01
         -2   -1    0    0    0  501 -0.00000000000E+00  0.00000000000E+00  0.32626271334E+03  0.32626271335E+03  0.25500000000E-02 0.  1.
          2   -1    0    0  501    0  0.00000000000E+00 -0.00000000000E+00 -0.13714322399E+04  0.13714322399E+04  0.25500000000E-02 0. -1.
    8880023    1    1    2    0    0  0.30249330395E+03  0.20951077778E+03 -0.10574740313E+04  0.12990221315E+04  0.65864270000E+03 0. -1.
    8880022    1    1    2    0    0 -0.30249330395E+03 -0.20951077778E+03  0.12304504765E+02  0.39867282174E+03  0.15294330000E+03 0.  0.
<mgrwt>
<rscale>  0 0.64317448E+03</rscale>
<asrwt>0</asrwt>
<pdfrwt beam="1">  1        2 0.21098957E+00 0.75445820E+03</pdfrwt>
<pdfrwt beam="2">  1       -2 0.50194264E-01 0.75445820E+03</pdfrwt>
<totfact> 0.57490512E+01</totfact>
</mgrwt>
</event>
<event>
 4    2  0.2930016E-007  0.6603106E+03  0.7818608E-02  0.1023840E+00
         -2   -1    0    0    0  501 -0.00000000000E+00  0.00000000000E+00  0.44603577500E+02  0.44603577573E+02  0.25500000000E-02 0.  1.
          2   -1    0    0  501    0  0.00000000000E+00 -0.00000000000E+00 -0.51197633720E+04  0.51197633720E+04  0.25500000000E-02 0. -1.
    8880023    1    1    2    0    0 -0.31550934826E+02 -0.34705701485E+02 -0.48068130864E+04  0.48519544723E+04  0.65864270000E+03 0. -1.
    8880022    1    1    2    0    0  0.31550934826E+02  0.34705701485E+02 -0.26834670807E+03  0.31241247726E+03  0.15294330000E+03 0.  0.
<mgrwt>
<rscale>  0 0.46325851E+03</rscale>
<asrwt>0</asrwt>
<pdfrwt beam="1">  1        2 0.78765544E+00 0.66031065E+03</pdfrwt>
<pdfrwt beam="2">  1       -2 0.68620929E-02 0.66031065E+03</pdfrwt>
<totfact> 0.36400016E+00</totfact>
</mgrwt>
</event>
<event>
 4    2  0.2930016E-007  0.7670512E+03  0.7818608E-02  0.9787183E-01
          2   -1    0    0  501    0  0.00000000000E+00  0.00000000000E+00  0.12145069664E+04  0.12145069664E+04  0.25500000000E-02 0. -1.
         -2   -1    0    0    0  501 -0.00000000000E+00 -0.00000000000E+00 -0.34655907842E+03  0.34655907843E+03  0.25500000000E-02 0.  1.
    8880023    1    1    2    0    0  0.24778132775E+03 -0.30522410112E+03  0.84114895500E+03  0.11383756450E+04  0.65864270000E+03 0.  0.
    8880022    1    1    2    0    0 -0.24778132775E+03  0.30522410112E+03  0.26798932938E+02  0.42269039983E+03  0.15294330000E+03 0.  0.
<mgrwt>
<rscale>  0 0.66054925E+03</rscale>
<asrwt>0</asrwt>
<pdfrwt beam="1">  1        2 0.18684723E+00 0.76705120E+03</pdfrwt>
<pdfrwt beam="2">  1       -2 0.53316781E-01 0.76705120E+03</pdfrwt>
<totfact> 0.62533866E+01</totfact>
</mgrwt>
</event>
<event>
 4    2  0.3517403E-007  0.8417586E+03  0.7818608E-02  0.9626873E-01
          2   -1    0    0  501    0  0.00000000000E+00  0.00000000000E+00  0.19187204789E+04  0.19187204789E+04  0.25500000000E-02 0. -1.
         -2   -1    0    0    0  501 -0.00000000000E+00 -0.00000000000E+00 -0.11090283556E+04  0.11090283556E+04  0.25500000000E-02 0.  1.
    8880023    1    1    2    0    0 -0.18774802375E+03  0.48938532681E+03  0.17491410872E+04  0.19411471010E+04  0.65864270000E+03 0.  0.
    8880022    1    1    2    0    0  0.18774802375E+03 -0.48938532681E+03 -0.93944896392E+03  0.10866017335E+04  0.15294330000E+03 0.  0.
<mgrwt>
<rscale>  0 0.75542788E+03</rscale>
<asrwt>0</asrwt>
<pdfrwt beam="1">  1        2 0.29518776E+00 0.84175859E+03</pdfrwt>
<pdfrwt beam="2">  1       -2 0.17061975E+00 0.84175859E+03</pdfrwt>
<totfact> 0.15969733E+00</totfact>
</mgrwt>
</event>
<event>
 4    2  0.2930016E-007  0.6897247E+03  0.7818608E-02  0.1004284E+00
          2   -1    0    0  501    0  0.00000000000E+00  0.00000000000E+00  0.52852415109E+03  0.52852415109E+03  0.25500000000E-02 0. -1.
         -2   -1    0    0    0  501 -0.00000000000E+00 -0.00000000000E+00 -0.13330134873E+04  0.13330134873E+04  0.25500000000E-02 0.  1.
    8880023    1    1    2    0    0  0.16452844560E+03  0.12182106673E+03  0.28218789611E+03  0.74521822085E+03  0.65864270000E+03 0. -1.
    8880022    1    1    2    0    0 -0.16452844560E+03 -0.12182106673E+03 -0.10866772323E+04  0.11163194175E+04  0.15294330000E+03 0.  0.
<mgrwt>
<rscale>  0 0.53811159E+03</rscale>
<asrwt>0</asrwt>
<pdfrwt beam="1">  1        2 0.81311408E-01 0.68972472E+03</pdfrwt>
<pdfrwt beam="2">  1       -2 0.20507900E+00 0.68972472E+03</pdfrwt>
<totfact> 0.73082028E+00</totfact>
</mgrwt>
</event>
<event>
 4    2  0.2930016E-007  0.7463607E+03  0.7818608E-02  0.9841792E-01
          2   -1    0    0  501    0  0.00000000000E+00  0.00000000000E+00  0.10257728823E+04  0.10257728823E+04  0.25500000000E-02 0. -1.
         -2   -1    0    0    0  501 -0.00000000000E+00 -0.00000000000E+00 -0.73490270710E+03  0.73490270710E+03  0.25500000000E-02 0.  1.
    8880023    1    1    2    0    0  0.26335727278E+03  0.23213594888E+03  0.81916790743E+03  0.11081924105E+04  0.65864270000E+03 0.  0.
    8880022    1    1    2    0    0 -0.26335727278E+03 -0.23213594888E+03 -0.52829773221E+03  0.65248317891E+03  0.15294330000E+03 0.  0.
<mgrwt>
<rscale>  0 0.63167195E+03</rscale>
<asrwt>0</asrwt>
<pdfrwt beam="1">  1        2 0.15781121E+00 0.74636074E+03</pdfrwt>
<pdfrwt beam="2">  1       -2 0.11306195E+00 0.74636074E+03</pdfrwt>
<totfact> 0.15165439E+01</totfact>
</mgrwt>
</event>
<event>
 4    2  0.3925288E-007  0.7228035E+03  0.7818608E-02  0.9913212E-01
         -2   -1    0    0    0  501 -0.00000000000E+00  0.00000000000E+00  0.11187958511E+04  0.11187958511E+04  0.25500000000E-02 0.  1.
          2   -1    0    0  501    0  0.00000000000E+00 -0.00000000000E+00 -0.12552386391E+04  0.12552386391E+04  0.25500000000E-02 0. -1.
    8880023    1    1    2    0    0  0.53809145672E+01 -0.29766705600E+03 -0.11211773056E+04  0.13339727836E+04  0.65864270000E+03 0. -1.
    8880022    1    1    2    0    0 -0.53809145672E+01  0.29766705600E+03  0.98473451757E+03  0.10400617066E+04  0.15294330000E+03 0.  0.
<mgrwt>
<rscale>  0 0.59625242E+03</rscale>
<asrwt>0</asrwt>
<pdfrwt beam="1">  1        2 0.19311364E+00 0.72280346E+03</pdfrwt>
<pdfrwt beam="2">  1       -2 0.17212244E+00 0.72280346E+03</pdfrwt>
<totfact> 0.37185362E+00</totfact>
</mgrwt>
</event>
<event>
 4    2  0.2930016E-007  0.6992300E+03  0.7818608E-02  0.1000041E+00
          2   -1    0    0  501    0  0.00000000000E+00  0.00000000000E+00  0.12671948881E+04  0.12671948881E+04  0.25500000000E-02 0. -1.
         -2   -1    0    0    0  501 -0.00000000000E+00 -0.00000000000E+00 -0.79541135281E+03  0.79541135282E+03  0.25500000000E-02 0.  1.
    8880023    1    1    2    0    0  0.23414776485E+03  0.16946235583E+02  0.11403769314E+04  0.13376778770E+04  0.65864270000E+03 0. -1.
    8880022    1    1    2    0    0 -0.23414776485E+03 -0.16946235583E+02 -0.66859339603E+03  0.72492836399E+03  0.15294330000E+03 0.  0.
<mgrwt>
<rscale>  0 0.55632234E+03</rscale>
<asrwt>0</asrwt>
<pdfrwt beam="1">  1        2 0.19495306E+00 0.69922997E+03</pdfrwt>
<pdfrwt beam="2">  1       -2 0.12237098E+00 0.69922997E+03</pdfrwt>
<totfact> 0.89832173E+00</totfact>
</mgrwt>
</event>
<event>
 4    2  0.2930016E-007  0.8704038E+03  0.7818608E-02  0.9575318E-01
         -2   -1    0    0    0  501 -0.00000000000E+00  0.00000000000E+00  0.45009586431E+03  0.45009586431E+03  0.25500000000E-02 0.  1.
          2   -1    0    0  501    0  0.00000000000E+00 -0.00000000000E+00 -0.17810587380E+04  0.17810587380E+04  0.25500000000E-02 0. -1.
    8880023    1    1    2    0    0  0.24272180116E+03  0.51466363587E+03 -0.11242584246E+03  0.87763449520E+03  0.65864270000E+03 0.  0.
    8880022    1    1    2    0    0 -0.24272180116E+03 -0.51466363587E+03 -0.12185370312E+04  0.13535201071E+04  0.15294330000E+03 0.  0.
<mgrwt>
<rscale>  0 0.78951533E+03</rscale>
<asrwt>0</asrwt>
<pdfrwt beam="1">  1        2 0.27400903E+00 0.87040378E+03</pdfrwt>
<pdfrwt beam="2">  1       -2 0.69245519E-01 0.87040378E+03</pdfrwt>
<totfact> 0.17068326E+01</totfact>
</mgrwt>
</event>
<event>
 4    2  0.2930016E-007  0.1053404E+04  0.7818608E-02  0.9314801E-01
          2   -1    0    0  501    0  0.00000000000E+00  0.00000000000E+00  0.27183778483E+04  0.27183778483E+04  0.25500000000E-02 0. -1.
         -2   -1    0    0    0  501 -0.00000000000E+00 -0.00000000000E+00 -0.75596959818E+03  0.75596959818E+03  0.25500000000E-02 0.  1.
    8880023    1    1    2    0    0  0.82207014686E+03  0.70826270693E+01  0.23329283341E+04  0.25597293427E+04  0.65864270000E+03 0.  0.
    8880022    1    1    2    0    0 -0.82207014686E+03 -0.70826270693E+01 -0.37052008399E+03  0.91461810370E+03  0.15294330000E+03 0.  0.
<mgrwt>
<rscale>  0 0.99431628E+03</rscale>
<asrwt>0</asrwt>
<pdfrwt beam="1">  1        2 0.41821198E+00 0.10534039E+04</pdfrwt>
<pdfrwt beam="2">  1       -2 0.11630301E+00 0.10534039E+04</pdfrwt>
<totfact> 0.14907294E+00</totfact>
</mgrwt>
</event>
<event>
 4    2  0.2930016E-007  0.9003773E+03  0.7818608E-02  0.9525426E-01
          2   -1    0    0  501    0  0.00000000000E+00  0.00000000000E+00  0.12121843540E+04  0.12121843540E+04  0.25500000000E-02 0. -1.
         -2   -1    0    0    0  501 -0.00000000000E+00 -0.00000000000E+00 -0.86787376634E+03  0.86787376634E+03  0.25500000000E-02 0.  1.
    8880023    1    1    2    0    0 -0.61370389121E+03 -0.15384133804E+02  0.87408965635E+03  0.12548753210E+04  0.65864270000E+03 0.  0.
    8880022    1    1    2    0    0  0.61370389121E+03  0.15384133804E+02 -0.52977906871E+03  0.82518279933E+03  0.15294330000E+03 0.  0.
<mgrwt>
<rscale>  0 0.82434934E+03</rscale>
<asrwt>0</asrwt>
<pdfrwt beam="1">  1        2 0.18648990E+00 0.90037733E+03</pdfrwt>
<pdfrwt beam="2">  1       -2 0.13351904E+00 0.90037733E+03</pdfrwt>
<totfact> 0.75751989E+00</totfact>
</mgrwt>
</event>
<event>
 4    2  0.2930016E-007  0.7172259E+03  0.7818608E-02  0.9932087E-01
          2   -1    0    0  501    0  0.00000000000E+00  0.00000000000E+00  0.22696592893E+04  0.22696592893E+04  0.25500000000E-02 0. -1.
         -2   -1    0    0    0  501 -0.00000000000E+00 -0.00000000000E+00 -0.40092216741E+03  0.40092216742E+03  0.25500000000E-02 0.  1.
    8880023    1    1    2    0    0 -0.27554398573E+03 -0.68398105555E+02  0.21350825052E+04  0.22523299712E+04  0.65864270000E+03 0. -1.
    8880022    1    1    2    0    0  0.27554398573E+03  0.68398105555E+02 -0.26634538330E+03  0.41825148552E+03  0.15294330000E+03 0.  0.
<mgrwt>
<rscale>  0 0.58731114E+03</rscale>
<asrwt>0</asrwt>
<pdfrwt beam="1">  1        2 0.34917836E+00 0.71722590E+03</pdfrwt>
<pdfrwt beam="2">  1       -2 0.61680332E-01 0.71722590E+03</pdfrwt>
<totfact> 0.12065061E+01</totfact>
</mgrwt>
</event>
<event>
 4    2  0.2930016E-007  0.1537486E+04  0.7818608E-02  0.8883610E-01
         -2   -1    0    0    0  501 -0.00000000000E+00  0.00000000000E+00  0.10676567223E+04  0.10676567223E+04  0.25500000000E-02 0.  1.
          2   -1    0    0  501    0  0.00000000000E+00 -0.00000000000E+00 -0.22030531552E+04  0.22030531552E+04  0.25500000000E-02 0. -1.
    8880023    1    1    2    0    0  0.13856001079E+04  0.10082217885E+03 -0.10668530188E+04  0.18713733835E+04  0.65864270000E+03 0.  0.
    8880022    1    1    2    0    0 -0.13856001079E+04 -0.10082217885E+03 -0.68543414188E+02  0.13993364940E+04  0.15294330000E+03 0.  0.
<mgrwt>
<rscale>  0 0.15012689E+04</rscale>
<asrwt>0</asrwt>
<pdfrwt beam="1">  1        2 0.33893125E+00 0.15374859E+04</pdfrwt>
<pdfrwt beam="2">  1       -2 0.16425488E+00 0.15374859E+04</pdfrwt>
<totfact> 0.11323182E+00</totfact>
</mgrwt>
</event>
<event>
 4    2  0.2930016E-007  0.6751763E+03  0.7818608E-02  0.1012195E+00
          2   -1    0    0  501    0  0.00000000000E+00  0.00000000000E+00  0.10946414557E+04  0.10946414557E+04  0.25500000000E-02 0. -1.
         -2   -1    0    0    0  501 -0.00000000000E+00 -0.00000000000E+00 -0.18825723732E+03  0.18825723734E+03  0.25500000000E-02 0.  1.
    8880023    1    1    2    0    0  0.13301788437E+03  0.66023227090E+02  0.56485018018E+03  0.88029469861E+03  0.65864270000E+03 0.  0.
    8880022    1    1    2    0    0 -0.13301788437E+03 -0.66023227090E+02  0.34153403821E+03  0.40260399445E+03  0.15294330000E+03 0.  0.
<mgrwt>
<rscale>  0 0.50611362E+03</rscale>
<asrwt>0</asrwt>
<pdfrwt beam="1">  1        2 0.16840638E+00 0.67517630E+03</pdfrwt>
<pdfrwt beam="2">  1       -2 0.28962651E-01 0.67517630E+03</pdfrwt>
<totfact> 0.24369361E+02</totfact>
</mgrwt>
</event>
<event>
 4    2  0.2930016E-007  0.1132657E+04  0.7818608E-02  0.9225539E-01
          2   -1    0    0  501    0  0.00000000000E+00  0.00000000000E+00  0.67507483939E+03  0.67507483940E+03  0.25500000000E-02 0. -1.
         -2   -1    0    0    0  501 -0.00000000000E+00 -0.00000000000E+00 -0.18701359465E+04  0.18701359465E+04  0.25500000000E-02 0.  1.
    8880023    1    1    2    0    0 -0.88572348528E+03  0.25415636214E+03 -0.14836438321E+03  0.11423325896E+04  0.65864270000E+03 0.  0.
    8880022    1    1    2    0    0  0.88572348528E+03 -0.25415636214E+03 -0.10466967239E+04  0.14028781963E+04  0.15294330000E+03 0.  0.
<mgrwt>
<rscale>  0 0.10793668E+04</rscale>
<asrwt>0</asrwt>
<pdfrwt beam="1">  1        2 0.10385767E+00 0.11326569E+04</pdfrwt>
<pdfrwt beam="2">  1       -2 0.28771322E+00 0.11326569E+04</pdfrwt>
<totfact> 0.16018943E+00</totfact>
</mgrwt>
</event>
<event>
 4    2  0.2930016E-007  0.7528264E+03  0.7818608E-02  0.9824046E-01
         -2   -1    0    0    0  501 -0.00000000000E+00  0.00000000000E+00  0.46631163514E+03  0.46631163515E+03  0.25500000000E-02 0.  1.
          2   -1    0    0  501    0  0.00000000000E+00 -0.00000000000E+00 -0.19394984414E+04  0.19394984414E+04  0.25500000000E-02 0. -1.
    8880023    1    1    2    0    0 -0.32976224185E+03  0.15554517497E+03 -0.17620581502E+04  0.19161410618E+04  0.65864270000E+03 0.  0.
    8880022    1    1    2    0    0  0.32976224185E+03 -0.15554517497E+03  0.28887134399E+03  0.48966901474E+03  0.15294330000E+03 0.  0.
<mgrwt>
<rscale>  0 0.64087912E+03</rscale>
<asrwt>0</asrwt>
<pdfrwt beam="1">  1        2 0.29838437E+00 0.75282644E+03</pdfrwt>
<pdfrwt beam="2">  1       -2 0.71740252E-01 0.75282644E+03</pdfrwt>
<totfact> 0.13138680E+01</totfact>
</mgrwt>
</event>
<event>
 4    2  0.2930016E-007  0.6642102E+03  0.7818608E-02  0.1020205E+00
         -2   -1    0    0    0  501 -0.00000000000E+00  0.00000000000E+00  0.36551438754E+03  0.36551438755E+03  0.25500000000E-02 0.  1.
          2   -1    0    0  501    0  0.00000000000E+00 -0.00000000000E+00 -0.54925486926E+03  0.54925486926E+03  0.25500000000E-02 0. -1.
    8880023    1    1    2    0    0 -0.31541081903E+02 -0.79813562654E+02 -0.27283163802E+03  0.71806152494E+03  0.65864270000E+03 0. -1.
    8880022    1    1    2    0    0  0.31541081903E+02  0.79813562654E+02  0.89091156306E+02  0.19670773187E+03  0.15294330000E+03 0.  0.
<mgrwt>
<rscale>  0 0.47612572E+03</rscale>
<asrwt>0</asrwt>
<pdfrwt beam="1">  1        2 0.84500750E-01 0.66421025E+03</pdfrwt>
<pdfrwt beam="2">  1       -2 0.56232982E-01 0.66421025E+03</pdfrwt>
<totfact> 0.16601844E+02</totfact>
</mgrwt>
</event>
<event>
 4    2  0.2930016E-007  0.7092548E+03  0.7818608E-02  0.9960779E-01
          2   -1    0    0  501    0  0.00000000000E+00  0.00000000000E+00  0.20854124271E+04  0.20854124271E+04  0.25500000000E-02 0. -1.
         -2   -1    0    0    0  501 -0.00000000000E+00 -0.00000000000E+00 -0.22034353726E+03  0.22034353728E+03  0.25500000000E-02 0.  1.
    8880023    1    1    2    0    0  0.22297900032E+03 -0.13968707418E+03  0.18714564231E+04  0.20013474119E+04  0.65864270000E+03 0. -1.
    8880022    1    1    2    0    0 -0.22297900032E+03  0.13968707418E+03 -0.63875331901E+01  0.30440855256E+03  0.15294330000E+03 0.  1.
<mgrwt>
<rscale>  0 0.57403979E+03</rscale>
<asrwt>0</asrwt>
<pdfrwt beam="1">  1        2 0.32083267E+00 0.70925476E+03</pdfrwt>
<pdfrwt beam="2">  1       -2 0.33899006E-01 0.70925476E+03</pdfrwt>
<totfact> 0.50543467E+01</totfact>
</mgrwt>
</event>
<event>
 4    2  0.2930016E-007  0.6786344E+03  0.7818608E-02  0.1010107E+00
          2   -1    0    0  501    0  0.00000000000E+00  0.00000000000E+00  0.46204989716E+03  0.46204989717E+03  0.25500000000E-02 0. -1.
         -2   -1    0    0    0  501 -0.00000000000E+00 -0.00000000000E+00 -0.12445053400E+04  0.12445053400E+04  0.25500000000E-02 0.  1.
    8880023    1    1    2    0    0 -0.15547920912E+03  0.50602429238E+02  0.19315300490E+03  0.70558676283E+03  0.65864270000E+03 0. -1.
    8880022    1    1    2    0    0  0.15547920912E+03 -0.50602429238E+02 -0.97560844778E+03  0.10009684744E+04  0.15294330000E+03 0.  0.
<mgrwt>
<rscale>  0 0.51432166E+03</rscale>
<asrwt>0</asrwt>
<pdfrwt beam="1">  1        2 0.71084600E-01 0.67863436E+03</pdfrwt>
<pdfrwt beam="2">  1       -2 0.19146236E+00 0.67863436E+03</pdfrwt>
<totfact> 0.10487602E+01</totfact>
</mgrwt>
</event>
<event>
 4    2  0.2930016E-007  0.6734946E+03  0.7818608E-02  0.1013272E+00
         -2   -1    0    0    0  501 -0.00000000000E+00  0.00000000000E+00  0.49491151846E+03  0.49491151847E+03  0.25500000000E-02 0.  1.
          2   -1    0    0  501    0  0.00000000000E+00 -0.00000000000E+00 -0.47549447764E+03  0.47549447764E+03  0.25500000000E-02 0. -1.
    8880023    1    1    2    0    0 -0.91635752218E+02 -0.10671276276E+03 -0.16407848774E+03  0.69319310529E+03  0.65864270000E+03 0. -1.
    8880022    1    1    2    0    0  0.91635752218E+02  0.10671276276E+03  0.18349552856E+03  0.27721289082E+03  0.15294330000E+03 0.  0.
<mgrwt>
<rscale>  0 0.50194525E+03</rscale>
<asrwt>0</asrwt>
<pdfrwt beam="1">  1        2 0.73152997E-01 0.67349457E+03</pdfrwt>
<pdfrwt beam="2">  1       -2 0.76140233E-01 0.67349457E+03</pdfrwt>
<totfact> 0.10231668E+02</totfact>
</mgrwt>
</event>
<event>
 4    2  0.3669825E-007  0.1357448E+04  0.7818608E-02  0.9017473E-01
          2   -1    0    0  501    0  0.00000000000E+00  0.00000000000E+00  0.29611178106E+04  0.29611178106E+04  0.25500000000E-02 0. -1.
         -2   -1    0    0    0  501 -0.00000000000E+00 -0.00000000000E+00 -0.17375271158E+04  0.17375271158E+04  0.25500000000E-02 0.  1.
    8880023    1    1    2    0    0 -0.49200164828E+03 -0.10801798766E+04  0.25643396796E+04  0.29014655583E+04  0.65864270000E+03 0. -1.
    8880022    1    1    2    0    0  0.49200164828E+03  0.10801798766E+04 -0.13407489848E+04  0.17971793680E+04  0.15294330000E+03 0.  0.
<mgrwt>
<rscale>  0 0.13153597E+04</rscale>
<asrwt>0</asrwt>
<pdfrwt beam="1">  1        2 0.45555658E+00 0.13574477E+04</pdfrwt>
<pdfrwt beam="2">  1       -2 0.26731187E+00 0.13574477E+04</pdfrwt>
<totfact> 0.88985568E-02</totfact>
</mgrwt>
</event>
<event>
 4    2  0.2930016E-007  0.1114934E+04  0.7818608E-02  0.9244609E-01
          2   -1    0    0  501    0  0.00000000000E+00  0.00000000000E+00  0.37507841356E+04  0.37507841356E+04  0.25500000000E-02 0. -1.
         -2   -1    0    0    0  501 -0.00000000000E+00 -0.00000000000E+00 -0.45956458657E+03  0.45956458658E+03  0.25500000000E-02 0.  1.
    8880023    1    1    2    0    0 -0.73052287851E+02  0.89662169796E+03  0.30773821346E+04  0.32731266573E+04  0.65864270000E+03 0.  0.
    8880022    1    1    2    0    0  0.73052287851E+02 -0.89662169796E+03  0.21383741437E+03  0.93722206484E+03  0.15294330000E+03 0.  0.
<mgrwt>
<rscale>  0 0.10604622E+04</rscale>
<asrwt>0</asrwt>
<pdfrwt beam="1">  1        2 0.57704370E+00 0.11149338E+04</pdfrwt>
<pdfrwt beam="2">  1       -2 0.70702245E-01 0.11149338E+04</pdfrwt>
<totfact> 0.99674873E-01</totfact>
</mgrwt>
</event>
<event>
 4    2  0.2930016E-007  0.6686827E+03  0.7818608E-02  0.1016625E+00
         -2   -1    0    0    0  501 -0.00000000000E+00  0.00000000000E+00  0.28973192281E+03  0.28973192282E+03  0.25500000000E-02 0.  1.
          2   -1    0    0  501    0  0.00000000000E+00 -0.00000000000E+00 -0.16764385088E+04  0.16764385088E+04  0.25500000000E-02 0. -1.
    8880023    1    1    2    0    0  0.53836521833E+02 -0.10211723264E+03 -0.15665993885E+04  0.17033408791E+04  0.65864270000E+03 0. -1.
    8880022    1    1    2    0    0 -0.53836521833E+02  0.10211723264E+03  0.17989280246E+03  0.26282955251E+03  0.15294330000E+03 0.  0.
<mgrwt>
<rscale>  0 0.48924327E+03</rscale>
<asrwt>0</asrwt>
<pdfrwt beam="1">  1        2 0.25791361E+00 0.66868267E+03</pdfrwt>
<pdfrwt beam="2">  1       -2 0.44574143E-01 0.66868267E+03</pdfrwt>
<totfact> 0.49898241E+01</totfact>
</mgrwt>
</event>
<event>
 4    2  0.2930016E-007  0.6810369E+03  0.7818608E-02  0.1008743E+00
          2   -1    0    0  501    0  0.00000000000E+00  0.00000000000E+00  0.73715152588E+03  0.73715152588E+03  0.25500000000E-02 0. -1.
         -2   -1    0    0    0  501 -0.00000000000E+00 -0.00000000000E+00 -0.78822002232E+03  0.78822002232E+03  0.25500000000E-02 0.  1.
    8880023    1    1    2    0    0 -0.27481844880E+02  0.17101414442E+03  0.55385440032E+03  0.87781888360E+03  0.65864270000E+03 0. -1.
    8880022    1    1    2    0    0  0.27481844880E+02 -0.17101414442E+03 -0.60492289676E+03  0.64755266460E+03  0.15294330000E+03 0.  0.
<mgrwt>
<rscale>  0 0.51977247E+03</rscale>
<asrwt>0</asrwt>
<pdfrwt beam="1">  1        2 0.11340793E+00 0.68103693E+03</pdfrwt>
<pdfrwt beam="2">  1       -2 0.12126462E+00 0.68103693E+03</pdfrwt>
<totfact> 0.20257271E+01</totfact>
</mgrwt>
</event>
<event>
 4    2  0.2930016E-007  0.1122967E+04  0.7818608E-02  0.9235906E-01
         -2   -1    0    0    0  501 -0.00000000000E+00  0.00000000000E+00  0.26386814262E+04  0.26386814262E+04  0.25500000000E-02 0.  1.
          2   -1    0    0  501    0  0.00000000000E+00 -0.00000000000E+00 -0.16737675067E+04  0.16737675067E+04  0.25500000000E-02 0. -1.
    8880023    1    1    2    0    0 -0.71354130334E+03 -0.56400698492E+03 -0.13879087358E+04  0.17853139600E+04  0.65864270000E+03 0. -1.
    8880022    1    1    2    0    0  0.71354130334E+03  0.56400698492E+03  0.23528226553E+04  0.25271349728E+04  0.15294330000E+03 0.  0.
<mgrwt>
<rscale>  0 0.10690384E+04</rscale>
<asrwt>0</asrwt>
<pdfrwt beam="1">  1        2 0.25750270E+00 0.11229672E+04</pdfrwt>
<pdfrwt beam="2">  1       -2 0.40595099E+00 0.11229672E+04</pdfrwt>
<totfact> 0.68591242E-02</totfact>
</mgrwt>
</event>
<event>
 4    2  0.2930016E-007  0.8271043E+03  0.7818608E-02  0.9654993E-01
          2   -1    0    0  501    0  0.00000000000E+00  0.00000000000E+00  0.55677240092E+03  0.55677240093E+03  0.25500000000E-02 0. -1.
         -2   -1    0    0    0  501 -0.00000000000E+00 -0.00000000000E+00 -0.14166903113E+04  0.14166903113E+04  0.25500000000E-02 0.  1.
    8880023    1    1    2    0    0 -0.52615363794E+02  0.49751669522E+03 -0.11175401989E+04  0.13903228190E+04  0.65864270000E+03 0.  1.
    8880022    1    1    2    0    0  0.52615363794E+02 -0.49751669522E+03  0.25762228853E+03  0.58313989325E+03  0.15294330000E+03 0.  0.
<mgrwt>
<rscale>  0 0.73760890E+03</rscale>
<asrwt>0</asrwt>
<pdfrwt beam="1">  1        2 0.85657293E-01 0.82710425E+03</pdfrwt>
<pdfrwt beam="2">  1       -2 0.21795235E+00 0.82710425E+03</pdfrwt>
<totfact> 0.56009844E+00</totfact>
</mgrwt>
</event>
<event>
 4    2  0.2930016E-007  0.7210381E+03  0.7818608E-02  0.9919089E-01
          2   -1    0    0  501    0  0.00000000000E+00  0.00000000000E+00  0.28855463812E+04  0.28855463812E+04  0.25500000000E-02 0. -1.
         -2   -1    0    0    0  501 -0.00000000000E+00 -0.00000000000E+00 -0.13180131887E+03  0.13180131889E+03  0.25500000000E-02 0.  1.
    8880023    1    1    2    0    0  0.14492415114E+03 -0.25511318204E+03  0.24956307469E+04  0.25977045206E+04  0.65864270000E+03 0. -1.
    8880022    1    1    2    0    0 -0.14492415114E+03  0.25511318204E+03  0.25811431540E+03  0.41964317945E+03  0.15294330000E+03 0.  0.
<mgrwt>
<rscale>  0 0.59345012E+03</rscale>
<asrwt>0</asrwt>
<pdfrwt beam="1">  1        2 0.44393021E+00 0.72103811E+03</pdfrwt>
<pdfrwt beam="2">  1       -2 0.20277126E-01 0.72103811E+03</pdfrwt>
<totfact> 0.45131055E+01</totfact>
</mgrwt>
</event>
<event>
 4    2  0.2930016E-007  0.8127021E+03  0.7818608E-02  0.9683976E-01
          2   -1    0    0  501    0  0.00000000000E+00  0.00000000000E+00  0.20193220119E+04  0.20193220119E+04  0.25500000000E-02 0. -1.
         -2   -1    0    0    0  501 -0.00000000000E+00 -0.00000000000E+00 -0.25151021557E+03  0.25151021559E+03  0.25500000000E-02 0.  1.
    8880023    1    1    2    0    0 -0.36151987019E+03 -0.30980299216E+03  0.14939222069E+04  0.17006728895E+04  0.65864270000E+03 0.  0.
    8880022    1    1    2    0    0  0.36151987019E+03  0.30980299216E+03  0.27388958942E+03  0.57015933800E+03  0.15294330000E+03 0.  0.
<mgrwt>
<rscale>  0 0.71978933E+03</rscale>
<asrwt>0</asrwt>
<pdfrwt beam="1">  1        2 0.31066493E+00 0.81270211E+03</pdfrwt>
<pdfrwt beam="2">  1       -2 0.38693879E-01 0.81270211E+03</pdfrwt>
<totfact> 0.42100260E+01</totfact>
</mgrwt>
</event>
<event>
 4    2  0.2930016E-007  0.6745821E+03  0.7818608E-02  0.1012571E+00
         -2   -1    0    0    0  501 -0.00000000000E+00  0.00000000000E+00  0.13112947202E+03  0.13112947204E+03  0.25500000000E-02 0.  1.
          2   -1    0    0  501    0  0.00000000000E+00 -0.00000000000E+00 -0.22434932939E+04  0.22434932939E+04  0.25500000000E-02 0. -1.
    8880023    1    1    2    0    0  0.13292258861E+03 -0.59852801986E+02 -0.20441726242E+04  0.21526037016E+04  0.65864270000E+03 0. -1.
    8880022    1    1    2    0    0 -0.13292258861E+03  0.59852801986E+02 -0.68191197699E+02  0.22201906433E+03  0.15294330000E+03 0.  1.
<mgrwt>
<rscale>  0 0.50465499E+03</rscale>
<asrwt>0</asrwt>
<pdfrwt beam="1">  1        2 0.34515279E+00 0.67458208E+03</pdfrwt>
<pdfrwt beam="2">  1       -2 0.20173767E-01 0.67458208E+03</pdfrwt>
<totfact> 0.10672427E+02</totfact>
</mgrwt>
</event>
<event>
 4    2  0.2930016E-007  0.1133650E+04  0.7818608E-02  0.9224484E-01
         -2   -1    0    0    0  501 -0.00000000000E+00  0.00000000000E+00  0.13853729426E+04  0.13853729426E+04  0.25500000000E-02 0.  1.
          2   -1    0    0  501    0  0.00000000000E+00 -0.00000000000E+00 -0.77303738530E+03  0.77303738530E+03  0.25500000000E-02 0. -1.
    8880023    1    1    2    0    0  0.75126150249E+03  0.53568558704E+03  0.36539184378E+03  0.11910811471E+04  0.65864270000E+03 0.  0.
    8880022    1    1    2    0    0 -0.75126150249E+03 -0.53568558704E+03  0.24694371351E+03  0.96732918076E+03  0.15294330000E+03 0.  1.
<mgrwt>
<rscale>  0 0.10804247E+04</rscale>
<asrwt>0</asrwt>
<pdfrwt beam="1">  1        2 0.11892883E+00 0.11336503E+04</pdfrwt>
<pdfrwt beam="2">  1       -2 0.21313430E+00 0.11336503E+04</pdfrwt>
<totfact> 0.38664568E+00</totfact>
</mgrwt>
</event>
<event>
 4    2  0.2930016E-007  0.7081043E+03  0.7818608E-02  0.9965109E-01
          2   -1    0    0  501    0  0.00000000000E+00  0.00000000000E+00  0.19083021427E+04  0.19083021427E+04  0.25500000000E-02 0. -1.
         -2   -1    0    0    0  501 -0.00000000000E+00 -0.00000000000E+00 -0.53013004280E+03  0.53013004280E+03  0.25500000000E-02 0.  1.
    8880023    1    1    2    0    0 -0.17953102034E+03 -0.18806932498E+03  0.17917131718E+04  0.19265637167E+04  0.65864270000E+03 0. -1.
    8880022    1    1    2    0    0  0.17953102034E+03  0.18806932498E+03 -0.41354107186E+03  0.51186846884E+03  0.15294330000E+03 0.  0.
<mgrwt>
<rscale>  0 0.57206974E+03</rscale>
<asrwt>0</asrwt>
<pdfrwt beam="1">  1        2 0.29358494E+00 0.70810428E+03</pdfrwt>
<pdfrwt beam="2">  1       -2 0.81558468E-01 0.70810428E+03</pdfrwt>
<totfact> 0.10339010E+01</totfact>
</mgrwt>
</event>
<event>
 4    2  0.2930016E-007  0.8913345E+03  0.7818608E-02  0.9540088E-01
         -2   -1    0    0    0  501 -0.00000000000E+00  0.00000000000E+00  0.66657780907E+03  0.66657780907E+03  0.25500000000E-02 0.  1.
          2   -1    0    0  501    0  0.00000000000E+00 -0.00000000000E+00 -0.16875346818E+04  0.16875346818E+04  0.25500000000E-02 0. -1.
    8880023    1    1    2    0    0  0.18138263829E+03 -0.57250962995E+03 -0.13763159906E+04  0.16397325544E+04  0.65864270000E+03 0. -1.
    8880022    1    1    2    0    0 -0.18138263829E+03  0.57250962995E+03  0.35535911788E+03  0.71437993641E+03  0.15294330000E+03 0. -1.
<mgrwt>
<rscale>  0 0.81391718E+03</rscale>
<asrwt>0</asrwt>
<pdfrwt beam="1">  1        2 0.25962072E+00 0.89133447E+03</pdfrwt>
<pdfrwt beam="2">  1       -2 0.10255043E+00 0.89133447E+03</pdfrwt>
<totfact> 0.78236331E+00</totfact>
</mgrwt>
</event>
<event>
 4    2  0.2930016E-007  0.6822521E+03  0.7818608E-02  0.1008077E+00
          2   -1    0    0  501    0  0.00000000000E+00  0.00000000000E+00  0.73198708134E+03  0.73198708134E+03  0.25500000000E-02 0. -1.
         -2   -1    0    0    0  501 -0.00000000000E+00 -0.00000000000E+00 -0.39881026022E+03  0.39881026023E+03  0.25500000000E-02 0.  1.
    8880023    1    1    2    0    0  0.17751500887E+03 -0.12089225666E+02  0.49747682025E+03  0.84436432936E+03  0.65864270000E+03 0. -1.
    8880022    1    1    2    0    0 -0.17751500887E+03  0.12089225666E+02 -0.16429999913E+03  0.28643301220E+03  0.15294330000E+03 0.  0.
<mgrwt>
<rscale>  0 0.52245960E+03</rscale>
<asrwt>0</asrwt>
<pdfrwt beam="1">  1        2 0.11261340E+00 0.68225210E+03</pdfrwt>
<pdfrwt beam="2">  1       -2 0.61355425E-01 0.68225210E+03</pdfrwt>
<totfact> 0.97178643E+01</totfact>
</mgrwt>
</event>
<event>
 4    2  0.3407877E-007  0.9388818E+03  0.7818608E-02  0.9466294E-01
          2   -1    0    0  501    0  0.00000000000E+00  0.00000000000E+00  0.26167129058E+04  0.26167129058E+04  0.25500000000E-02 0. -1.
         -2   -1    0    0    0  501 -0.00000000000E+00 -0.00000000000E+00 -0.10372756764E+04  0.10372756764E+04  0.25500000000E-02 0.  1.
    8880023    1    1    2    0    0  0.36361066177E+03 -0.56167261381E+03  0.24041841812E+04  0.25810076756E+04  0.65864270000E+03 0. -1.
    8880022    1    1    2    0    0 -0.36361066177E+03  0.56167261381E+03 -0.82474695174E+03  0.10729809066E+04  0.15294330000E+03 0.  0.
<mgrwt>
<rscale>  0 0.86815062E+03</rscale>
<asrwt>0</asrwt>
<pdfrwt beam="1">  1        2 0.40257122E+00 0.93888181E+03</pdfrwt>
<pdfrwt beam="2">  1       -2 0.15958087E+00 0.93888181E+03</pdfrwt>
<totfact> 0.76871423E-01</totfact>
</mgrwt>
</event>
<event>
 4    2  0.2930016E-007  0.7755529E+03  0.7818608E-02  0.9766389E-01
          2   -1    0    0  501    0  0.00000000000E+00  0.00000000000E+00  0.22079768472E+04  0.22079768472E+04  0.25500000000E-02 0. -1.
         -2   -1    0    0    0  501 -0.00000000000E+00 -0.00000000000E+00 -0.18365371951E+03  0.18365371953E+03  0.25500000000E-02 0.  1.
    8880023    1    1    2    0    0  0.26794516875E+03 -0.30964099589E+03  0.91598762063E+03  0.12002148504E+04  0.65864270000E+03 0.  0.
    8880022    1    1    2    0    0 -0.26794516875E+03  0.30964099589E+03  0.11083355071E+04  0.11914157163E+04  0.15294330000E+03 0.  0.
<mgrwt>
<rscale>  0 0.67197930E+03</rscale>
<asrwt>0</asrwt>
<pdfrwt beam="1">  1        2 0.33968871E+00 0.77555294E+03</pdfrwt>
<pdfrwt beam="2">  1       -2 0.28254422E-01 0.77555294E+03</pdfrwt>
<totfact> 0.60308923E+01</totfact>
</mgrwt>
</event>
<event>
 4    2  0.2930016E-007  0.6773962E+03  0.7818608E-02  0.1010837E+00
          2   -1    0    0  501    0  0.00000000000E+00  0.00000000000E+00  0.22669060824E+04  0.22669060824E+04  0.25500000000E-02 0. -1.
         -2   -1    0    0    0  501 -0.00000000000E+00 -0.00000000000E+00 -0.49047042040E+03  0.49047042041E+03  0.25500000000E-02 0.  1.
    8880023    1    1    2    0    0  0.15341537925E+03  0.38976585713E+02  0.21881038776E+04  0.22905598089E+04  0.65864270000E+03 0. -1.
    8880022    1    1    2    0    0 -0.15341537925E+03 -0.38976585713E+02 -0.41166821567E+03  0.46681669382E+03  0.15294330000E+03 0.  0.
<mgrwt>
<rscale>  0 0.51143514E+03</rscale>
<asrwt>0</asrwt>
<pdfrwt beam="1">  1        2 0.34875478E+00 0.67739623E+03</pdfrwt>
<pdfrwt beam="2">  1       -2 0.75456989E-01 0.67739623E+03</pdfrwt>
<totfact> 0.78738194E+00</totfact>
</mgrwt>
</event>
<event>
 4    2  0.2930016E-007  0.6826044E+03  0.7818608E-02  0.1007887E+00
          2   -1    0    0  501    0  0.00000000000E+00  0.00000000000E+00  0.20860764813E+04  0.20860764813E+04  0.25500000000E-02 0. -1.
         -2   -1    0    0    0  501 -0.00000000000E+00 -0.00000000000E+00 -0.25154659990E+03  0.25154659992E+03  0.25500000000E-02 0.  1.
    8880023    1    1    2    0    0 -0.17633987143E+03  0.32292678858E+02  0.19565865370E+04  0.20722402492E+04  0.65864270000E+03 0. -1.
    8880022    1    1    2    0    0  0.17633987143E+03 -0.32292678858E+02 -0.12205665558E+03  0.26538283205E+03  0.15294330000E+03 0.  0.
<mgrwt>
<rscale>  0 0.52323042E+03</rscale>
<asrwt>0</asrwt>
<pdfrwt beam="1">  1        2 0.32093486E+00 0.68260440E+03</pdfrwt>
<pdfrwt beam="2">  1       -2 0.38699475E-01 0.68260440E+03</pdfrwt>
<totfact> 0.39337355E+01</totfact>
</mgrwt>
</event>
<event>
 4    2  0.2930016E-007  0.2039094E+04  0.7818608E-02  0.8600671E-01
          2   -1    0    0  501    0  0.00000000000E+00  0.00000000000E+00  0.26991735719E+04  0.26991735719E+04  0.25500000000E-02 0. -1.
         -2   -1    0    0    0  501 -0.00000000000E+00 -0.00000000000E+00 -0.20235154452E+04  0.20235154452E+04  0.25500000000E-02 0.  1.
    8880023    1    1    2    0    0 -0.18707978751E+04 -0.47350547875E+03  0.15862013677E+04  0.25833964297E+04  0.65864270000E+03 0.  0.
    8880022    1    1    2    0    0  0.18707978751E+04  0.47350547875E+03 -0.91054324104E+03  0.21392925874E+04  0.15294330000E+03 0.  0.
<mgrwt>
<rscale>  0 0.20127755E+04</rscale>
<asrwt>0</asrwt>
<pdfrwt beam="1">  1        2 0.41525747E+00 0.20390935E+04</pdfrwt>
<pdfrwt beam="2">  1       -2 0.31131007E+00 0.20390935E+04</pdfrwt>
<totfact> 0.63474703E-02</totfact>
</mgrwt>
</event>
<event>
 4    2  0.2930016E-007  0.9223002E+03  0.7818608E-02  0.9491141E-01
          2   -1    0    0  501    0  0.00000000000E+00  0.00000000000E+00  0.15210679291E+04  0.15210679291E+04  0.25500000000E-02 0. -1.
         -2   -1    0    0    0  501 -0.00000000000E+00 -0.00000000000E+00 -0.11064797362E+04  0.11064797362E+04  0.25500000000E-02 0.  1.
    8880023    1    1    2    0    0  0.22014855738E+03 -0.60692834361E+03  0.12545858139E+04  0.15571201535E+04  0.65864270000E+03 0.  0.
    8880022    1    1    2    0    0 -0.22014855738E+03  0.60692834361E+03 -0.83999762109E+03  0.10704275118E+04  0.15294330000E+03 0.  0.
<mgrwt>
<rscale>  0 0.84940111E+03</rscale>
<asrwt>0</asrwt>
<pdfrwt beam="1">  1        2 0.23401045E+00 0.92230017E+03</pdfrwt>
<pdfrwt beam="2">  1       -2 0.17022765E+00 0.92230017E+03</pdfrwt>
<totfact> 0.26296932E+00</totfact>
</mgrwt>
</event>
<event>
 4    2  0.2930016E-007  0.6989600E+03  0.7818608E-02  0.1000154E+00
          2   -1    0    0  501    0  0.00000000000E+00  0.00000000000E+00  0.33216465635E+03  0.33216465636E+03  0.25500000000E-02 0. -1.
         -2   -1    0    0    0  501 -0.00000000000E+00 -0.00000000000E+00 -0.72404524314E+03  0.72404524314E+03  0.25500000000E-02 0.  1.
    8880023    1    1    2    0    0  0.20278376856E+03  0.11667733494E+03 -0.24651209221E+03  0.74115671430E+03  0.65864270000E+03 0.  1.
    8880022    1    1    2    0    0 -0.20278376856E+03 -0.11667733494E+03 -0.14536849457E+03  0.31505318521E+03  0.15294330000E+03 0. -1.
<mgrwt>
<rscale>  0 0.55582623E+03</rscale>
<asrwt>0</asrwt>
<pdfrwt beam="1">  1        2 0.51102255E-01 0.69895999E+03</pdfrwt>
<pdfrwt beam="2">  1       -2 0.11139158E+00 0.69895999E+03</pdfrwt>
<totfact> 0.63280071E+01</totfact>
</mgrwt>
</event>
<event>
 4    2  0.2930016E-007  0.1185693E+04  0.7818608E-02  0.9171156E-01
         -2   -1    0    0    0  501 -0.00000000000E+00  0.00000000000E+00  0.73548560586E+03  0.73548560587E+03  0.25500000000E-02 0.  1.
          2   -1    0    0  501    0  0.00000000000E+00 -0.00000000000E+00 -0.24085196744E+04  0.24085196744E+04  0.25500000000E-02 0. -1.
    8880023    1    1    2    0    0  0.27239594365E+03 -0.94755400273E+03  0.11987919754E+02  0.11857537918E+04  0.65864270000E+03 0.  0.
    8880022    1    1    2    0    0 -0.27239594365E+03  0.94755400273E+03 -0.16850219883E+04  0.19582514885E+04  0.15294330000E+03 0.  0.
<mgrwt>
<rscale>  0 0.11356164E+04</rscale>
<asrwt>0</asrwt>
<pdfrwt beam="1">  1        2 0.37054148E+00 0.11856932E+04</pdfrwt>
<pdfrwt beam="2">  1       -2 0.11315163E+00 0.11856932E+04</pdfrwt>
<totfact> 0.23685479E+00</totfact>
</mgrwt>
</event>
<event>
 4    2  0.2930016E-007  0.7565813E+03  0.7818608E-02  0.9814040E-01
         -2   -1    0    0    0  501 -0.00000000000E+00  0.00000000000E+00  0.44017468472E+03  0.44017468473E+03  0.25500000000E-02 0.  1.
          2   -1    0    0  501    0  0.00000000000E+00 -0.00000000000E+00 -0.17279446959E+04  0.17279446959E+04  0.25500000000E-02 0. -1.
    8880023    1    1    2    0    0  0.25685640058E+03 -0.26949923500E+03 -0.15239715520E+04  0.17014419020E+04  0.65864270000E+03 0. -1.
    8880022    1    1    2    0    0 -0.25685640058E+03  0.26949923500E+03  0.23620154083E+03  0.46667747866E+03  0.15294330000E+03 0.  0.
<mgrwt>
<rscale>  0 0.64614497E+03</rscale>
<asrwt>0</asrwt>
<pdfrwt beam="1">  1        2 0.26583764E+00 0.75658129E+03</pdfrwt>
<pdfrwt beam="2">  1       -2 0.67719183E-01 0.75658129E+03</pdfrwt>
<totfact> 0.19425115E+01</totfact>
</mgrwt>
</event>
<event>
 4    2  0.2930016E-007  0.7142867E+03  0.7818608E-02  0.9942414E-01
         -2   -1    0    0    0  501 -0.00000000000E+00  0.00000000000E+00  0.10664155129E+03  0.10664155133E+03  0.25500000000E-02 0.  1.
          2   -1    0    0  501    0  0.00000000000E+00 -0.00000000000E+00 -0.25292597685E+04  0.25292597685E+04  0.25500000000E-02 0. -1.
    8880023    1    1    2    0    0  0.17888900805E+03 -0.21069890449E+03 -0.18276930187E+04  0.19623117189E+04  0.65864270000E+03 0.  1.
    8880022    1    1    2    0    0 -0.17888900805E+03  0.21069890449E+03 -0.59492519859E+03  0.67358960093E+03  0.15294330000E+03 0. -1.
<mgrwt>
<rscale>  0 0.58249024E+03</rscale>
<asrwt>0</asrwt>
<pdfrwt beam="1">  1        2 0.38911684E+00 0.71428672E+03</pdfrwt>
<pdfrwt beam="2">  1       -2 0.16406394E-01 0.71428672E+03</pdfrwt>
<totfact> 0.10506391E+02</totfact>
</mgrwt>
</event>
<event>
 4    2  0.2930016E-007  0.6664849E+03  0.7818608E-02  0.1018319E+00
          2   -1    0    0  501    0  0.00000000000E+00  0.00000000000E+00  0.80086787670E+03  0.80086787670E+03  0.25500000000E-02 0. -1.
         -2   -1    0    0    0  501 -0.00000000000E+00 -0.00000000000E+00 -0.44235728281E+03  0.44235728282E+03  0.25500000000E-02 0.  1.
    8880023    1    1    2    0    0 -0.80363625221E+02 -0.62718809249E+02  0.62884559390E+03  0.91632360470E+03  0.65864270000E+03 0. -1.
    8880022    1    1    2    0    0  0.80363625221E+02  0.62718809249E+02 -0.27033500002E+03  0.32690155482E+03  0.15294330000E+03 0.  0.
<mgrwt>
<rscale>  0 0.48298208E+03</rscale>
<asrwt>0</asrwt>
<pdfrwt beam="1">  1        2 0.12321044E+00 0.66648493E+03</pdfrwt>
<pdfrwt beam="2">  1       -2 0.68054967E-01 0.66648493E+03</pdfrwt>
<totfact> 0.69334741E+01</totfact>
</mgrwt>
</event>
<event>
 4    2  0.2930016E-007  0.9683084E+03  0.7818608E-02  0.9424248E-01
         -2   -1    0    0    0  501 -0.00000000000E+00  0.00000000000E+00  0.49059440461E+03  0.49059440462E+03  0.25500000000E-02 0.  1.
          2   -1    0    0  501    0  0.00000000000E+00 -0.00000000000E+00 -0.26449732017E+04  0.26449732017E+04  0.25500000000E-02 0. -1.
    8880023    1    1    2    0    0  0.61474428185E+03  0.35482437894E+03 -0.22044644196E+04  0.24077550655E+04  0.65864270000E+03 0.  0.
    8880022    1    1    2    0    0 -0.61474428185E+03 -0.35482437894E+03  0.50085622509E+02  0.72781254081E+03  0.15294330000E+03 0.  0.
<mgrwt>
<rscale>  0 0.90106775E+03</rscale>
<asrwt>0</asrwt>
<pdfrwt beam="1">  1        2 0.40691894E+00 0.96830836E+03</pdfrwt>
<pdfrwt beam="2">  1       -2 0.75476064E-01 0.96830836E+03</pdfrwt>
<totfact> 0.45891065E+00</totfact>
</mgrwt>
</event>
<event>
 4    2  0.2930016E-007  0.7366603E+03  0.7818608E-02  0.9869784E-01
          2   -1    0    0  501    0  0.00000000000E+00  0.00000000000E+00  0.41493516381E+03  0.41493516382E+03  0.25500000000E-02 0. -1.
         -2   -1    0    0    0  501 -0.00000000000E+00 -0.00000000000E+00 -0.86060199040E+03  0.86060199040E+03  0.25500000000E-02 0.  1.
    8880023    1    1    2    0    0  0.14240016513E+03  0.29762445289E+03 -0.52339050301E+03  0.90366251825E+03  0.65864270000E+03 0.  1.
    8880022    1    1    2    0    0 -0.14240016513E+03 -0.29762445289E+03  0.77723676421E+02  0.37187463597E+03  0.15294330000E+03 0.  0.
<mgrwt>
<rscale>  0 0.61748270E+03</rscale>
<asrwt>0</asrwt>
<pdfrwt beam="1">  1        2 0.63836179E-01 0.73666025E+03</pdfrwt>
<pdfrwt beam="2">  1       -2 0.13240031E+00 0.73666025E+03</pdfrwt>
<totfact> 0.32036848E+01</totfact>
</mgrwt>
</event>
<event>
 4    2  0.2930016E-007  0.1004447E+04  0.7818608E-02  0.9375763E-01
         -2   -1    0    0    0  501 -0.00000000000E+00  0.00000000000E+00  0.33171882748E+03  0.33171882749E+03  0.25500000000E-02 0.  1.
          2   -1    0    0  501    0  0.00000000000E+00 -0.00000000000E+00 -0.26813676680E+04  0.26813676680E+04  0.25500000000E-02 0. -1.
    8880023    1    1    2    0    0 -0.18298069940E+03  0.73594883070E+03 -0.81131723944E+03  0.12911810435E+04  0.65864270000E+03 0.  0.
    8880022    1    1    2    0    0  0.18298069940E+03 -0.73594883070E+03 -0.15383316010E+04  0.17219054520E+04  0.15294330000E+03 0.  1.
<mgrwt>
<rscale>  0 0.94097398E+03</rscale>
<asrwt>0</asrwt>
<pdfrwt beam="1">  1        2 0.41251809E+00 0.10044465E+04</pdfrwt>
<pdfrwt beam="2">  1       -2 0.51033667E-01 0.10044465E+04</pdfrwt>
<totfact> 0.10036661E+01</totfact>
</mgrwt>
</event>
<event>
 4    2  0.2930016E-007  0.6650336E+03  0.7818608E-02  0.1019505E+00
         -2   -1    0    0    0  501 -0.00000000000E+00  0.00000000000E+00  0.20958273041E+03  0.20958273043E+03  0.25500000000E-02 0.  1.
          2   -1    0    0  501    0  0.00000000000E+00 -0.00000000000E+00 -0.10167150510E+04  0.10167150510E+04  0.25500000000E-02 0. -1.
    8880023    1    1    2    0    0 -0.80500407984E+02 -0.44487840684E+02 -0.80971391000E+03  0.10478102433E+04  0.65864270000E+03 0.  0.
    8880022    1    1    2    0    0  0.80500407984E+02  0.44487840684E+02  0.25815894021E+01  0.17848753815E+03  0.15294330000E+03 0.  0.
<mgrwt>
<rscale>  0 0.47865578E+03</rscale>
<asrwt>0</asrwt>
<pdfrwt beam="1">  1        2 0.15641770E+00 0.66503360E+03</pdfrwt>
<pdfrwt beam="2">  1       -2 0.32243498E-01 0.66503360E+03</pdfrwt>
<totfact> 0.22328779E+02</totfact>
</mgrwt>
</event>
<event>
 4    2  0.2930016E-007  0.8087897E+03  0.7818608E-02  0.9692104E-01
          2   -1    0    0  501    0  0.00000000000E+00  0.00000000000E+00  0.17891946863E+04  0.17891946863E+04  0.25500000000E-02 0. -1.
         -2   -1    0    0    0  501 -0.00000000000E+00 -0.00000000000E+00 -0.48183436281E+03  0.48183436281E+03  0.25500000000E-02 0.  1.
    8880023    1    1    2    0    0 -0.43597317456E+03  0.17394799929E+03  0.15291095408E+04  0.17298314107E+04  0.65864270000E+03 0.  0.
    8880022    1    1    2    0    0  0.43597317456E+03 -0.17394799929E+03 -0.22174921734E+03  0.54119763839E+03  0.15294330000E+03 0.  0.
<mgrwt>
<rscale>  0 0.71488893E+03</rscale>
<asrwt>0</asrwt>
<pdfrwt beam="1">  1        2 0.27526072E+00 0.80878966E+03</pdfrwt>
<pdfrwt beam="2">  1       -2 0.74128363E-01 0.80878966E+03</pdfrwt>
<totfact> 0.14653903E+01</totfact>
</mgrwt>
</event>
<event>
 4    2  0.2930016E-007  0.8151255E+03  0.7818608E-02  0.9678998E-01
         -2   -1    0    0    0  501 -0.00000000000E+00  0.00000000000E+00  0.15588256049E+04  0.15588256049E+04  0.25500000000E-02 0.  1.
          2   -1    0    0  501    0  0.00000000000E+00 -0.00000000000E+00 -0.51797461225E+03  0.51797461226E+03  0.25500000000E-02 0. -1.
    8880023    1    1    2    0    0 -0.45741221817E+03 -0.14626511147E+03 -0.10801094738E+03  0.82225056472E+03  0.65864270000E+03 0.  0.
    8880022    1    1    2    0    0  0.45741221817E+03  0.14626511147E+03  0.11488619400E+04  0.12545496524E+04  0.15294330000E+03 0.  0.
<mgrwt>
<rscale>  0 0.72281133E+03</rscale>
<asrwt>0</asrwt>
<pdfrwt beam="1">  1        2 0.79688402E-01 0.81512553E+03</pdfrwt>
<pdfrwt beam="2">  1       -2 0.23981932E+00 0.81512553E+03</pdfrwt>
<totfact> 0.44705473E+00</totfact>
</mgrwt>
</event>
<event>
 4    2  0.2930016E-007  0.7777186E+03  0.7818608E-02  0.9761224E-01
          2   -1    0    0  501    0  0.00000000000E+00  0.00000000000E+00  0.85710988468E+03  0.85710988468E+03  0.25500000000E-02 0. -1.
         -2   -1    0    0    0  501 -0.00000000000E+00 -0.00000000000E+00 -0.76333660760E+03  0.76333660760E+03  0.25500000000E-02 0.  1.
    8880023    1    1    2    0    0  0.35514952928E+03  0.21190741413E+03  0.57541813567E+03  0.96744621423E+03  0.65864270000E+03 0. -1.
    8880022    1    1    2    0    0 -0.35514952928E+03 -0.21190741413E+03 -0.48164485860E+03  0.65300027805E+03  0.15294330000E+03 0.  0.
<mgrwt>
<rscale>  0 0.67485673E+03</rscale>
<asrwt>0</asrwt>
<pdfrwt beam="1">  1        2 0.13186306E+00 0.77771855E+03</pdfrwt>
<pdfrwt beam="2">  1       -2 0.11743640E+00 0.77771855E+03</pdfrwt>
<totfact> 0.17793883E+01</totfact>
</mgrwt>
</event>
<event>
 4    2  0.2930016E-007  0.1219886E+04  0.7818608E-02  0.9138030E-01
          2   -1    0    0  501    0  0.00000000000E+00  0.00000000000E+00  0.23517235674E+04  0.23517235674E+04  0.25500000000E-02 0. -1.
         -2   -1    0    0    0  501 -0.00000000000E+00 -0.00000000000E+00 -0.13937455589E+04  0.13937455589E+04  0.25500000000E-02 0.  1.
    8880023    1    1    2    0    0 -0.10253846745E+04  0.53832896441E+02  0.19561249086E+04  0.23053300362E+04  0.65864270000E+03 0. -1.
    8880022    1    1    2    0    0  0.10253846745E+04 -0.53832896441E+02 -0.99814690011E+03  0.14401390901E+04  0.15294330000E+03 0.  0.
<mgrwt>
<rscale>  0 0.11716607E+04</rscale>
<asrwt>0</asrwt>
<pdfrwt beam="1">  1        2 0.36180362E+00 0.12198860E+04</pdfrwt>
<pdfrwt beam="2">  1       -2 0.21442240E+00 0.12198860E+04</pdfrwt>
<totfact> 0.44149640E-01</totfact>
</mgrwt>
</event>
<event>
 4    2  0.2930016E-007  0.7254073E+03  0.7818608E-02  0.9904697E-01
         -2   -1    0    0    0  501 -0.00000000000E+00  0.00000000000E+00  0.30036808759E+03  0.30036808760E+03  0.25500000000E-02 0.  1.
          2   -1    0    0  501    0  0.00000000000E+00 -0.00000000000E+00 -0.14213181277E+04  0.14213181277E+04  0.25500000000E-02 0. -1.
    8880023    1    1    2    0    0  0.22842014001E+03 -0.20057347218E+03 -0.11712544570E+04  0.13776983296E+04  0.65864270000E+03 0. -1.
    8880022    1    1    2    0    0 -0.22842014001E+03  0.20057347218E+03  0.50304416935E+02  0.34398788566E+03  0.15294330000E+03 0.  0.
<mgrwt>
<rscale>  0 0.60034189E+03</rscale>
<asrwt>0</asrwt>
<pdfrwt beam="1">  1        2 0.21866432E+00 0.72540725E+03</pdfrwt>
<pdfrwt beam="2">  1       -2 0.46210476E-01 0.72540725E+03</pdfrwt>
<totfact> 0.63852469E+01</totfact>
</mgrwt>
</event>
<event>
 4    2  0.2930016E-007  0.7243599E+03  0.7818608E-02  0.9908100E-01
         -2   -1    0    0    0  501 -0.00000000000E+00  0.00000000000E+00  0.59241309418E+03  0.59241309418E+03  0.25500000000E-02 0.  1.
          2   -1    0    0  501    0  0.00000000000E+00 -0.00000000000E+00 -0.63694452926E+03  0.63694452927E+03  0.25500000000E-02 0. -1.
    8880023    1    1    2    0    0 -0.24851698450E+03 -0.17066450877E+03 -0.32133755728E+03  0.79243617921E+03  0.65864270000E+03 0.  0.
    8880022    1    1    2    0    0  0.24851698450E+03  0.17066450877E+03  0.27680612220E+03  0.43692144424E+03  0.15294330000E+03 0.  0.
<mgrwt>
<rscale>  0 0.59870305E+03</rscale>
<asrwt>0</asrwt>
<pdfrwt beam="1">  1        2 0.97991466E-01 0.72435991E+03</pdfrwt>
<pdfrwt beam="2">  1       -2 0.91140476E-01 0.72435991E+03</pdfrwt>
<totfact> 0.48010319E+01</totfact>
</mgrwt>
</event>
<event>
 4    2  0.2930016E-007  0.8761296E+03  0.7818608E-02  0.9565492E-01
         -2   -1    0    0    0  501 -0.00000000000E+00  0.00000000000E+00  0.66905277706E+03  0.66905277707E+03  0.25500000000E-02 0.  1.
          2   -1    0    0  501    0  0.00000000000E+00 -0.00000000000E+00 -0.20916062022E+04  0.20916062022E+04  0.25500000000E-02 0. -1.
    8880023    1    1    2    0    0  0.31108391876E+03 -0.48684667392E+03 -0.18357338367E+04  0.20340899228E+04  0.65864270000E+03 0. -1.
    8880022    1    1    2    0    0 -0.31108391876E+03  0.48684667392E+03  0.41318041154E+03  0.72656905653E+03  0.15294330000E+03 0.  1.
<mgrwt>
<rscale>  0 0.79622874E+03</rscale>
<asrwt>0</asrwt>
<pdfrwt beam="1">  1        2 0.32178557E+00 0.87612961E+03</pdfrwt>
<pdfrwt beam="2">  1       -2 0.10293120E+00 0.87612961E+03</pdfrwt>
<totfact> 0.46630422E+00</totfact>
</mgrwt>
</event>
<event>
 4    2  0.2930016E-007  0.1029574E+04  0.7818608E-02  0.9343849E-01
         -2   -1    0    0    0  501 -0.00000000000E+00  0.00000000000E+00  0.40509525109E+03  0.40509525110E+03  0.25500000000E-02 0.  1.
          2   -1    0    0  501    0  0.00000000000E+00 -0.00000000000E+00 -0.33455274388E+04  0.33455274388E+04  0.25500000000E-02 0. -1.
    8880023    1    1    2    0    0  0.66767903778E+03 -0.42475574973E+03 -0.27299019835E+04  0.29175996624E+04  0.65864270000E+03 0. -1.
    8880022    1    1    2    0    0 -0.66767903778E+03  0.42475574973E+03 -0.21053020423E+03  0.83302302749E+03  0.15294330000E+03 0.  0.
<mgrwt>
<rscale>  0 0.96844363E+03</rscale>
<asrwt>0</asrwt>
<pdfrwt beam="1">  1        2 0.51469651E+00 0.10295742E+04</pdfrwt>
<pdfrwt beam="2">  1       -2 0.62322349E-01 0.10295742E+04</pdfrwt>
<totfact> 0.25476042E+00</totfact>
</mgrwt>
</event>
<event>
 4    2  0.2930016E-007  0.1134777E+04  0.7818608E-02  0.9223290E-01
          2   -1    0    0  501    0  0.00000000000E+00  0.00000000000E+00  0.22022394940E+04  0.22022394940E+04  0.25500000000E-02 0. -1.
         -2   -1    0    0    0  501 -0.00000000000E+00 -0.00000000000E+00 -0.62986461993E+03  0.62986461994E+03  0.25500000000E-02 0.  1.
    8880023    1    1    2    0    0  0.20711344168E+03 -0.90056227308E+03  0.15161339031E+04  0.18937741692E+04  0.65864270000E+03 0.  0.
    8880022    1    1    2    0    0 -0.20711344168E+03  0.90056227308E+03  0.56240970975E+02  0.93832994477E+03  0.15294330000E+03 0.  0.
<mgrwt>
<rscale>  0 0.10816242E+04</rscale>
<asrwt>0</asrwt>
<pdfrwt beam="1">  1        2 0.33880608E+00 0.11347769E+04</pdfrwt>
<pdfrwt beam="2">  1       -2 0.96902248E-01 0.11347769E+04</pdfrwt>
<totfact> 0.45246678E+00</totfact>
</mgrwt>
</event>
<event>
 4    2  0.2930016E-007  0.1005197E+04  0.7818608E-02  0.9374789E-01
          2   -1    0    0  501    0  0.00000000000E+00  0.00000000000E+00  0.87350122460E+03  0.87350122461E+03  0.25500000000E-02 0. -1.
         -2   -1    0    0    0  501 -0.00000000000E+00 -0.00000000000E+00 -0.92374820964E+03  0.92374820964E+03  0.25500000000E-02 0.  1.
    8880023    1    1    2    0    0 -0.13113241321E+02  0.75923621599E+03 -0.14973228613E+03  0.10162881248E+04  0.65864270000E+03 0.  1.
    8880022    1    1    2    0    0  0.13113241321E+02 -0.75923621599E+03  0.99485301095E+02  0.78096130949E+03  0.15294330000E+03 0. -1.
<mgrwt>
<rscale>  0 0.94179789E+03</rscale>
<asrwt>0</asrwt>
<pdfrwt beam="1">  1        2 0.13438480E+00 0.10051974E+04</pdfrwt>
<pdfrwt beam="2">  1       -2 0.14211511E+00 0.10051974E+04</pdfrwt>
<totfact> 0.10467762E+01</totfact>
</mgrwt>
</event>
<event>
 4    2  0.2930016E-007  0.9350661E+03  0.7818608E-02  0.9471934E-01
         -2   -1    0    0    0  501 -0.00000000000E+00  0.00000000000E+00  0.59846255195E+03  0.59846255196E+03  0.25500000000E-02 0.  1.
          2   -1    0    0  501    0  0.00000000000E+00 -0.00000000000E+00 -0.25045335927E+04  0.25045335927E+04  0.25500000000E-02 0. -1.
    8880023    1    1    2    0    0  0.46425203795E+03  0.47435050485E+03 -0.21775015761E+04  0.23697809342E+04  0.65864270000E+03 0. -1.
    8880022    1    1    2    0    0 -0.46425203795E+03 -0.47435050485E+03  0.27143053537E+03  0.73321521038E+03  0.15294330000E+03 0.  0.
<mgrwt>
<rscale>  0 0.86384989E+03</rscale>
<asrwt>0</asrwt>
<pdfrwt beam="1">  1        2 0.38531285E+00 0.93506607E+03</pdfrwt>
<pdfrwt beam="2">  1       -2 0.92071163E-01 0.93506607E+03</pdfrwt>
<totfact> 0.35339276E+00</totfact>
</mgrwt>
</event>
<event>
 4    2  0.2930016E-007  0.6705515E+03  0.7818608E-02  0.1015271E+00
         -2   -1    0    0    0  501 -0.00000000000E+00  0.00000000000E+00  0.44081620085E+03  0.44081620085E+03  0.25500000000E-02 0.  1.
          2   -1    0    0  501    0  0.00000000000E+00 -0.00000000000E+00 -0.59315998672E+03  0.59315998672E+03  0.25500000000E-02 0. -1.
    8880023    1    1    2    0    0  0.12376438066E+03 -0.22616358733E+02 -0.34809331735E+03  0.75551855401E+03  0.65864270000E+03 0. -1.
    8880022    1    1    2    0    0 -0.12376438066E+03  0.22616358733E+02  0.19574953148E+03  0.27845763357E+03  0.15294330000E+03 0.  0.
<mgrwt>
<rscale>  0 0.49432620E+03</rscale>
<asrwt>0</asrwt>
<pdfrwt beam="1">  1        2 0.91255383E-01 0.67055151E+03</pdfrwt>
<pdfrwt beam="2">  1       -2 0.67817877E-01 0.67055151E+03</pdfrwt>
<totfact> 0.10178814E+02</totfact>
</mgrwt>
</event>
<event>
 4    2  0.2930016E-007  0.7341904E+03  0.7818608E-02  0.9877205E-01
         -2   -1    0    0    0  501 -0.00000000000E+00  0.00000000000E+00  0.37074704665E+03  0.37074704666E+03  0.25500000000E-02 0.  1.
          2   -1    0    0  501    0  0.00000000000E+00 -0.00000000000E+00 -0.10053744611E+04  0.10053744611E+04  0.25500000000E-02 0. -1.
    8880023    1    1    2    0    0  0.15041122498E+03  0.28740537357E+03 -0.69672049854E+03  0.10121536666E+04  0.65864270000E+03 0. -1.
    8880022    1    1    2    0    0 -0.15041122498E+03 -0.28740537357E+03  0.62093084063E+02  0.36396784124E+03  0.15294330000E+03 0.  0.
<mgrwt>
<rscale>  0 0.61378865E+03</rscale>
<asrwt>0</asrwt>
<pdfrwt beam="1">  1        2 0.15467299E+00 0.73419043E+03</pdfrwt>
<pdfrwt beam="2">  1       -2 0.57038008E-01 0.73419043E+03</pdfrwt>
<totfact> 0.73150499E+01</totfact>
</mgrwt>
</event>
<event>
 4    2  0.2930016E-007  0.8606366E+03  0.7818608E-02  0.9592432E-01
         -2   -1    0    0    0  501 -0.00000000000E+00  0.00000000000E+00  0.50258396612E+03  0.50258396613E+03  0.25500000000E-02 0.  1.
          2   -1    0    0  501    0  0.00000000000E+00 -0.00000000000E+00 -0.10394864073E+04  0.10394864073E+04  0.25500000000E-02 0. -1.
    8880023    1    1    2    0    0  0.53176349062E+03  0.15528297437E+03 -0.41102561850E+03  0.95374916902E+03  0.65864270000E+03 0.  0.
    8880022    1    1    2    0    0 -0.53176349062E+03 -0.15528297437E+03 -0.12587682270E+03  0.58832120444E+03  0.15294330000E+03 0.  0.
<mgrwt>
<rscale>  0 0.77799112E+03</rscale>
<asrwt>0</asrwt>
<pdfrwt beam="1">  1        2 0.15992099E+00 0.86063664E+03</pdfrwt>
<pdfrwt beam="2">  1       -2 0.77320610E-01 0.86063664E+03</pdfrwt>
<totfact> 0.35695140E+01</totfact>
</mgrwt>
</event>
<event>
 4    2  0.2930016E-007  0.8405191E+03  0.7818608E-02  0.9629202E-01
         -2   -1    0    0    0  501 -0.00000000000E+00  0.00000000000E+00  0.63128308656E+03  0.63128308656E+03  0.25500000000E-02 0.  1.
          2   -1    0    0  501    0  0.00000000000E+00 -0.00000000000E+00 -0.18891904463E+04  0.18891904464E+04  0.25500000000E-02 0. -1.
    8880023    1    1    2    0    0  0.43793677362E+03  0.28438261607E+03 -0.16486853614E+04  0.18505771308E+04  0.65864270000E+03 0. -1.
    8880022    1    1    2    0    0 -0.43793677362E+03 -0.28438261607E+03  0.39077800158E+03  0.66989640210E+03  0.15294330000E+03 0.  0.
<mgrwt>
<rscale>  0 0.75393169E+03</rscale>
<asrwt>0</asrwt>
<pdfrwt beam="1">  1        2 0.29064468E+00 0.84051906E+03</pdfrwt>
<pdfrwt beam="2">  1       -2 0.97120476E-01 0.84051906E+03</pdfrwt>
<totfact> 0.69467231E+00</totfact>
</mgrwt>
</event>
<event>
 4    2  0.2930016E-007  0.8086712E+03  0.7818608E-02  0.9692351E-01
         -2   -1    0    0    0  501 -0.00000000000E+00  0.00000000000E+00  0.51310093422E+03  0.51310093422E+03  0.25500000000E-02 0.  1.
          2   -1    0    0  501    0  0.00000000000E+00 -0.00000000000E+00 -0.21220636012E+04  0.21220636012E+04  0.25500000000E-02 0. -1.
    8880023    1    1    2    0    0 -0.46779997608E+03  0.36084842431E+02 -0.18981180859E+04  0.20632017370E+04  0.65864270000E+03 0. -1.
    8880022    1    1    2    0    0  0.46779997608E+03 -0.36084842431E+02  0.28915541889E+03  0.57196279840E+03  0.15294330000E+03 0.  0.
<mgrwt>
<rscale>  0 0.71474015E+03</rscale>
<asrwt>0</asrwt>
<pdfrwt beam="1">  1        2 0.32647132E+00 0.80867122E+03</pdfrwt>
<pdfrwt beam="2">  1       -2 0.78938606E-01 0.80867122E+03</pdfrwt>
<totfact> 0.83744341E+00</totfact>
</mgrwt>
</event>
<event>
 4    2  0.2930016E-007  0.7648674E+03  0.7818608E-02  0.9792665E-01
         -2   -1    0    0    0  501 -0.00000000000E+00  0.00000000000E+00  0.67659865920E+03  0.67659865921E+03  0.25500000000E-02 0.  1.
          2   -1    0    0  501    0  0.00000000000E+00 -0.00000000000E+00 -0.35488644037E+04  0.35488644037E+04  0.25500000000E-02 0. -1.
    8880023    1    1    2    0    0 -0.11917428863E+03  0.37014780249E+03 -0.34380499681E+04  0.35221030218E+04  0.65864270000E+03 0. -1.
    8880022    1    1    2    0    0  0.11917428863E+03 -0.37014780249E+03  0.56578422360E+03  0.70336004112E+03  0.15294330000E+03 0.  0.
<mgrwt>
<rscale>  0 0.65757644E+03</rscale>
<asrwt>0</asrwt>
<pdfrwt beam="1">  1        2 0.54597913E+00 0.76486738E+03</pdfrwt>
<pdfrwt beam="2">  1       -2 0.10409210E+00 0.76486738E+03</pdfrwt>
<totfact> 0.61281578E-01</totfact>
</mgrwt>
</event>
<event>
 4    2  0.2930016E-007  0.6746218E+03  0.7818608E-02  0.1012546E+00
         -2   -1    0    0    0  501 -0.00000000000E+00  0.00000000000E+00  0.18279547562E+03  0.18279547563E+03  0.25500000000E-02 0.  1.
          2   -1    0    0  501    0  0.00000000000E+00 -0.00000000000E+00 -0.11095928236E+04  0.11095928236E+04  0.25500000000E-02 0. -1.
    8880023    1    1    2    0    0 -0.14390275172E+03  0.24421159007E+02 -0.79751163266E+03  0.10445761846E+04  0.65864270000E+03 0. -1.
    8880022    1    1    2    0    0  0.14390275172E+03 -0.24421159007E+02 -0.12928571535E+03  0.24781211465E+03  0.15294330000E+03 0.  1.
<mgrwt>
<rscale>  0 0.50475302E+03</rscale>
<asrwt>0</asrwt>
<pdfrwt beam="1">  1        2 0.17070658E+00 0.67462182E+03</pdfrwt>
<pdfrwt beam="2">  1       -2 0.28122381E-01 0.67462182E+03</pdfrwt>
<totfact> 0.25191699E+02</totfact>
</mgrwt>
</event>
<event>
 4    2  0.2930016E-007  0.6724459E+03  0.7818608E-02  0.1013967E+00
         -2   -1    0    0    0  501 -0.00000000000E+00  0.00000000000E+00  0.78299847402E+03  0.78299847402E+03  0.25500000000E-02 0.  1.
          2   -1    0    0  501    0  0.00000000000E+00 -0.00000000000E+00 -0.66865523823E+03  0.66865523824E+03  0.25500000000E-02 0. -1.
    8880023    1    1    2    0    0  0.75454476703E+02 -0.11260527857E+03 -0.47801417209E+03  0.82503398827E+03  0.65864270000E+03 0. -1.
    8880022    1    1    2    0    0 -0.75454476703E+02  0.11260527857E+03  0.59235740787E+03  0.62661972399E+03  0.15294330000E+03 0.  0.
<mgrwt>
<rscale>  0 0.49928045E+03</rscale>
<asrwt>0</asrwt>
<pdfrwt beam="1">  1        2 0.10287004E+00 0.67244593E+03</pdfrwt>
<pdfrwt beam="2">  1       -2 0.12046130E+00 0.67244593E+03</pdfrwt>
<totfact> 0.23307846E+01</totfact>
</mgrwt>
</event>
<event>
 4    2  0.2930016E-007  0.7219155E+03  0.7818608E-02  0.9916157E-01
         -2   -1    0    0    0  501 -0.00000000000E+00  0.00000000000E+00  0.55401871869E+03  0.55401871870E+03  0.25500000000E-02 0.  1.
          2   -1    0    0  501    0  0.00000000000E+00 -0.00000000000E+00 -0.14149585586E+04  0.14149585586E+04  0.25500000000E-02 0. -1.
    8880023    1    1    2    0    0  0.28446876110E+03 -0.80182590592E+02 -0.12582944552E+04  0.14506780711E+04  0.65864270000E+03 0.  0.
    8880022    1    1    2    0    0 -0.28446876110E+03  0.80182590592E+02  0.39735461524E+03  0.51829920620E+03  0.15294330000E+03 0.  0.
<mgrwt>
<rscale>  0 0.59484591E+03</rscale>
<asrwt>0</asrwt>
<pdfrwt beam="1">  1        2 0.21768593E+00 0.72191546E+03</pdfrwt>
<pdfrwt beam="2">  1       -2 0.85233649E-01 0.72191546E+03</pdfrwt>
<totfact> 0.17433760E+01</totfact>
</mgrwt>
</event>
<event>
 4    2  0.2930016E-007  0.8684337E+03  0.7818608E-02  0.9578734E-01
          2   -1    0    0  501    0  0.00000000000E+00  0.00000000000E+00  0.29546315732E+04  0.29546315732E+04  0.25500000000E-02 0. -1.
         -2   -1    0    0    0  501 -0.00000000000E+00 -0.00000000000E+00 -0.36287097023E+03  0.36287097024E+03  0.25500000000E-02 0.  1.
    8880023    1    1    2    0    0  0.41326631378E+03 -0.38675302341E+03  0.25894428614E+04  0.27311886581E+04  0.65864270000E+03 0.  0.
    8880022    1    1    2    0    0 -0.41326631378E+03  0.38675302341E+03  0.23177415410E+01  0.58631388536E+03  0.15294330000E+03 0.  0.
<mgrwt>
<rscale>  0 0.78719842E+03</rscale>
<asrwt>0</asrwt>
<pdfrwt beam="1">  1        2 0.45455871E+00 0.86843374E+03</pdfrwt>
<pdfrwt beam="2">  1       -2 0.55826302E-01 0.86843374E+03</pdfrwt>
<totfact> 0.58372186E+00</totfact>
</mgrwt>
</event>
<event>
 4    2  0.2930016E-007  0.6729415E+03  0.7818608E-02  0.1013636E+00
          2   -1    0    0  501    0  0.00000000000E+00  0.00000000000E+00  0.63631303982E+03  0.63631303982E+03  0.25500000000E-02 0. -1.
         -2   -1    0    0    0  501 -0.00000000000E+00 -0.00000000000E+00 -0.63656271996E+03  0.63656271996E+03  0.25500000000E-02 0.  1.
    8880023    1    1    2    0    0  0.11856523069E+03  0.70585412304E+02  0.42809948924E+03  0.79757093309E+03  0.65864270000E+03 0. -1.
    8880022    1    1    2    0    0 -0.11856523069E+03 -0.70585412304E+02 -0.42834916938E+03  0.47530482670E+03  0.15294330000E+03 0.  0.
<mgrwt>
<rscale>  0 0.50054627E+03</rscale>
<asrwt>0</asrwt>
<pdfrwt beam="1">  1        2 0.97894314E-01 0.67294147E+03</pdfrwt>
<pdfrwt beam="2">  1       -2 0.97932726E-01 0.67294147E+03</pdfrwt>
<totfact> 0.40819833E+01</totfact>
</mgrwt>
</event>
<event>
 4    2  0.2930016E-007  0.7204671E+03  0.7818608E-02  0.9921009E-01
          2   -1    0    0  501    0  0.00000000000E+00  0.00000000000E+00  0.88688299849E+03  0.88688299850E+03  0.25500000000E-02 0. -1.
         -2   -1    0    0    0  501 -0.00000000000E+00 -0.00000000000E+00 -0.34031423823E+03  0.34031423823E+03  0.25500000000E-02 0.  1.
    8880023    1    1    2    0    0 -0.17224059554E+03  0.23578764674E+03  0.53496951640E+03  0.89736571522E+03  0.65864270000E+03 0. -1.
    8880022    1    1    2    0    0  0.17224059554E+03 -0.23578764674E+03  0.11599243867E+02  0.32983152151E+03  0.15294330000E+03 0.  1.
<mgrwt>
<rscale>  0 0.59253837E+03</rscale>
<asrwt>0</asrwt>
<pdfrwt beam="1">  1        2 0.13644354E+00 0.72046710E+03</pdfrwt>
<pdfrwt beam="2">  1       -2 0.52356038E-01 0.72046710E+03</pdfrwt>
<totfact> 0.10457025E+02</totfact>
</mgrwt>
</event>
<event>
 4    2  0.2930016E-007  0.6815563E+03  0.7818608E-02  0.1008457E+00
          2   -1    0    0  501    0  0.00000000000E+00  0.00000000000E+00  0.15682254909E+04  0.15682254909E+04  0.25500000000E-02 0. -1.
         -2   -1    0    0    0  501 -0.00000000000E+00 -0.00000000000E+00 -0.24507761109E+03  0.24507761110E+03  0.25500000000E-02 0.  1.
    8880023    1    1    2    0    0 -0.16236284518E+03 -0.65932691770E+02  0.14091490546E+04  0.15653178839E+04  0.65864270000E+03 0.  0.
    8880022    1    1    2    0    0  0.16236284518E+03  0.65932691770E+02 -0.86001174745E+02  0.24798521813E+03  0.15294330000E+03 0.  0.
<mgrwt>
<rscale>  0 0.52092649E+03</rscale>
<asrwt>0</asrwt>
<pdfrwt beam="1">  1        2 0.24126545E+00 0.68155632E+03</pdfrwt>
<pdfrwt beam="2">  1       -2 0.37704249E-01 0.68155632E+03</pdfrwt>
<totfact> 0.79243681E+01</totfact>
</mgrwt>
</event>
<event>
 4    2  0.2930016E-007  0.6845981E+03  0.7818608E-02  0.1006834E+00
         -2   -1    0    0    0  501 -0.00000000000E+00  0.00000000000E+00  0.68500730094E+03  0.68500730094E+03  0.25500000000E-02 0.  1.
          2   -1    0    0  501    0  0.00000000000E+00 -0.00000000000E+00 -0.72874521487E+03  0.72874521487E+03  0.25500000000E-02 0. -1.
    8880023    1    1    2    0    0 -0.44538478477E+02  0.18133047328E+03 -0.53338050184E+03  0.86785331860E+03  0.65864270000E+03 0. -1.
    8880022    1    1    2    0    0  0.44538478477E+02 -0.18133047328E+03  0.48964258791E+03  0.54589919721E+03  0.15294330000E+03 0.  0.
<mgrwt>
<rscale>  0 0.52752669E+03</rscale>
<asrwt>0</asrwt>
<pdfrwt beam="1">  1        2 0.11211465E+00 0.68459815E+03</pdfrwt>
<pdfrwt beam="2">  1       -2 0.10538574E+00 0.68459815E+03</pdfrwt>
<totfact> 0.28917862E+01</totfact>
</mgrwt>
</event>
<event>
 4    2  0.2930016E-007  0.1037066E+04  0.7818608E-02  0.9334594E-01
          2   -1    0    0  501    0  0.00000000000E+00  0.00000000000E+00  0.29383964176E+04  0.29383964176E+04  0.25500000000E-02 0. -1.
         -2   -1    0    0    0  501 -0.00000000000E+00 -0.00000000000E+00 -0.47888106144E+03  0.47888106145E+03  0.25500000000E-02 0.  1.
    8880023    1    1    2    0    0  0.15103379240E+03 -0.78669168389E+03  0.23821301847E+04  0.25980857251E+04  0.65864270000E+03 0. -1.
    8880022    1    1    2    0    0 -0.15103379240E+03  0.78669168389E+03  0.77385171466E+02  0.81919175394E+03  0.15294330000E+03 0.  1.
<mgrwt>
<rscale>  0 0.97659495E+03</rscale>
<asrwt>0</asrwt>
<pdfrwt beam="1">  1        2 0.45206098E+00 0.10370657E+04</pdfrwt>
<pdfrwt beam="2">  1       -2 0.73674011E-01 0.10370657E+04</pdfrwt>
<totfact> 0.32065584E+00</totfact>
</mgrwt>
</event>
<event>
 4    2  0.2930016E-007  0.7209809E+03  0.7818608E-02  0.9919281E-01
          2   -1    0    0  501    0  0.00000000000E+00  0.00000000000E+00  0.99411071552E+03  0.99411071552E+03  0.25500000000E-02 0. -1.
         -2   -1    0    0    0  501 -0.00000000000E+00 -0.00000000000E+00 -0.29596983656E+03  0.29596983657E+03  0.25500000000E-02 0.  1.
    8880023    1    1    2    0    0 -0.24944176028E+03 -0.15421442668E+03  0.61839008319E+03  0.94985250562E+03  0.65864270000E+03 0. -1.
    8880022    1    1    2    0    0  0.24944176028E+03  0.15421442668E+03  0.79750795761E+02  0.34022804647E+03  0.15294330000E+03 0.  1.
<mgrwt>
<rscale>  0 0.59335893E+03</rscale>
<asrwt>0</asrwt>
<pdfrwt beam="1">  1        2 0.15294011E+00 0.72098092E+03</pdfrwt>
<pdfrwt beam="2">  1       -2 0.45533821E-01 0.72098092E+03</pdfrwt>
<totfact> 0.11794886E+02</totfact>
</mgrwt>
</event>
<event>
 4    2  0.2930016E-007  0.9517127E+03  0.7818608E-02  0.9447654E-01
          2   -1    0    0  501    0  0.00000000000E+00  0.00000000000E+00  0.72798354242E+03  0.72798354243E+03  0.25500000000E-02 0. -1.
         -2   -1    0    0    0  501 -0.00000000000E+00 -0.00000000000E+00 -0.12956146684E+04  0.12956146684E+04  0.25500000000E-02 0.  1.
    8880023    1    1    2    0    0 -0.54877869944E+03 -0.41326594862E+03  0.21016729204E+03  0.97464214056E+03  0.65864270000E+03 0. -1.
    8880022    1    1    2    0    0  0.54877869944E+03  0.41326594862E+03 -0.77779841797E+03  0.10489560702E+04  0.15294330000E+03 0.  0.
<mgrwt>
<rscale>  0 0.88255574E+03</rscale>
<asrwt>0</asrwt>
<pdfrwt beam="1">  1        2 0.11199747E+00 0.95171267E+03</pdfrwt>
<pdfrwt beam="2">  1       -2 0.19932533E+00 0.95171267E+03</pdfrwt>
<totfact> 0.52260684E+00</totfact>
</mgrwt>
</event>
<event>
 4    2  0.2930016E-007  0.9933429E+03  0.7818608E-02  0.9390319E-01
          2   -1    0    0  501    0  0.00000000000E+00  0.00000000000E+00  0.86505042038E+03  0.86505042039E+03  0.25500000000E-02 0. -1.
         -2   -1    0    0    0  501 -0.00000000000E+00 -0.00000000000E+00 -0.10246836497E+04  0.10246836497E+04  0.25500000000E-02 0.  1.
    8880023    1    1    2    0    0  0.13631296564E+03  0.73098476054E+03  0.25387023817E+03  0.10252708173E+04  0.65864270000E+03 0. -1.
    8880022    1    1    2    0    0 -0.13631296564E+03 -0.73098476054E+03 -0.41350346747E+03  0.86446325276E+03  0.15294330000E+03 0.  0.
<mgrwt>
<rscale>  0 0.92876656E+03</rscale>
<asrwt>0</asrwt>
<pdfrwt beam="1">  1        2 0.13308468E+00 0.99334292E+03</pdfrwt>
<pdfrwt beam="2">  1       -2 0.15764364E+00 0.99334292E+03</pdfrwt>
<totfact> 0.80616181E+00</totfact>
</mgrwt>
</event>
<event>
 4    2  0.2930016E-007  0.6986173E+03  0.7818608E-02  0.1000299E+00
          2   -1    0    0  501    0  0.00000000000E+00  0.00000000000E+00  0.27034645597E+04  0.27034645597E+04  0.25500000000E-02 0. -1.
         -2   -1    0    0    0  501 -0.00000000000E+00 -0.00000000000E+00 -0.91985285515E+02  0.91985285550E+02  0.25500000000E-02 0.  1.
    8880023    1    1    2    0    0  0.30534682552E+02  0.23091904028E+03  0.15913484188E+04  0.17379459043E+04  0.65864270000E+03 0.  0.
    8880022    1    1    2    0    0 -0.30534682552E+02 -0.23091904028E+03  0.10201308553E+04  0.10575039409E+04  0.15294330000E+03 0.  1.
<mgrwt>
<rscale>  0 0.55519499E+03</rscale>
<asrwt>0</asrwt>
<pdfrwt beam="1">  1        2 0.41591764E+00 0.69861733E+03</pdfrwt>
<pdfrwt beam="2">  1       -2 0.14151582E-01 0.69861733E+03</pdfrwt>
<totfact> 0.10738731E+02</totfact>
</mgrwt>
</event>
<event>
 4    2  0.2930016E-007  0.7621881E+03  0.7818608E-02  0.9799475E-01
          2   -1    0    0  501    0  0.00000000000E+00  0.00000000000E+00  0.74001681015E+03  0.74001681015E+03  0.25500000000E-02 0. -1.
         -2   -1    0    0    0  501 -0.00000000000E+00 -0.00000000000E+00 -0.80525777610E+03  0.80525777611E+03  0.25500000000E-02 0.  1.
    8880023    1    1    2    0    0  0.33259394051E+03 -0.19105445134E+03  0.44989634385E+03  0.88506353394E+03  0.65864270000E+03 0. -1.
    8880022    1    1    2    0    0 -0.33259394051E+03  0.19105445134E+03 -0.51513730981E+03  0.66021105232E+03  0.15294330000E+03 0.  0.
<mgrwt>
<rscale>  0 0.65390711E+03</rscale>
<asrwt>0</asrwt>
<pdfrwt beam="1">  1        2 0.11384874E+00 0.76218813E+03</pdfrwt>
<pdfrwt beam="2">  1       -2 0.12388581E+00 0.76218813E+03</pdfrwt>
<totfact> 0.18955804E+01</totfact>
</mgrwt>
</event>
<event>
 4    2  0.2930016E-007  0.6974842E+03  0.7818608E-02  0.1000780E+00
          2   -1    0    0  501    0  0.00000000000E+00  0.00000000000E+00  0.10869326431E+04  0.10869326432E+04  0.25500000000E-02 0. -1.
         -2   -1    0    0    0  501 -0.00000000000E+00 -0.00000000000E+00 -0.32068680963E+03  0.32068680964E+03  0.25500000000E-02 0.  1.
    8880023    1    1    2    0    0  0.16098376448E+03 -0.16357924217E+03  0.86812069011E+03  0.11136057111E+04  0.65864270000E+03 0. -1.
    8880022    1    1    2    0    0 -0.16098376448E+03  0.16357924217E+03 -0.10187485659E+03  0.29401374171E+03  0.15294330000E+03 0.  0.
<mgrwt>
<rscale>  0 0.55309444E+03</rscale>
<asrwt>0</asrwt>
<pdfrwt beam="1">  1        2 0.16722040E+00 0.69748416E+03</pdfrwt>
<pdfrwt beam="2">  1       -2 0.49336433E-01 0.69748416E+03</pdfrwt>
<totfact> 0.87966214E+01</totfact>
</mgrwt>
</event>
<event>
 4    2  0.2950693E-007  0.1243201E+04  0.7818608E-02  0.9116230E-01
          2   -1    0    0  501    0  0.00000000000E+00  0.00000000000E+00  0.25335248972E+04  0.25335248972E+04  0.25500000000E-02 0. -1.
         -2   -1    0    0    0  501 -0.00000000000E+00 -0.00000000000E+00 -0.14829188226E+04  0.14829188226E+04  0.25500000000E-02 0.  1.
    8880023    1    1    2    0    0 -0.18098173333E+03  0.10387416222E+04  0.21512256751E+04  0.24846168029E+04  0.65864270000E+03 0. -1.
    8880022    1    1    2    0    0  0.18098173333E+03 -0.10387416222E+04 -0.11006196005E+04  0.15318269169E+04  0.15294330000E+03 0.  0.
<mgrwt>
<rscale>  0 0.11961530E+04</rscale>
<asrwt>0</asrwt>
<pdfrwt beam="1">  1        2 0.38977306E+00 0.12432010E+04</pdfrwt>
<pdfrwt beam="2">  1       -2 0.22814136E+00 0.12432010E+04</pdfrwt>
<totfact> 0.28366913E-01</totfact>
</mgrwt>
</event>
<event>
 4    2  0.2930016E-007  0.9643670E+03  0.7818608E-02  0.9429738E-01
         -2   -1    0    0    0  501 -0.00000000000E+00  0.00000000000E+00  0.49289281687E+03  0.49289281688E+03  0.25500000000E-02 0.  1.
          2   -1    0    0  501    0  0.00000000000E+00 -0.00000000000E+00 -0.35082410372E+04  0.35082410372E+04  0.25500000000E-02 0. -1.
    8880023    1    1    2    0    0 -0.68758870460E+03  0.15302060014E+03 -0.31264469350E+04  0.32717998372E+04  0.65864270000E+03 0.  0.
    8880022    1    1    2    0    0  0.68758870460E+03 -0.15302060014E+03  0.11109871471E+03  0.72933401689E+03  0.15294330000E+03 0.  1.
<mgrwt>
<rscale>  0 0.89668283E+03</rscale>
<asrwt>0</asrwt>
<pdfrwt beam="1">  1        2 0.53972937E+00 0.96436701E+03</pdfrwt>
<pdfrwt beam="2">  1       -2 0.75829666E-01 0.96436701E+03</pdfrwt>
<totfact> 0.13029588E+00</totfact>
</mgrwt>
</event>
<event>
 4    2  0.2930016E-007  0.7065430E+03  0.7818608E-02  0.9971070E-01
          2   -1    0    0  501    0  0.00000000000E+00  0.00000000000E+00  0.13384349534E+04  0.13384349534E+04  0.25500000000E-02 0. -1.
         -2   -1    0    0    0  501 -0.00000000000E+00 -0.00000000000E+00 -0.76435165625E+03  0.76435165625E+03  0.25500000000E-02 0.  1.
    8880023    1    1    2    0    0 -0.22812941192E+03  0.11554096328E+03  0.12096289876E+04  0.14008587498E+04  0.65864270000E+03 0. -1.
    8880022    1    1    2    0    0  0.22812941192E+03 -0.11554096328E+03 -0.63554569049E+03  0.70192785989E+03  0.15294330000E+03 0.  0.
<mgrwt>
<rscale>  0 0.56937187E+03</rscale>
<asrwt>0</asrwt>
<pdfrwt beam="1">  1        2 0.20591307E+00 0.70654296E+03</pdfrwt>
<pdfrwt beam="2">  1       -2 0.11759256E+00 0.70654296E+03</pdfrwt>
<totfact> 0.90130333E+00</totfact>
</mgrwt>
</event>
<event>
 4    2  0.2930016E-007  0.1614827E+04  0.7818608E-02  0.8832539E-01
          2   -1    0    0  501    0  0.00000000000E+00  0.00000000000E+00  0.16680853493E+04  0.16680853493E+04  0.25500000000E-02 0. -1.
         -2   -1    0    0    0  501 -0.00000000000E+00 -0.00000000000E+00 -0.14470673806E+04  0.14470673806E+04  0.25500000000E-02 0.  1.
    8880023    1    1    2    0    0  0.14481773343E+04  0.27683711346E+03 -0.10553751562E+02  0.16148615937E+04  0.65864270000E+03 0.  0.
    8880022    1    1    2    0    0 -0.14481773343E+04 -0.27683711346E+03  0.23157172029E+03  0.15002911362E+04  0.15294330000E+03 0.  0.
<mgrwt>
<rscale>  0 0.15806270E+04</rscale>
<asrwt>0</asrwt>
<pdfrwt beam="1">  1        2 0.25662852E+00 0.16148271E+04</pdfrwt>
<pdfrwt beam="2">  1       -2 0.22262575E+00 0.16148271E+04</pdfrwt>
<totfact> 0.90376602E-01</totfact>
</mgrwt>
</event>
<event>
 4    2  0.4733683E-007  0.1127911E+04  0.7818608E-02  0.9230599E-01
          2   -1    0    0  501    0  0.00000000000E+00  0.00000000000E+00  0.16980386545E+04  0.16980386545E+04  0.25500000000E-02 0. -1.
         -2   -1    0    0    0  501 -0.00000000000E+00 -0.00000000000E+00 -0.21832343047E+04  0.21832343047E+04  0.25500000000E-02 0.  1.
    8880023    1    1    2    0    0 -0.87793456932E+03  0.26000729378E+03  0.13892976633E+04  0.17895058268E+04  0.65864270000E+03 0.  0.
    8880022    1    1    2    0    0  0.87793456932E+03 -0.26000729378E+03 -0.18744933135E+04  0.20917671324E+04  0.15294330000E+03 0.  0.
<mgrwt>
<rscale>  0 0.10743102E+04</rscale>
<asrwt>0</asrwt>
<pdfrwt beam="1">  1        2 0.26123672E+00 0.11279109E+04</pdfrwt>
<pdfrwt beam="2">  1       -2 0.33588220E+00 0.11279109E+04</pdfrwt>
<totfact> 0.18574604E-01</totfact>
</mgrwt>
</event>
<event>
 4    2  0.2930016E-007  0.6904560E+03  0.7818608E-02  0.1003937E+00
         -2   -1    0    0    0  501 -0.00000000000E+00  0.00000000000E+00  0.78084019089E+03  0.78084019090E+03  0.25500000000E-02 0.  1.
          2   -1    0    0  501    0  0.00000000000E+00 -0.00000000000E+00 -0.29903309723E+03  0.29903309725E+03  0.25500000000E-02 0. -1.
    8880023    1    1    2    0    0 -0.14609066945E+03 -0.14689066148E+03  0.25285002025E+03  0.73529768743E+03  0.65864270000E+03 0.  0.
    8880022    1    1    2    0    0  0.14609066945E+03  0.14689066148E+03  0.22895707341E+03  0.34457560072E+03  0.15294330000E+03 0.  0.
<mgrwt>
<rscale>  0 0.53957302E+03</rscale>
<asrwt>0</asrwt>
<pdfrwt beam="1">  1        2 0.46005092E-01 0.69045605E+03</pdfrwt>
<pdfrwt beam="2">  1       -2 0.12012926E+00 0.69045605E+03</pdfrwt>
<totfact> 0.59152887E+01</totfact>
</mgrwt>
</event>
<event>
 4    2  0.2930016E-007  0.1081893E+04  0.7818608E-02  0.9281488E-01
          2   -1    0    0  501    0  0.00000000000E+00  0.00000000000E+00  0.15280909951E+04  0.15280909951E+04  0.25500000000E-02 0. -1.
         -2   -1    0    0    0  501 -0.00000000000E+00 -0.00000000000E+00 -0.74678195514E+03  0.74678195514E+03  0.25500000000E-02 0.  1.
    8880023    1    1    2    0    0 -0.32131060785E+03  0.79589101060E+03  0.88386858579E+03  0.13970386146E+04  0.65864270000E+03 0. -1.
    8880022    1    1    2    0    0  0.32131060785E+03 -0.79589101060E+03 -0.10255954578E+03  0.87783433569E+03  0.15294330000E+03 0.  0.
<mgrwt>
<rscale>  0 0.10250508E+04</rscale>
<asrwt>0</asrwt>
<pdfrwt beam="1">  1        2 0.23509092E+00 0.10818933E+04</pdfrwt>
<pdfrwt beam="2">  1       -2 0.11488953E+00 0.10818933E+04</pdfrwt>
<totfact> 0.71345419E+00</totfact>
</mgrwt>
</event>
<event>
 4    2  0.2930016E-007  0.6930620E+03  0.7818608E-02  0.1002730E+00
          2   -1    0    0  501    0  0.00000000000E+00  0.00000000000E+00  0.13771170528E+04  0.13771170528E+04  0.25500000000E-02 0. -1.
         -2   -1    0    0    0  501 -0.00000000000E+00 -0.00000000000E+00 -0.18032258150E+03  0.18032258151E+03  0.25500000000E-02 0.  1.
    8880023    1    1    2    0    0 -0.21140585335E+03 -0.42805589182E+02  0.10407911585E+04  0.12504324033E+04  0.65864270000E+03 0. -1.
    8880022    1    1    2    0    0  0.21140585335E+03  0.42805589182E+02  0.15600331282E+03  0.30700723106E+03  0.15294330000E+03 0.  1.
<mgrwt>
<rscale>  0 0.54469258E+03</rscale>
<asrwt>0</asrwt>
<pdfrwt beam="1">  1        2 0.21186417E+00 0.69306202E+03</pdfrwt>
<pdfrwt beam="2">  1       -2 0.27741934E-01 0.69306202E+03</pdfrwt>
<totfact> 0.17998199E+02</totfact>
</mgrwt>
</event>
<event>
 4    2  0.2930016E-007  0.7570860E+03  0.7818608E-02  0.9812711E-01
          2   -1    0    0  501    0  0.00000000000E+00  0.00000000000E+00  0.26577216770E+04  0.26577216770E+04  0.25500000000E-02 0. -1.
         -2   -1    0    0    0  501 -0.00000000000E+00 -0.00000000000E+00 -0.27184709229E+03  0.27184709231E+03  0.25500000000E-02 0.  1.
    8880023    1    1    2    0    0  0.26825781669E+03 -0.25962798199E+03  0.24093016640E+04  0.25254531593E+04  0.65864270000E+03 0.  0.
    8880022    1    1    2    0    0 -0.26825781669E+03  0.25962798199E+03 -0.23427079265E+02  0.40411561007E+03  0.15294330000E+03 0.  1.
<mgrwt>
<rscale>  0 0.64684847E+03</rscale>
<asrwt>0</asrwt>
<pdfrwt beam="1">  1        2 0.40888026E+00 0.75708596E+03</pdfrwt>
<pdfrwt beam="2">  1       -2 0.41822630E-01 0.75708596E+03</pdfrwt>
<totfact> 0.16002284E+01</totfact>
</mgrwt>
</event>
<event>
 4    2  0.2930016E-007  0.7537572E+03  0.7818608E-02  0.9821546E-01
          2   -1    0    0  501    0  0.00000000000E+00  0.00000000000E+00  0.12876159709E+04  0.12876159709E+04  0.25500000000E-02 0. -1.
         -2   -1    0    0    0  501 -0.00000000000E+00 -0.00000000000E+00 -0.63327567775E+03  0.63327567775E+03  0.25500000000E-02 0.  1.
    8880023    1    1    2    0    0  0.36345158608E+03  0.47357241906E+02  0.10939260969E+04  0.13284668891E+04  0.65864270000E+03 0. -1.
    8880022    1    1    2    0    0 -0.36345158608E+03 -0.47357241906E+02 -0.43958580376E+03  0.59242475950E+03  0.15294330000E+03 0.  0.
<mgrwt>
<rscale>  0 0.64218979E+03</rscale>
<asrwt>0</asrwt>
<pdfrwt beam="1">  1        2 0.19809476E+00 0.75375724E+03</pdfrwt>
<pdfrwt beam="2">  1       -2 0.97427028E-01 0.75375724E+03</pdfrwt>
<totfact> 0.15064679E+01</totfact>
</mgrwt>
</event>
<event>
 4    2  0.2930016E-007  0.6936376E+03  0.7818608E-02  0.1002469E+00
         -2   -1    0    0    0  501 -0.00000000000E+00  0.00000000000E+00  0.79193806179E+03  0.79193806180E+03  0.25500000000E-02 0.  1.
          2   -1    0    0  501    0  0.00000000000E+00 -0.00000000000E+00 -0.43163873454E+03  0.43163873454E+03  0.25500000000E-02 0. -1.
    8880023    1    1    2    0    0 -0.11587307668E+03  0.18410963378E+03 -0.91178511524E+02  0.69960464148E+03  0.65864270000E+03 0. -1.
    8880022    1    1    2    0    0  0.11587307668E+03 -0.18410963378E+03  0.45147783878E+03  0.52397215486E+03  0.15294330000E+03 0.  1.
<mgrwt>
<rscale>  0 0.54580574E+03</rscale>
<asrwt>0</asrwt>
<pdfrwt beam="1">  1        2 0.66405961E-01 0.69363761E+03</pdfrwt>
<pdfrwt beam="2">  1       -2 0.12183662E+00 0.69363761E+03</pdfrwt>
<totfact> 0.37882455E+01</totfact>
</mgrwt>
</event>
<event>
 4    2  0.2930016E-007  0.7904932E+03  0.7818608E-02  0.9731742E-01
          2   -1    0    0  501    0  0.00000000000E+00  0.00000000000E+00  0.28257867349E+03  0.28257867350E+03  0.25500000000E-02 0. -1.
         -2   -1    0    0    0  501 -0.00000000000E+00 -0.00000000000E+00 -0.15086624753E+04  0.15086624753E+04  0.25500000000E-02 0.  1.
    8880023    1    1    2    0    0 -0.37343435287E+03  0.22719179245E+03 -0.51775340690E+03  0.94495932351E+03  0.65864270000E+03 0.  1.
    8880022    1    1    2    0    0  0.37343435287E+03 -0.22719179245E+03 -0.70833039489E+03  0.84628182528E+03  0.15294330000E+03 0.  0.
<mgrwt>
<rscale>  0 0.69157956E+03</rscale>
<asrwt>0</asrwt>
<pdfrwt beam="1">  1        2 0.43473643E-01 0.79049322E+03</pdfrwt>
<pdfrwt beam="2">  1       -2 0.23210192E+00 0.79049322E+03</pdfrwt>
<totfact> 0.99206053E+00</totfact>
</mgrwt>
</event>
<event>
 4    2  0.3506652E-007  0.7331950E+03  0.7818608E-02  0.9880232E-01
          2   -1    0    0  501    0  0.00000000000E+00  0.00000000000E+00  0.11692244195E+04  0.11692244195E+04  0.25500000000E-02 0. -1.
         -2   -1    0    0    0  501 -0.00000000000E+00 -0.00000000000E+00 -0.16975321286E+04  0.16975321286E+04  0.25500000000E-02 0.  1.
    8880023    1    1    2    0    0  0.28423515340E+03 -0.15157528224E+03  0.10321576925E+04  0.12660665058E+04  0.65864270000E+03 0.  0.
    8880022    1    1    2    0    0 -0.28423515340E+03  0.15157528224E+03 -0.15604654017E+04  0.16006900423E+04  0.15294330000E+03 0.  0.
<mgrwt>
<rscale>  0 0.61228958E+03</rscale>
<asrwt>0</asrwt>
<pdfrwt beam="1">  1        2 0.17988068E+00 0.73319499E+03</pdfrwt>
<pdfrwt beam="2">  1       -2 0.26115879E+00 0.73319499E+03</pdfrwt>
<totfact> 0.11308541E+00</totfact>
</mgrwt>
</event>
<event>
 4    2  0.2930016E-007  0.7515536E+03  0.7818608E-02  0.9827486E-01
         -2   -1    0    0    0  501 -0.00000000000E+00  0.00000000000E+00  0.30280929155E+03  0.30280929156E+03  0.25500000000E-02 0.  1.
          2   -1    0    0  501    0  0.00000000000E+00 -0.00000000000E+00 -0.12593475905E+04  0.12593475905E+04  0.25500000000E-02 0. -1.
    8880023    1    1    2    0    0 -0.64347038081E+02 -0.35620503473E+03 -0.88786732660E+03  0.11632459602E+04  0.65864270000E+03 0.  1.
    8880022    1    1    2    0    0  0.64347038081E+02  0.35620503473E+03 -0.68670972313E+02  0.39891092180E+03  0.15294330000E+03 0.  0.
<mgrwt>
<rscale>  0 0.63908095E+03</rscale>
<asrwt>0</asrwt>
<pdfrwt beam="1">  1        2 0.19374578E+00 0.75155357E+03</pdfrwt>
<pdfrwt beam="2">  1       -2 0.46586046E-01 0.75155357E+03</pdfrwt>
<totfact> 0.77567249E+01</totfact>
</mgrwt>
</event>
<event>
 4    2  0.2930016E-007  0.7947779E+03  0.7818608E-02  0.9722203E-01
          2   -1    0    0  501    0  0.00000000000E+00  0.00000000000E+00  0.29161466461E+04  0.29161466461E+04  0.25500000000E-02 0. -1.
         -2   -1    0    0    0  501 -0.00000000000E+00 -0.00000000000E+00 -0.21362476511E+03  0.21362476513E+03  0.25500000000E-02 0.  1.
    8880023    1    1    2    0    0 -0.32560258790E+02  0.44362325800E+03  0.24897182432E+04  0.26134974464E+04  0.65864270000E+03 0.  0.
    8880022    1    1    2    0    0  0.32560258790E+02 -0.44362325800E+03  0.21280363778E+03  0.51627396483E+03  0.15294330000E+03 0.  0.
<mgrwt>
<rscale>  0 0.69710083E+03</rscale>
<asrwt>0</asrwt>
<pdfrwt beam="1">  1        2 0.44863793E+00 0.79477794E+03</pdfrwt>
<pdfrwt beam="2">  1       -2 0.32865350E-01 0.79477794E+03</pdfrwt>
<totfact> 0.17802428E+01</totfact>
</mgrwt>
</event>
<event>
 4    2  0.2930016E-007  0.1094656E+04  0.7818608E-02  0.9267029E-01
         -2   -1    0    0    0  501 -0.00000000000E+00  0.00000000000E+00  0.47851173685E+03  0.47851173686E+03  0.25500000000E-02 0.  1.
          2   -1    0    0  501    0  0.00000000000E+00 -0.00000000000E+00 -0.24163683303E+04  0.24163683303E+04  0.25500000000E-02 0. -1.
    8880023    1    1    2    0    0 -0.26091219322E+03 -0.83449807329E+03 -0.16136605186E+04  0.19499160706E+04  0.65864270000E+03 0.  0.
    8880022    1    1    2    0    0  0.26091219322E+03  0.83449807329E+03 -0.32419607492E+03  0.94496399662E+03  0.15294330000E+03 0.  0.
<mgrwt>
<rscale>  0 0.10387572E+04</rscale>
<asrwt>0</asrwt>
<pdfrwt beam="1">  1        2 0.37174897E+00 0.10946563E+04</pdfrwt>
<pdfrwt beam="2">  1       -2 0.73617192E-01 0.10946563E+04</pdfrwt>
<totfact> 0.64592475E+00</totfact>
</mgrwt>
</event>
<event>
 4    2  0.2930016E-007  0.8192489E+03  0.7818608E-02  0.9670624E-01
          2   -1    0    0  501    0  0.00000000000E+00  0.00000000000E+00  0.17842216928E+04  0.17842216928E+04  0.25500000000E-02 0. -1.
         -2   -1    0    0    0  501 -0.00000000000E+00 -0.00000000000E+00 -0.27271463961E+03  0.27271463962E+03  0.25500000000E-02 0.  1.
    8880023    1    1    2    0    0  0.42166774399E+03 -0.24403862543E+03  0.12182107812E+04  0.14680620732E+04  0.65864270000E+03 0.  0.
    8880022    1    1    2    0    0 -0.42166774399E+03  0.24403862543E+03  0.29329627200E+03  0.58887425925E+03  0.15294330000E+03 0.  0.
<mgrwt>
<rscale>  0 0.72793060E+03</rscale>
<asrwt>0</asrwt>
<pdfrwt beam="1">  1        2 0.27449564E+00 0.81924889E+03</pdfrwt>
<pdfrwt beam="2">  1       -2 0.41956100E-01 0.81924889E+03</pdfrwt>
<totfact> 0.48280807E+01</totfact>
</mgrwt>
</event>
<event>
 4    2  0.2930016E-007  0.6825961E+03  0.7818608E-02  0.1007892E+00
          2   -1    0    0  501    0  0.00000000000E+00  0.00000000000E+00  0.81355356442E+03  0.81355356442E+03  0.25500000000E-02 0. -1.
         -2   -1    0    0    0  501 -0.00000000000E+00 -0.00000000000E+00 -0.34221828434E+03  0.34221828435E+03  0.25500000000E-02 0.  1.
    8880023    1    1    2    0    0  0.97170248333E+02 -0.15061615216E+03  0.64509459075E+02  0.68563762953E+03  0.65864270000E+03 0.  1.
    8880022    1    1    2    0    0 -0.97170248333E+02  0.15061615216E+03  0.40682582101E+03  0.47013421924E+03  0.15294330000E+03 0.  0.
<mgrwt>
<rscale>  0 0.52321238E+03</rscale>
<asrwt>0</asrwt>
<pdfrwt beam="1">  1        2 0.12516209E+00 0.68259614E+03</pdfrwt>
<pdfrwt beam="2">  1       -2 0.52648967E-01 0.68259614E+03</pdfrwt>
<totfact> 0.11652273E+02</totfact>
</mgrwt>
</event>
<event>
 4    2  0.2930016E-007  0.9108812E+03  0.7818608E-02  0.9508785E-01
         -2   -1    0    0    0  501 -0.00000000000E+00  0.00000000000E+00  0.46011929751E+03  0.46011929752E+03  0.25500000000E-02 0.  1.
          2   -1    0    0  501    0  0.00000000000E+00 -0.00000000000E+00 -0.15735096413E+04  0.15735096413E+04  0.25500000000E-02 0. -1.
    8880023    1    1    2    0    0  0.49374406673E+03 -0.39001425965E+03 -0.23202249681E+03  0.93996753744E+03  0.65864270000E+03 0.  1.
    8880022    1    1    2    0    0 -0.49374406673E+03  0.39001425965E+03 -0.88136784700E+03  0.10936614014E+04  0.15294330000E+03 0. -1.
<mgrwt>
<rscale>  0 0.83639243E+03</rscale>
<asrwt>0</asrwt>
<pdfrwt beam="1">  1        2 0.24207840E+00 0.91088118E+03</pdfrwt>
<pdfrwt beam="2">  1       -2 0.70787585E-01 0.91088118E+03</pdfrwt>
<totfact> 0.21078784E+01</totfact>
</mgrwt>
</event>
<event>
 4    2  0.2930016E-007  0.6736059E+03  0.7818608E-02  0.1013200E+00
          2   -1    0    0  501    0  0.00000000000E+00  0.00000000000E+00  0.15161546956E+04  0.15161546956E+04  0.25500000000E-02 0. -1.
         -2   -1    0    0    0  501 -0.00000000000E+00 -0.00000000000E+00 -0.14559751083E+03  0.14559751085E+03  0.25500000000E-02 0.  1.
    8880023    1    1    2    0    0 -0.44719132803E+02  0.13392106399E+03  0.12532898192E+04  0.14228423066E+04  0.65864270000E+03 0. -1.
    8880022    1    1    2    0    0  0.44719132803E+02 -0.13392106399E+03  0.11726736560E+03  0.23890989990E+03  0.15294330000E+03 0.  0.
<mgrwt>
<rscale>  0 0.50222503E+03</rscale>
<asrwt>0</asrwt>
<pdfrwt beam="1">  1        2 0.23325458E+00 0.67360586E+03</pdfrwt>
<pdfrwt beam="2">  1       -2 0.22399616E-01 0.67360586E+03</pdfrwt>
<totfact> 0.22153523E+02</totfact>
</mgrwt>
</event>
<event>
 4    2  0.2930016E-007  0.8073055E+03  0.7818608E-02  0.9695217E-01
          2   -1    0    0  501    0  0.00000000000E+00  0.00000000000E+00  0.73990469180E+03  0.73990469181E+03  0.25500000000E-02 0. -1.
         -2   -1    0    0    0  501 -0.00000000000E+00 -0.00000000000E+00 -0.65493182590E+03  0.65493182590E+03  0.25500000000E-02 0.  1.
    8880023    1    1    2    0    0  0.40355577780E+03 -0.23467993418E+03  0.29643552733E+03  0.86000939845E+03  0.65864270000E+03 0. -1.
    8880022    1    1    2    0    0 -0.40355577780E+03  0.23467993418E+03 -0.21146266143E+03  0.53482711926E+03  0.15294330000E+03 0.  0.
<mgrwt>
<rscale>  0 0.71302277E+03</rscale>
<asrwt>0</asrwt>
<pdfrwt beam="1">  1        2 0.11383149E+00 0.80730548E+03</pdfrwt>
<pdfrwt beam="2">  1       -2 0.10075874E+00 0.80730548E+03</pdfrwt>
<totfact> 0.31236747E+01</totfact>
</mgrwt>
</event>
<event>
 4    2  0.2930016E-007  0.1371836E+04  0.7818608E-02  0.9005881E-01
         -2   -1    0    0    0  501 -0.00000000000E+00  0.00000000000E+00  0.12220885748E+04  0.12220885748E+04  0.25500000000E-02 0.  1.
          2   -1    0    0  501    0  0.00000000000E+00 -0.00000000000E+00 -0.15130990003E+04  0.15130990003E+04  0.25500000000E-02 0. -1.
    8880023    1    1    2    0    0 -0.34939463844E+03  0.11515417889E+04 -0.57801685166E+03  0.14886365547E+04  0.65864270000E+03 0. -1.
    8880022    1    1    2    0    0  0.34939463844E+03 -0.11515417889E+04  0.28700642609E+03  0.12465510204E+04  0.15294330000E+03 0.  0.
<mgrwt>
<rscale>  0 0.13302933E+04</rscale>
<asrwt>0</asrwt>
<pdfrwt beam="1">  1        2 0.23278446E+00 0.13718365E+04</pdfrwt>
<pdfrwt beam="2">  1       -2 0.18801363E+00 0.13718365E+04</pdfrwt>
<totfact> 0.19027658E+00</totfact>
</mgrwt>
</event>
<event>
 4    2  0.2930016E-007  0.7924503E+03  0.7818608E-02  0.9727364E-01
          2   -1    0    0  501    0  0.00000000000E+00  0.00000000000E+00  0.13260835966E+04  0.13260835966E+04  0.25500000000E-02 0. -1.
         -2   -1    0    0    0  501 -0.00000000000E+00 -0.00000000000E+00 -0.60649122287E+03  0.60649122287E+03  0.25500000000E-02 0.  1.
    8880023    1    1    2    0    0 -0.37238382808E+03 -0.23557925912E+03  0.10825222579E+04  0.13415781557E+04  0.65864270000E+03 0. -1.
    8880022    1    1    2    0    0  0.37238382808E+03  0.23557925912E+03 -0.36292988418E+03  0.59099666377E+03  0.15294330000E+03 0.  0.
<mgrwt>
<rscale>  0 0.69410657E+03</rscale>
<asrwt>0</asrwt>
<pdfrwt beam="1">  1        2 0.20401286E+00 0.79245032E+03</pdfrwt>
<pdfrwt beam="2">  1       -2 0.93306343E-01 0.79245032E+03</pdfrwt>
<totfact> 0.15766875E+01</totfact>
</mgrwt>
</event>
<event>
 4    2  0.2930016E-007  0.6650967E+03  0.7818608E-02  0.1019452E+00
          2   -1    0    0  501    0  0.00000000000E+00  0.00000000000E+00  0.23406848241E+04  0.23406848241E+04  0.25500000000E-02 0. -1.
         -2   -1    0    0    0  501 -0.00000000000E+00 -0.00000000000E+00 -0.38031034023E+03  0.38031034024E+03  0.25500000000E-02 0.  1.
    8880023    1    1    2    0    0 -0.92155694709E+02 -0.71197702259E+01  0.22689431752E+04  0.23644146636E+04  0.65864270000E+03 0. -1.
    8880022    1    1    2    0    0  0.92155694709E+02  0.71197702259E+01 -0.30856869131E+03  0.35658050069E+03  0.15294330000E+03 0.  0.
<mgrwt>
<rscale>  0 0.47884722E+03</rscale>
<asrwt>0</asrwt>
<pdfrwt beam="1">  1        2 0.36010535E+00 0.66509666E+03</pdfrwt>
<pdfrwt beam="2">  1       -2 0.58509284E-01 0.66509666E+03</pdfrwt>
<totfact> 0.12428706E+01</totfact>
</mgrwt>
</event>
<event>
 4    2  0.2930016E-007  0.6823025E+03  0.7818608E-02  0.1008050E+00
         -2   -1    0    0    0  501 -0.00000000000E+00  0.00000000000E+00  0.11793075625E+03  0.11793075628E+03  0.25500000000E-02 0.  1.
          2   -1    0    0  501    0  0.00000000000E+00 -0.00000000000E+00 -0.19893038008E+04  0.19893038008E+04  0.25500000000E-02 0. -1.
    8880023    1    1    2    0    0  0.56642294735E+02  0.16887318171E+03 -0.16459263290E+04  0.17817435809E+04  0.65864270000E+03 0. -1.
    8880022    1    1    2    0    0 -0.56642294735E+02 -0.16887318171E+03 -0.22544671554E+03  0.32549097624E+03  0.15294330000E+03 0.  1.
<mgrwt>
<rscale>  0 0.52257010E+03</rscale>
<asrwt>0</asrwt>
<pdfrwt beam="1">  1        2 0.30604671E+00 0.68230250E+03</pdfrwt>
<pdfrwt beam="2">  1       -2 0.18143195E-01 0.68230250E+03</pdfrwt>
<totfact> 0.17658655E+02</totfact>
</mgrwt>
</event>
<event>
 4    2  0.2930016E-007  0.6697704E+03  0.7818608E-02  0.1015828E+00
          2   -1    0    0  501    0  0.00000000000E+00  0.00000000000E+00  0.37232058237E+04  0.37232058237E+04  0.25500000000E-02 0. -1.
         -2   -1    0    0    0  501 -0.00000000000E+00 -0.00000000000E+00 -0.94247356064E+02  0.94247356098E+02  0.25500000000E-02 0.  1.
    8880023    1    1    2    0    0 -0.10237174035E+03  0.65591126241E+02  0.35399470873E+04  0.36027514148E+04  0.65864270000E+03 0. -1.
    8880022    1    1    2    0    0  0.10237174035E+03 -0.65591126241E+02  0.89011380245E+02  0.21470176500E+03  0.15294330000E+03 0.  0.
<mgrwt>
<rscale>  0 0.49222670E+03</rscale>
<asrwt>0</asrwt>
<pdfrwt beam="1">  1        2 0.57280080E+00 0.66977039E+03</pdfrwt>
<pdfrwt beam="2">  1       -2 0.14499596E-01 0.66977039E+03</pdfrwt>
<totfact> 0.22961482E+01</totfact>
</mgrwt>
</event>
<event>
 4    2  0.2930016E-007  0.9791261E+03  0.7818608E-02  0.9409391E-01
         -2   -1    0    0    0  501 -0.00000000000E+00  0.00000000000E+00  0.20479205988E+03  0.20479205990E+03  0.25500000000E-02 0.  1.
          2   -1    0    0  501    0  0.00000000000E+00 -0.00000000000E+00 -0.42602192487E+04  0.42602192487E+04  0.25500000000E-02 0. -1.
    8880023    1    1    2    0    0 -0.44340814644E+03  0.57294586966E+03 -0.31314150744E+04  0.32809218718E+04  0.65864270000E+03 0.  0.
    8880022    1    1    2    0    0  0.44340814644E+03 -0.57294586966E+03 -0.92401211438E+03  0.11840894368E+04  0.15294330000E+03 0.  0.
<mgrwt>
<rscale>  0 0.91306822E+03</rscale>
<asrwt>0</asrwt>
<pdfrwt beam="1">  1        2 0.65541828E+00 0.97912612E+03</pdfrwt>
<pdfrwt beam="2">  1       -2 0.31506474E-01 0.97912612E+03</pdfrwt>
<totfact> 0.20582143E+00</totfact>
</mgrwt>
</event>
<event>
 4    2  0.2930016E-007  0.7611377E+03  0.7818608E-02  0.9802171E-01
          2   -1    0    0  501    0  0.00000000000E+00  0.00000000000E+00  0.21423609374E+04  0.21423609374E+04  0.25500000000E-02 0. -1.
         -2   -1    0    0    0  501 -0.00000000000E+00 -0.00000000000E+00 -0.20423592842E+03  0.20423592843E+03  0.25500000000E-02 0.  1.
    8880023    1    1    2    0    0  0.36825684890E+03  0.99535335351E+02  0.17209536578E+04  0.18817577125E+04  0.65864270000E+03 0. -1.
    8880022    1    1    2    0    0 -0.36825684890E+03 -0.99535335351E+02  0.21717135117E+03  0.46483915339E+03  0.15294330000E+03 0.  0.
<mgrwt>
<rscale>  0 0.65246167E+03</rscale>
<asrwt>0</asrwt>
<pdfrwt beam="1">  1        2 0.32959397E+00 0.76113770E+03</pdfrwt>
<pdfrwt beam="2">  1       -2 0.31420914E-01 0.76113770E+03</pdfrwt>
<totfact> 0.53912018E+01</totfact>
</mgrwt>
</event>
<event>
 4    2  0.2930016E-007  0.1095690E+04  0.7818608E-02  0.9265870E-01
          2   -1    0    0  501    0  0.00000000000E+00  0.00000000000E+00  0.30725722413E+04  0.30725722413E+04  0.25500000000E-02 0. -1.
         -2   -1    0    0    0  501 -0.00000000000E+00 -0.00000000000E+00 -0.55809941081E+03  0.55809941082E+03  0.25500000000E-02 0.  1.
    8880023    1    1    2    0    0 -0.51007481179E+03  0.71172280398E+03  0.15159083446E+03  0.11061264171E+04  0.65864270000E+03 0.  0.
    8880022    1    1    2    0    0  0.51007481179E+03 -0.71172280398E+03  0.23628819960E+04  0.25245452350E+04  0.15294330000E+03 0.  0.
<mgrwt>
<rscale>  0 0.10398654E+04</rscale>
<asrwt>0</asrwt>
<pdfrwt beam="1">  1        2 0.47270341E+00 0.10956897E+04</pdfrwt>
<pdfrwt beam="2">  1       -2 0.85861449E-01 0.10956897E+04</pdfrwt>
<totfact> 0.18596377E+00</totfact>
</mgrwt>
</event>
<event>
 4    2  0.2930016E-007  0.7083215E+03  0.7818608E-02  0.9964287E-01
         -2   -1    0    0    0  501 -0.00000000000E+00  0.00000000000E+00  0.17530995718E+03  0.17530995719E+03  0.25500000000E-02 0.  1.
          2   -1    0    0  501    0  0.00000000000E+00 -0.00000000000E+00 -0.31187120362E+04  0.31187120362E+04  0.25500000000E-02 0. -1.
    8880023    1    1    2    0    0  0.26014901109E+03  0.15219349895E+02 -0.29041986348E+04  0.29893291979E+04  0.65864270000E+03 0. -1.
    8880022    1    1    2    0    0 -0.26014901109E+03 -0.15219349895E+02 -0.39203444207E+02  0.30469279551E+03  0.15294330000E+03 0.  0.
<mgrwt>
<rscale>  0 0.57244285E+03</rscale>
<asrwt>0</asrwt>
<pdfrwt beam="1">  1        2 0.47980181E+00 0.70832150E+03</pdfrwt>
<pdfrwt beam="2">  1       -2 0.26970765E-01 0.70832150E+03</pdfrwt>
<totfact> 0.19566775E+01</totfact>
</mgrwt>
</event>
<event>
 4    2  0.2930016E-007  0.7366965E+03  0.7818608E-02  0.9869676E-01
          2   -1    0    0  501    0  0.00000000000E+00  0.00000000000E+00  0.17911713249E+04  0.17911713249E+04  0.25500000000E-02 0. -1.
         -2   -1    0    0    0  501 -0.00000000000E+00 -0.00000000000E+00 -0.29069081090E+03  0.29069081091E+03  0.25500000000E-02 0.  1.
    8880023    1    1    2    0    0 -0.29763363235E+03 -0.14256844503E+03  0.15486555563E+04  0.17149506637E+04  0.65864270000E+03 0.  0.
    8880022    1    1    2    0    0  0.29763363235E+03  0.14256844503E+03 -0.48175042339E+02  0.36691147208E+03  0.15294330000E+03 0.  1.
<mgrwt>
<rscale>  0 0.61753667E+03</rscale>
<asrwt>0</asrwt>
<pdfrwt beam="1">  1        2 0.27556482E+00 0.73669651E+03</pdfrwt>
<pdfrwt beam="2">  1       -2 0.44721663E-01 0.73669651E+03</pdfrwt>
<totfact> 0.42565379E+01</totfact>
</mgrwt>
</event>
<event>
 4    2  0.2930016E-007  0.7930941E+03  0.7818608E-02  0.9725932E-01
          2   -1    0    0  501    0  0.00000000000E+00  0.00000000000E+00  0.11720168207E+04  0.11720168207E+04  0.25500000000E-02 0. -1.
         -2   -1    0    0    0  501 -0.00000000000E+00 -0.00000000000E+00 -0.77154522606E+03  0.77154522606E+03  0.25500000000E-02 0.  1.
    8880023    1    1    2    0    0 -0.38188217118E+03  0.22215763831E+03  0.93985037628E+03  0.12297629629E+04  0.65864270000E+03 0. -1.
    8880022    1    1    2    0    0  0.38188217118E+03 -0.22215763831E+03 -0.53937878167E+03  0.71379908381E+03  0.15294330000E+03 0.  0.
<mgrwt>
<rscale>  0 0.69493590E+03</rscale>
<asrwt>0</asrwt>
<pdfrwt beam="1">  1        2 0.18031028E+00 0.79309408E+03</pdfrwt>
<pdfrwt beam="2">  1       -2 0.11869927E+00 0.79309408E+03</pdfrwt>
<totfact> 0.10892963E+01</totfact>
</mgrwt>
</event>
<event>
 4    2  0.2930016E-007  0.7891176E+03  0.7818608E-02  0.9734840E-01
         -2   -1    0    0    0  501 -0.00000000000E+00  0.00000000000E+00  0.11448546483E+04  0.11448546483E+04  0.25500000000E-02 0.  1.
          2   -1    0    0  501    0  0.00000000000E+00 -0.00000000000E+00 -0.39362644655E+03  0.39362644656E+03  0.25500000000E-02 0. -1.
    8880023    1    1    2    0    0 -0.38775591466E+03  0.19632047448E+03  0.18873709956E+03  0.81137431378E+03  0.65864270000E+03 0.  0.
    8880022    1    1    2    0    0  0.38775591466E+03 -0.19632047448E+03  0.56249110223E+03  0.72710678112E+03  0.15294330000E+03 0.  0.
<mgrwt>
<rscale>  0 0.68979809E+03</rscale>
<asrwt>0</asrwt>
<pdfrwt beam="1">  1        2 0.60557916E-01 0.78911760E+03</pdfrwt>
<pdfrwt beam="2">  1       -2 0.17613148E+00 0.78911760E+03</pdfrwt>
<totfact> 0.15805732E+01</totfact>
</mgrwt>
</event>
<event>
 4    2  0.2994027E-007  0.1490147E+04  0.7818608E-02  0.8916625E-01
         -2   -1    0    0    0  501 -0.00000000000E+00  0.00000000000E+00  0.20671426177E+04  0.20671426177E+04  0.25500000000E-02 0.  1.
          2   -1    0    0  501    0  0.00000000000E+00 -0.00000000000E+00 -0.20880333520E+04  0.20880333520E+04  0.25500000000E-02 0. -1.
    8880023    1    1    2    0    0  0.11034635282E+04  0.75438461154E+03 -0.15283995723E+04  0.21346061367E+04  0.65864270000E+03 0.  0.
    8880022    1    1    2    0    0 -0.11034635282E+04 -0.75438461154E+03  0.15075088380E+04  0.20205698329E+04  0.15294330000E+03 0.  0.
<mgrwt>
<rscale>  0 0.14525639E+04</rscale>
<asrwt>0</asrwt>
<pdfrwt beam="1">  1        2 0.32123590E+00 0.14901470E+04</pdfrwt>
<pdfrwt beam="2">  1       -2 0.31802194E+00 0.14901470E+04</pdfrwt>
<totfact> 0.13805578E-01</totfact>
</mgrwt>
</event>
<event>
 4    2  0.2930016E-007  0.7744381E+03  0.7818608E-02  0.9769068E-01
          2   -1    0    0  501    0  0.00000000000E+00  0.00000000000E+00  0.29128583963E+03  0.29128583964E+03  0.25500000000E-02 0. -1.
         -2   -1    0    0    0  501 -0.00000000000E+00 -0.00000000000E+00 -0.24905194532E+04  0.24905194532E+04  0.25500000000E-02 0.  1.
    8880023    1    1    2    0    0  0.91572834062E+02  0.39693651759E+03 -0.29537458929E+03  0.82885495547E+03  0.65864270000E+03 0. -1.
    8880022    1    1    2    0    0 -0.91572834062E+02 -0.39693651759E+03 -0.19038590243E+04  0.19529503374E+04  0.15294330000E+03 0.  0.
<mgrwt>
<rscale>  0 0.67049283E+03</rscale>
<asrwt>0</asrwt>
<pdfrwt beam="1">  1        2 0.44813208E-01 0.77443811E+03</pdfrwt>
<pdfrwt beam="2">  1       -2 0.38315682E+00 0.77443811E+03</pdfrwt>
<totfact> 0.11431541E+00</totfact>
</mgrwt>
</event>
<event>
 4    2  0.2930016E-007  0.8925753E+03  0.7818608E-02  0.9538057E-01
         -2   -1    0    0    0  501 -0.00000000000E+00  0.00000000000E+00  0.72433076043E+03  0.72433076044E+03  0.25500000000E-02 0.  1.
          2   -1    0    0  501    0  0.00000000000E+00 -0.00000000000E+00 -0.17547906995E+04  0.17547906995E+04  0.25500000000E-02 0. -1.
    8880023    1    1    2    0    0  0.25547288431E+03 -0.54554019121E+03 -0.14686930068E+04  0.17186476804E+04  0.65864270000E+03 0. -1.
    8880022    1    1    2    0    0 -0.25547288431E+03  0.54554019121E+03  0.43823306767E+03  0.76047377960E+03  0.15294330000E+03 0.  0.
<mgrwt>
<rscale>  0 0.81535235E+03</rscale>
<asrwt>0</asrwt>
<pdfrwt beam="1">  1        2 0.26996780E+00 0.89257532E+03</pdfrwt>
<pdfrwt beam="2">  1       -2 0.11143550E+00 0.89257532E+03</pdfrwt>
<totfact> 0.58777911E+00</totfact>
</mgrwt>
</event>
<event>
 4    2  0.2930016E-007  0.8926836E+03  0.7818608E-02  0.9537880E-01
         -2   -1    0    0    0  501 -0.00000000000E+00  0.00000000000E+00  0.43545196432E+03  0.43545196432E+03  0.25500000000E-02 0.  1.
          2   -1    0    0  501    0  0.00000000000E+00 -0.00000000000E+00 -0.14259618143E+04  0.14259618143E+04  0.25500000000E-02 0. -1.
    8880023    1    1    2    0    0 -0.11327510017E+03 -0.59181290413E+03 -0.83100930397E+03  0.12196148701E+04  0.65864270000E+03 0.  0.
    8880022    1    1    2    0    0  0.11327510017E+03  0.59181290413E+03 -0.15950054604E+03  0.64179890855E+03  0.15294330000E+03 0.  0.
<mgrwt>
<rscale>  0 0.81547751E+03</rscale>
<asrwt>0</asrwt>
<pdfrwt beam="1">  1        2 0.21937874E+00 0.89268358E+03</pdfrwt>
<pdfrwt beam="2">  1       -2 0.66992611E-01 0.89268358E+03</pdfrwt>
<totfact> 0.28809247E+01</totfact>
</mgrwt>
</event>
<event>
 4    2  0.2930016E-007  0.7992896E+03  0.7818608E-02  0.9712334E-01
          2   -1    0    0  501    0  0.00000000000E+00  0.00000000000E+00  0.33227265444E+04  0.33227265444E+04  0.25500000000E-02 0. -1.
         -2   -1    0    0    0  501 -0.00000000000E+00 -0.00000000000E+00 -0.43141634063E+03  0.43141634064E+03  0.25500000000E-02 0.  1.
    8880023    1    1    2    0    0  0.74195421651E+02  0.44670866382E+03  0.31225206506E+04  0.32231970170E+04  0.65864270000E+03 0.  0.
    8880022    1    1    2    0    0 -0.74195421651E+02 -0.44670866382E+03 -0.23121044688E+03  0.53094586795E+03  0.15294330000E+03 0.  0.
<mgrwt>
<rscale>  0 0.70287140E+03</rscale>
<asrwt>0</asrwt>
<pdfrwt beam="1">  1        2 0.51118871E+00 0.79928956E+03</pdfrwt>
<pdfrwt beam="2">  1       -2 0.66371743E-01 0.79928956E+03</pdfrwt>
<totfact> 0.23987333E+00</totfact>
</mgrwt>
</event>
<event>
 4    2  0.2930016E-007  0.6938452E+03  0.7818608E-02  0.1002376E+00
          2   -1    0    0  501    0  0.00000000000E+00  0.00000000000E+00  0.47508433727E+03  0.47508433727E+03  0.25500000000E-02 0. -1.
         -2   -1    0    0    0  501 -0.00000000000E+00 -0.00000000000E+00 -0.51200590891E+03  0.51200590891E+03  0.25500000000E-02 0.  1.
    8880023    1    1    2    0    0 -0.12437233724E+03 -0.17928334094E+03  0.75382003989E+02  0.69792811048E+03  0.65864270000E+03 0. -1.
    8880022    1    1    2    0    0  0.12437233724E+03  0.17928334094E+03 -0.11230357563E+03  0.28916213570E+03  0.15294330000E+03 0.  0.
<mgrwt>
<rscale>  0 0.54620576E+03</rscale>
<asrwt>0</asrwt>
<pdfrwt beam="1">  1        2 0.73089898E-01 0.69384523E+03</pdfrwt>
<pdfrwt beam="2">  1       -2 0.78770140E-01 0.69384523E+03</pdfrwt>
<totfact> 0.94840447E+01</totfact>
</mgrwt>
</event>
<event>
 4    2  0.2930016E-007  0.8071984E+03  0.7818608E-02  0.9695442E-01
         -2   -1    0    0    0  501 -0.00000000000E+00  0.00000000000E+00  0.40461454304E+03  0.40461454305E+03  0.25500000000E-02 0.  1.
          2   -1    0    0  501    0  0.00000000000E+00 -0.00000000000E+00 -0.14831665021E+04  0.14831665021E+04  0.25500000000E-02 0. -1.
    8880023    1    1    2    0    0 -0.42143039341E+03  0.20038843310E+03 -0.11357649216E+04  0.13933884110E+04  0.65864270000E+03 0. -1.
    8880022    1    1    2    0    0  0.42143039341E+03 -0.20038843310E+03  0.57212962504E+02  0.49439263415E+03  0.15294330000E+03 0.  0.
<mgrwt>
<rscale>  0 0.71288801E+03</rscale>
<asrwt>0</asrwt>
<pdfrwt beam="1">  1        2 0.22817946E+00 0.80719843E+03</pdfrwt>
<pdfrwt beam="2">  1       -2 0.62248392E-01 0.80719843E+03</pdfrwt>
<totfact> 0.31591712E+01</totfact>
</mgrwt>
</event>
<event>
 4    2  0.2930016E-007  0.9786574E+03  0.7818608E-02  0.9410029E-01
         -2   -1    0    0    0  501 -0.00000000000E+00  0.00000000000E+00  0.81429505794E+03  0.81429505794E+03  0.25500000000E-02 0.  1.
          2   -1    0    0  501    0  0.00000000000E+00 -0.00000000000E+00 -0.16249323814E+04  0.16249323814E+04  0.25500000000E-02 0. -1.
    8880023    1    1    2    0    0  0.18062576029E+03  0.70095249308E+03 -0.12432251779E+04  0.15822070383E+04  0.65864270000E+03 0. -1.
    8880022    1    1    2    0    0 -0.18062576029E+03 -0.70095249308E+03  0.43258785449E+03  0.85702040099E+03  0.15294330000E+03 0.  0.
<mgrwt>
<rscale>  0 0.91254926E+03</rscale>
<asrwt>0</asrwt>
<pdfrwt beam="1">  1        2 0.24998960E+00 0.97865738E+03</pdfrwt>
<pdfrwt beam="2">  1       -2 0.12527616E+00 0.97865738E+03</pdfrwt>
<totfact> 0.51345477E+00</totfact>
</mgrwt>
</event>
<event>
 4    2  0.2930016E-007  0.8737675E+03  0.7818608E-02  0.9569528E-01
          2   -1    0    0  501    0  0.00000000000E+00  0.00000000000E+00  0.27363876117E+04  0.27363876117E+04  0.25500000000E-02 0. -1.
         -2   -1    0    0    0  501 -0.00000000000E+00 -0.00000000000E+00 -0.32637984877E+03  0.32637984878E+03  0.25500000000E-02 0.  1.
    8880023    1    1    2    0    0  0.33440726906E+03 -0.46672392975E+03  0.22974806155E+04  0.24580249862E+04  0.65864270000E+03 0. -1.
    8880022    1    1    2    0    0 -0.33440726906E+03  0.46672392975E+03  0.11252714743E+03  0.60474247422E+03  0.15294330000E+03 0.  0.
<mgrwt>
<rscale>  0 0.79346288E+03</rscale>
<asrwt>0</asrwt>
<pdfrwt beam="1">  1        2 0.42098274E+00 0.87376751E+03</pdfrwt>
<pdfrwt beam="2">  1       -2 0.50212281E-01 0.87376751E+03</pdfrwt>
<totfact> 0.98042006E+00</totfact>
</mgrwt>
</event>
<event>
 4    2  0.2930016E-007  0.9058587E+03  0.7818608E-02  0.9516691E-01
          2   -1    0    0  501    0  0.00000000000E+00  0.00000000000E+00  0.84882446148E+03  0.84882446148E+03  0.25500000000E-02 0. -1.
         -2   -1    0    0    0  501 -0.00000000000E+00 -0.00000000000E+00 -0.71357050890E+03  0.71357050891E+03  0.25500000000E-02 0.  1.
    8880023    1    1    2    0    0  0.60256321803E+03 -0.15390715329E+03 -0.90345637574E+01  0.90590378803E+03  0.65864270000E+03 0. -1.
    8880022    1    1    2    0    0 -0.60256321803E+03  0.15390715329E+03  0.14428851634E+03  0.65649118236E+03  0.15294330000E+03 0.  0.
<mgrwt>
<rscale>  0 0.83064359E+03</rscale>
<asrwt>0</asrwt>
<pdfrwt beam="1">  1        2 0.13058838E+00 0.90585874E+03</pdfrwt>
<pdfrwt beam="2">  1       -2 0.10978008E+00 0.90585874E+03</pdfrwt>
<totfact> 0.21014579E+01</totfact>
</mgrwt>
</event>
<event>
 4    2  0.2930016E-007  0.8269335E+03  0.7818608E-02  0.9655329E-01
          2   -1    0    0  501    0  0.00000000000E+00  0.00000000000E+00  0.16224510632E+04  0.16224510632E+04  0.25500000000E-02 0. -1.
         -2   -1    0    0    0  501 -0.00000000000E+00 -0.00000000000E+00 -0.39223709496E+03  0.39223709497E+03  0.25500000000E-02 0.  1.
    8880023    1    1    2    0    0 -0.28236361023E+03 -0.41264943049E+03  0.18706341239E+03  0.84782762835E+03  0.65864270000E+03 0.  0.
    8880022    1    1    2    0    0  0.28236361023E+03  0.41264943049E+03  0.10431505559E+04  0.11668605298E+04  0.15294330000E+03 0.  0.
<mgrwt>
<rscale>  0 0.73739948E+03</rscale>
<asrwt>0</asrwt>
<pdfrwt beam="1">  1        2 0.24960786E+00 0.82693347E+03</pdfrwt>
<pdfrwt beam="2">  1       -2 0.60344169E-01 0.82693347E+03</pdfrwt>
<totfact> 0.28181211E+01</totfact>
</mgrwt>
</event>
<event>
 4    2  0.2930016E-007  0.7729197E+03  0.7818608E-02  0.9772739E-01
         -2   -1    0    0    0  501 -0.00000000000E+00  0.00000000000E+00  0.37964803040E+03  0.37964803040E+03  0.25500000000E-02 0.  1.
          2   -1    0    0  501    0  0.00000000000E+00 -0.00000000000E+00 -0.95706633813E+03  0.95706633813E+03  0.25500000000E-02 0. -1.
    8880023    1    1    2    0    0 -0.37833994115E+03 -0.14301583963E+03 -0.38272887231E+03  0.86248839842E+03  0.65864270000E+03 0. -1.
    8880022    1    1    2    0    0  0.37833994115E+03  0.14301583963E+03 -0.19468943542E+03  0.47422597011E+03  0.15294330000E+03 0.  1.
<mgrwt>
<rscale>  0 0.66846243E+03</rscale>
<asrwt>0</asrwt>
<pdfrwt beam="1">  1        2 0.14724097E+00 0.77291969E+03</pdfrwt>
<pdfrwt beam="2">  1       -2 0.58407390E-01 0.77291969E+03</pdfrwt>
<totfact> 0.74547252E+01</totfact>
</mgrwt>
</event>
<event>
 4    2  0.2930016E-007  0.6865458E+03  0.7818608E-02  0.1005839E+00
          2   -1    0    0  501    0  0.00000000000E+00  0.00000000000E+00  0.11778402746E+04  0.11778402746E+04  0.25500000000E-02 0. -1.
         -2   -1    0    0    0  501 -0.00000000000E+00 -0.00000000000E+00 -0.35271902598E+03  0.35271902599E+03  0.25500000000E-02 0.  1.
    8880023    1    1    2    0    0 -0.41773136683E+02  0.18918238288E+03  0.10106432262E+04  0.12217794015E+04  0.65864270000E+03 0. -1.
    8880022    1    1    2    0    0  0.41773136683E+02 -0.18918238288E+03 -0.18552197756E+03  0.30877989914E+03  0.15294330000E+03 0.  0.
<mgrwt>
<rscale>  0 0.53162211E+03</rscale>
<asrwt>0</asrwt>
<pdfrwt beam="1">  1        2 0.18120619E+00 0.68654583E+03</pdfrwt>
<pdfrwt beam="2">  1       -2 0.54264466E-01 0.68654583E+03</pdfrwt>
<totfact> 0.63863730E+01</totfact>
</mgrwt>
</event>
<event>
 4    2  0.2930016E-007  0.1152814E+04  0.7818608E-02  0.9204413E-01
          2   -1    0    0  501    0  0.00000000000E+00  0.00000000000E+00  0.15770651935E+04  0.15770651935E+04  0.25500000000E-02 0. -1.
         -2   -1    0    0    0  501 -0.00000000000E+00 -0.00000000000E+00 -0.12748015683E+04  0.12748015683E+04  0.25500000000E-02 0.  1.
    8880023    1    1    2    0    0 -0.47171460493E+03 -0.82015578876E+03  0.11086047224E+04  0.15993701333E+04  0.65864270000E+03 0.  0.
    8880022    1    1    2    0    0  0.47171460493E+03  0.82015578876E+03 -0.80634109722E+03  0.12524966285E+04  0.15294330000E+03 0.  0.
<mgrwt>
<rscale>  0 0.11007990E+04</rscale>
<asrwt>0</asrwt>
<pdfrwt beam="1">  1        2 0.24262542E+00 0.11528141E+04</pdfrwt>
<pdfrwt beam="2">  1       -2 0.19612332E+00 0.11528141E+04</pdfrwt>
<totfact> 0.15804312E+00</totfact>
</mgrwt>
</event>
<event>
 4    2  0.2930016E-007  0.8886347E+03  0.7818608E-02  0.9544528E-01
          2   -1    0    0  501    0  0.00000000000E+00  0.00000000000E+00  0.19533378448E+04  0.19533378448E+04  0.25500000000E-02 0. -1.
         -2   -1    0    0    0  501 -0.00000000000E+00 -0.00000000000E+00 -0.36820120015E+03  0.36820120016E+03  0.25500000000E-02 0.  1.
    8880023    1    1    2    0    0  0.29874986034E+02 -0.59579269092E+03  0.14346725346E+04  0.16875890889E+04  0.65864270000E+03 0.  0.
    8880022    1    1    2    0    0 -0.29874986034E+02  0.59579269092E+03  0.15046411011E+03  0.63394995606E+03  0.15294330000E+03 0.  0.
<mgrwt>
<rscale>  0 0.81079040E+03</rscale>
<asrwt>0</asrwt>
<pdfrwt beam="1">  1        2 0.30051352E+00 0.88863471E+03</pdfrwt>
<pdfrwt beam="2">  1       -2 0.56646338E-01 0.88863471E+03</pdfrwt>
<totfact> 0.21048985E+01</totfact>
</mgrwt>
</event>
<event>
 4    2  0.2930016E-007  0.6703562E+03  0.7818608E-02  0.1015409E+00
         -2   -1    0    0    0  501 -0.00000000000E+00  0.00000000000E+00  0.10809334048E+04  0.10809334048E+04  0.25500000000E-02 0.  1.
          2   -1    0    0  501    0  0.00000000000E+00 -0.00000000000E+00 -0.43685903018E+03  0.43685903019E+03  0.25500000000E-02 0. -1.
    8880023    1    1    2    0    0 -0.94648979668E+02  0.81294895578E+02 -0.16054858734E+03  0.68931367646E+03  0.65864270000E+03 0. -1.
    8880022    1    1    2    0    0  0.94648979668E+02 -0.81294895578E+02  0.80462296191E+03  0.82847875848E+03  0.15294330000E+03 0.  0.
<mgrwt>
<rscale>  0 0.49380461E+03</rscale>
<asrwt>0</asrwt>
<pdfrwt beam="1">  1        2 0.67209083E-01 0.67035625E+03</pdfrwt>
<pdfrwt beam="2">  1       -2 0.16629744E+00 0.67035625E+03</pdfrwt>
<totfact> 0.16663551E+01</totfact>
</mgrwt>
</event>
<event>
 4    2  0.2930016E-007  0.9382502E+03  0.7818608E-02  0.9467225E-01
          2   -1    0    0  501    0  0.00000000000E+00  0.00000000000E+00  0.14042678434E+04  0.14042678434E+04  0.25500000000E-02 0. -1.
         -2   -1    0    0    0  501 -0.00000000000E+00 -0.00000000000E+00 -0.12888935970E+04  0.12888935970E+04  0.25500000000E-02 0.  1.
    8880023    1    1    2    0    0 -0.59889435223E+03 -0.29635916081E+03  0.11299575994E+04  0.14687128991E+04  0.65864270000E+03 0. -1.
    8880022    1    1    2    0    0  0.59889435223E+03  0.29635916081E+03 -0.10145833529E+04  0.12244485413E+04  0.15294330000E+03 0.  0.
<mgrwt>
<rscale>  0 0.86743927E+03</rscale>
<asrwt>0</asrwt>
<pdfrwt beam="1">  1        2 0.21604121E+00 0.93825018E+03</pdfrwt>
<pdfrwt beam="2">  1       -2 0.19829132E+00 0.93825018E+03</pdfrwt>
<totfact> 0.19661109E+00</totfact>
</mgrwt>
</event>
<event>
 4    2  0.2930016E-007  0.1066048E+04  0.7818608E-02  0.9299834E-01
         -2   -1    0    0    0  501 -0.00000000000E+00  0.00000000000E+00  0.87411121178E+03  0.87411121179E+03  0.25500000000E-02 0.  1.
          2   -1    0    0  501    0  0.00000000000E+00 -0.00000000000E+00 -0.11706332527E+04  0.11706332527E+04  0.25500000000E-02 0. -1.
    8880023    1    1    2    0    0  0.93214144874E+02  0.83304198742E+03 -0.48639342386E+03  0.11717664437E+04  0.65864270000E+03 0. -1.
    8880022    1    1    2    0    0 -0.93214144874E+02 -0.83304198742E+03  0.18987138296E+03  0.87297802074E+03  0.15294330000E+03 0.  1.
<mgrwt>
<rscale>  0 0.10079815E+04</rscale>
<asrwt>0</asrwt>
<pdfrwt beam="1">  1        2 0.18009742E+00 0.10660479E+04</pdfrwt>
<pdfrwt beam="2">  1       -2 0.13447865E+00 0.10660479E+04</pdfrwt>
<totfact> 0.77476164E+00</totfact>
</mgrwt>
</event>
<event>
 4    2  0.2930016E-007  0.7850156E+03  0.7818608E-02  0.9744184E-01
          2   -1    0    0  501    0  0.00000000000E+00  0.00000000000E+00  0.14067992373E+04  0.14067992373E+04  0.25500000000E-02 0. -1.
         -2   -1    0    0    0  501 -0.00000000000E+00 -0.00000000000E+00 -0.28861548164E+03  0.28861548166E+03  0.25500000000E-02 0.  1.
    8880023    1    1    2    0    0  0.27855509197E+02  0.42621991873E+03  0.50799159767E+03  0.93504278944E+03  0.65864270000E+03 0.  1.
    8880022    1    1    2    0    0 -0.27855509197E+02 -0.42621991873E+03  0.61019215800E+03  0.76037192953E+03  0.15294330000E+03 0.  0.
<mgrwt>
<rscale>  0 0.68445922E+03</rscale>
<asrwt>0</asrwt>
<pdfrwt beam="1">  1        2 0.21643065E+00 0.78501564E+03</pdfrwt>
<pdfrwt beam="2">  1       -2 0.44402382E-01 0.78501564E+03</pdfrwt>
<totfact> 0.70068240E+01</totfact>
</mgrwt>
</event>
<event>
 4    2  0.2930016E-007  0.1192087E+04  0.7818608E-02  0.9164853E-01
          2   -1    0    0  501    0  0.00000000000E+00  0.00000000000E+00  0.14247703977E+04  0.14247703977E+04  0.25500000000E-02 0. -1.
         -2   -1    0    0    0  501 -0.00000000000E+00 -0.00000000000E+00 -0.12819688626E+04  0.12819688626E+04  0.25500000000E-02 0.  1.
    8880023    1    1    2    0    0 -0.21919397323E+03 -0.96913093980E+03 -0.71080321212E+03  0.13879164921E+04  0.65864270000E+03 0.  1.
    8880022    1    1    2    0    0  0.21919397323E+03  0.96913093980E+03  0.85360474719E+03  0.13188227682E+04  0.15294330000E+03 0.  0.
<mgrwt>
<rscale>  0 0.11423683E+04</rscale>
<asrwt>0</asrwt>
<pdfrwt beam="1">  1        2 0.21919544E+00 0.11920868E+04</pdfrwt>
<pdfrwt beam="2">  1       -2 0.19722598E+00 0.11920868E+04</pdfrwt>
<totfact> 0.18866512E+00</totfact>
</mgrwt>
</event>
<event>
 4    2  0.2930016E-007  0.7006849E+03  0.7818608E-02  0.9994372E-01
          2   -1    0    0  501    0  0.00000000000E+00  0.00000000000E+00  0.21063403002E+04  0.21063403002E+04  0.25500000000E-02 0. -1.
         -2   -1    0    0    0  501 -0.00000000000E+00 -0.00000000000E+00 -0.12766133059E+03  0.12766133062E+03  0.25500000000E-02 0.  1.
    8880023    1    1    2    0    0  0.17031719815E+02  0.23845120947E+03  0.16885134774E+04  0.18281239095E+04  0.65864270000E+03 0.  0.
    8880022    1    1    2    0    0 -0.17031719815E+02 -0.23845120947E+03  0.29016549213E+03  0.40587772126E+03  0.15294330000E+03 0.  0.
<mgrwt>
<rscale>  0 0.55897705E+03</rscale>
<asrwt>0</asrwt>
<pdfrwt beam="1">  1        2 0.32405233E+00 0.70068485E+03</pdfrwt>
<pdfrwt beam="2">  1       -2 0.19640206E-01 0.70068485E+03</pdfrwt>
<totfact> 0.13260370E+02</totfact>
</mgrwt>
</event>
<event>
 4    2  0.2930016E-007  0.6718509E+03  0.7818608E-02  0.1014369E+00
          2   -1    0    0  501    0  0.00000000000E+00  0.00000000000E+00  0.77008125319E+03  0.77008125320E+03  0.25500000000E-02 0. -1.
         -2   -1    0    0    0  501 -0.00000000000E+00 -0.00000000000E+00 -0.28930288576E+03  0.28930288577E+03  0.25500000000E-02 0.  1.
    8880023    1    1    2    0    0 -0.12611287362E+03 -0.40852360806E+02  0.52447248486E+03  0.85232327548E+03  0.65864270000E+03 0. -1.
    8880022    1    1    2    0    0  0.12611287362E+03  0.40852360806E+02 -0.43694117429E+02  0.20706086349E+03  0.15294330000E+03 0.  0.
<mgrwt>
<rscale>  0 0.49774432E+03</rscale>
<asrwt>0</asrwt>
<pdfrwt beam="1">  1        2 0.11847404E+00 0.67185086E+03</pdfrwt>
<pdfrwt beam="2">  1       -2 0.44508137E-01 0.67185086E+03</pdfrwt>
<totfact> 0.17596216E+02</totfact>
</mgrwt>
</event>
<event>
 4    2  0.2930016E-007  0.1109412E+04  0.7818608E-02  0.9250648E-01
          2   -1    0    0  501    0  0.00000000000E+00  0.00000000000E+00  0.74254812225E+03  0.74254812225E+03  0.25500000000E-02 0. -1.
         -2   -1    0    0    0  501 -0.00000000000E+00 -0.00000000000E+00 -0.25100828138E+04  0.25100828138E+04  0.25500000000E-02 0.  1.
    8880023    1    1    2    0    0 -0.76568419512E+03  0.45903550657E+03  0.16191284292E+03  0.11211654017E+04  0.65864270000E+03 0.  0.
    8880022    1    1    2    0    0  0.76568419512E+03 -0.45903550657E+03 -0.19294475345E+04  0.21314655344E+04  0.15294330000E+03 0.  0.
<mgrwt>
<rscale>  0 0.10545605E+04</rscale>
<asrwt>0</asrwt>
<pdfrwt beam="1">  1        2 0.11423817E+00 0.11094125E+04</pdfrwt>
<pdfrwt beam="2">  1       -2 0.38616658E+00 0.11094125E+04</pdfrwt>
<totfact> 0.34719639E-01</totfact>
</mgrwt>
</event>
<event>
 4    2  0.2930016E-007  0.9285681E+03  0.7818608E-02  0.9481645E-01
          2   -1    0    0  501    0  0.00000000000E+00  0.00000000000E+00  0.12979416162E+04  0.12979416162E+04  0.25500000000E-02 0. -1.
         -2   -1    0    0    0  501 -0.00000000000E+00 -0.00000000000E+00 -0.49355898830E+03  0.49355898831E+03  0.25500000000E-02 0.  1.
    8880023    1    1    2    0    0  0.20178237224E+03 -0.62266554916E+03  0.47096892081E+03  0.10411774308E+04  0.65864270000E+03 0.  1.
    8880022    1    1    2    0    0 -0.20178237224E+03  0.62266554916E+03  0.33341370708E+03  0.75032317367E+03  0.15294330000E+03 0. -1.
<mgrwt>
<rscale>  0 0.85650721E+03</rscale>
<asrwt>0</asrwt>
<pdfrwt beam="1">  1        2 0.19968333E+00 0.92856810E+03</pdfrwt>
<pdfrwt beam="2">  1       -2 0.75932151E-01 0.92856810E+03</pdfrwt>
<totfact> 0.25817885E+01</totfact>
</mgrwt>
</event>
<event>
 4    2  0.2930016E-007  0.8462631E+03  0.7818608E-02  0.9618482E-01
          2   -1    0    0  501    0  0.00000000000E+00  0.00000000000E+00  0.63258633855E+03  0.63258633855E+03  0.25500000000E-02 0. -1.
         -2   -1    0    0    0  501 -0.00000000000E+00 -0.00000000000E+00 -0.14158243598E+04  0.14158243598E+04  0.25500000000E-02 0.  1.
    8880023    1    1    2    0    0  0.35756190380E+03 -0.39306562503E+03  0.24492534841E+03  0.88099360565E+03  0.65864270000E+03 0.  0.
    8880022    1    1    2    0    0 -0.35756190380E+03  0.39306562503E+03 -0.10281633697E+04  0.11674170927E+04  0.15294330000E+03 0.  0.
<mgrwt>
<rscale>  0 0.76084921E+03</rscale>
<asrwt>0</asrwt>
<pdfrwt beam="1">  1        2 0.97320975E-01 0.84626314E+03</pdfrwt>
<pdfrwt beam="2">  1       -2 0.21781913E+00 0.84626314E+03</pdfrwt>
<totfact> 0.47989924E+00</totfact>
</mgrwt>
</event>
<event>
 4    2  0.2930016E-007  0.7904799E+03  0.7818608E-02  0.9731771E-01
         -2   -1    0    0    0  501 -0.00000000000E+00  0.00000000000E+00  0.77015988504E+03  0.77015988505E+03  0.25500000000E-02 0.  1.
          2   -1    0    0  501    0  0.00000000000E+00 -0.00000000000E+00 -0.73250596101E+03  0.73250596101E+03  0.25500000000E-02 0. -1.
    8880023    1    1    2    0    0  0.30633468366E+03  0.31178099065E+03 -0.38180488873E+03  0.87785733685E+03  0.65864270000E+03 0.  0.
    8880022    1    1    2    0    0 -0.30633468366E+03 -0.31178099065E+03  0.41945881277E+03  0.62480850920E+03  0.15294330000E+03 0.  0.
<mgrwt>
<rscale>  0 0.69156238E+03</rscale>
<asrwt>0</asrwt>
<pdfrwt beam="1">  1        2 0.11269323E+00 0.79047994E+03</pdfrwt>
<pdfrwt beam="2">  1       -2 0.11848614E+00 0.79047994E+03</pdfrwt>
<totfact> 0.21405287E+01</totfact>
</mgrwt>
</event>
<event>
 4    2  0.2930016E-007  0.7571987E+03  0.7818608E-02  0.9812414E-01
         -2   -1    0    0    0  501 -0.00000000000E+00  0.00000000000E+00  0.22590462885E+03  0.22590462886E+03  0.25500000000E-02 0.  1.
          2   -1    0    0  501    0  0.00000000000E+00 -0.00000000000E+00 -0.28022296784E+04  0.28022296784E+04  0.25500000000E-02 0. -1.
    8880023    1    1    2    0    0  0.33424236897E+03  0.16679845316E+03 -0.25066474878E+04  0.26185170459E+04  0.65864270000E+03 0. -1.
    8880022    1    1    2    0    0 -0.33424236897E+03 -0.16679845316E+03 -0.69677561739E+02  0.40961726137E+03  0.15294330000E+03 0.  0.
<mgrwt>
<rscale>  0 0.64700551E+03</rscale>
<asrwt>0</asrwt>
<pdfrwt beam="1">  1        2 0.43111223E+00 0.75719871E+03</pdfrwt>
<pdfrwt beam="2">  1       -2 0.34754560E-01 0.75719871E+03</pdfrwt>
<totfact> 0.18842057E+01</totfact>
</mgrwt>
</event>
<event>
 4    2  0.2930016E-007  0.6677095E+03  0.7818608E-02  0.1017361E+00
          2   -1    0    0  501    0  0.00000000000E+00  0.00000000000E+00  0.97786901258E+03  0.97786901258E+03  0.25500000000E-02 0. -1.
         -2   -1    0    0    0  501 -0.00000000000E+00 -0.00000000000E+00 -0.37229293742E+03  0.37229293743E+03  0.25500000000E-02 0.  1.
    8880023    1    1    2    0    0  0.85966172102E+01 -0.10932464509E+03  0.82482970895E+03  0.10612162998E+04  0.65864270000E+03 0.  0.
    8880022    1    1    2    0    0 -0.85966172102E+01  0.10932464509E+03 -0.21925363379E+03  0.28894565025E+03  0.15294330000E+03 0.  0.
<mgrwt>
<rscale>  0 0.48651116E+03</rscale>
<asrwt>0</asrwt>
<pdfrwt beam="1">  1        2 0.15044138E+00 0.66770951E+03</pdfrwt>
<pdfrwt beam="2">  1       -2 0.57275838E-01 0.66770951E+03</pdfrwt>
<totfact> 0.75938782E+01</totfact>
</mgrwt>
</event>
<event>
 4    2  0.2930016E-007  0.9110815E+03  0.7818608E-02  0.9508471E-01
         -2   -1    0    0    0  501 -0.00000000000E+00  0.00000000000E+00  0.55384518255E+03  0.55384518256E+03  0.25500000000E-02 0.  1.
          2   -1    0    0  501    0  0.00000000000E+00 -0.00000000000E+00 -0.16405484353E+04  0.16405484353E+04  0.25500000000E-02 0. -1.
    8880023    1    1    2    0    0  0.55806049774E+03  0.29125222698E+03 -0.12302481453E+04  0.15308755939E+04  0.65864270000E+03 0. -1.
    8880022    1    1    2    0    0 -0.55806049774E+03 -0.29125222698E+03  0.14354489256E+03  0.66351802391E+03  0.15294330000E+03 0.  0.
<mgrwt>
<rscale>  0 0.83662141E+03</rscale>
<asrwt>0</asrwt>
<pdfrwt beam="1">  1        2 0.25239206E+00 0.91108155E+03</pdfrwt>
<pdfrwt beam="2">  1       -2 0.85206952E-01 0.91108155E+03</pdfrwt>
<totfact> 0.12773642E+01</totfact>
</mgrwt>
</event>
<event>
 4    2  0.2930016E-007  0.1086361E+04  0.7818608E-02  0.9276396E-01
         -2   -1    0    0    0  501 -0.00000000000E+00  0.00000000000E+00  0.41086744985E+03  0.41086744986E+03  0.25500000000E-02 0.  1.
          2   -1    0    0  501    0  0.00000000000E+00 -0.00000000000E+00 -0.29154172605E+04  0.29154172605E+04  0.25500000000E-02 0. -1.
    8880023    1    1    2    0    0  0.29160946846E+02  0.86343467374E+03 -0.20909522459E+04  0.23563236827E+04  0.65864270000E+03 0.  0.
    8880022    1    1    2    0    0 -0.29160946846E+02 -0.86343467374E+03 -0.41359756474E+03  0.96996102768E+03  0.15294330000E+03 0.  0.
<mgrwt>
<rscale>  0 0.10298527E+04</rscale>
<asrwt>0</asrwt>
<pdfrwt beam="1">  1        2 0.44852572E+00 0.10863609E+04</pdfrwt>
<pdfrwt beam="2">  1       -2 0.63210379E-01 0.10863609E+04</pdfrwt>
<totfact> 0.45953340E+00</totfact>
</mgrwt>
</event>
<event>
 4    2  0.3373910E-007  0.7701414E+03  0.7818608E-02  0.9779526E-01
          2   -1    0    0  501    0  0.00000000000E+00  0.00000000000E+00  0.19229596021E+04  0.19229596021E+04  0.25500000000E-02 0. -1.
         -2   -1    0    0    0  501 -0.00000000000E+00 -0.00000000000E+00 -0.12164647250E+04  0.12164647250E+04  0.25500000000E-02 0.  1.
    8880023    1    1    2    0    0  0.59473098154E+02  0.39467782464E+03  0.18040591417E+04  0.19615675435E+04  0.65864270000E+03 0. -1.
    8880022    1    1    2    0    0 -0.59473098154E+02 -0.39467782464E+03 -0.10975642646E+04  0.11778567836E+04  0.15294330000E+03 0.  0.
<mgrwt>
<rscale>  0 0.66472954E+03</rscale>
<asrwt>0</asrwt>
<pdfrwt beam="1">  1        2 0.29583994E+00 0.77014144E+03</pdfrwt>
<pdfrwt beam="2">  1       -2 0.18714842E+00 0.77014144E+03</pdfrwt>
<totfact> 0.12375710E+00</totfact>
</mgrwt>
</event>
<event>
 4    2  0.2930016E-007  0.9126709E+03  0.7818608E-02  0.9505989E-01
         -2   -1    0    0    0  501 -0.00000000000E+00  0.00000000000E+00  0.28556180535E+04  0.28556180535E+04  0.25500000000E-02 0.  1.
          2   -1    0    0  501    0  0.00000000000E+00 -0.00000000000E+00 -0.26027237837E+03  0.26027237839E+03  0.25500000000E-02 0. -1.
    8880023    1    1    2    0    0 -0.51123632160E+03  0.37120800874E+03  0.82614164837E+03  0.12310475993E+04  0.65864270000E+03 0.  0.
    8880022    1    1    2    0    0  0.51123632160E+03 -0.37120800874E+03  0.17692040267E+04  0.18848428326E+04  0.15294330000E+03 0.  0.
<mgrwt>
<rscale>  0 0.83843687E+03</rscale>
<asrwt>0</asrwt>
<pdfrwt beam="1">  1        2 0.40041907E-01 0.91267090E+03</pdfrwt>
<pdfrwt beam="2">  1       -2 0.43932582E+00 0.91267090E+03</pdfrwt>
<totfact> 0.54477205E-01</totfact>
</mgrwt>
</event>
<event>
 4    2  0.2930016E-007  0.7982753E+03  0.7818608E-02  0.9714538E-01
         -2   -1    0    0    0  501 -0.00000000000E+00  0.00000000000E+00  0.13702354208E+03  0.13702354210E+03  0.25500000000E-02 0.  1.
          2   -1    0    0  501    0  0.00000000000E+00 -0.00000000000E+00 -0.30106751923E+04  0.30106751923E+04  0.25500000000E-02 0. -1.
    8880023    1    1    2    0    0  0.43104251855E+03 -0.13279906766E+03 -0.19842946805E+04  0.21388475473E+04  0.65864270000E+03 0.  0.
    8880022    1    1    2    0    0 -0.43104251855E+03  0.13279906766E+03 -0.88935696975E+03  0.10088511872E+04  0.15294330000E+03 0. -1.
<mgrwt>
<rscale>  0 0.70157783E+03</rscale>
<asrwt>0</asrwt>
<pdfrwt beam="1">  1        2 0.46318075E+00 0.79827530E+03</pdfrwt>
<pdfrwt beam="2">  1       -2 0.21080547E-01 0.79827530E+03</pdfrwt>
<totfact> 0.34998735E+01</totfact>
</mgrwt>
</event>
<event>
 4    2  0.2930016E-007  0.7239400E+03  0.7818608E-02  0.9909473E-01
         -2   -1    0    0    0  501 -0.00000000000E+00  0.00000000000E+00  0.17404114742E+03  0.17404114744E+03  0.25500000000E-02 0.  1.
          2   -1    0    0  501    0  0.00000000000E+00 -0.00000000000E+00 -0.21208213634E+04  0.21208213634E+04  0.25500000000E-02 0. -1.
    8880023    1    1    2    0    0 -0.13417089410E+02 -0.30016482923E+03 -0.17739764604E+04  0.19160066887E+04  0.65864270000E+03 0. -1.
    8880022    1    1    2    0    0  0.13417089410E+02  0.30016482923E+03 -0.17280375560E+03  0.37885582213E+03  0.15294330000E+03 0.  1.
<mgrwt>
<rscale>  0 0.59804375E+03</rscale>
<asrwt>0</asrwt>
<pdfrwt beam="1">  1        2 0.32628019E+00 0.72394002E+03</pdfrwt>
<pdfrwt beam="2">  1       -2 0.26775563E-01 0.72394002E+03</pdfrwt>
<totfact> 0.74763303E+01</totfact>
</mgrwt>
</event>
<event>
 4    2  0.2930016E-007  0.1106341E+04  0.7818608E-02  0.9254029E-01
         -2   -1    0    0    0  501 -0.00000000000E+00  0.00000000000E+00  0.83364103761E+03  0.83364103762E+03  0.25500000000E-02 0.  1.
          2   -1    0    0  501    0  0.00000000000E+00 -0.00000000000E+00 -0.15152563132E+04  0.15152563132E+04  0.25500000000E-02 0. -1.
    8880023    1    1    2    0    0  0.51304520121E+03 -0.72592359353E+03 -0.89382053518E+03  0.14222889290E+04  0.65864270000E+03 0.  0.
    8880022    1    1    2    0    0 -0.51304520121E+03  0.72592359353E+03  0.21220525963E+03  0.92660842180E+03  0.15294330000E+03 0.  0.
<mgrwt>
<rscale>  0 0.10512749E+04</rscale>
<asrwt>0</asrwt>
<pdfrwt beam="1">  1        2 0.23311636E+00 0.11063411E+04</pdfrwt>
<pdfrwt beam="2">  1       -2 0.12825247E+00 0.11063411E+04</pdfrwt>
<totfact> 0.54963510E+00</totfact>
</mgrwt>
</event>
<event>
 4    2  0.2930016E-007  0.7334383E+03  0.7818608E-02  0.9879490E-01
          2   -1    0    0  501    0  0.00000000000E+00  0.00000000000E+00  0.76531906290E+03  0.76531906291E+03  0.25500000000E-02 0. -1.
         -2   -1    0    0    0  501 -0.00000000000E+00 -0.00000000000E+00 -0.10999563512E+04  0.10999563512E+04  0.25500000000E-02 0.  1.
    8880023    1    1    2    0    0 -0.20041172196E+03 -0.25289649918E+03  0.54641819188E+03  0.91460622361E+03  0.65864270000E+03 0. -1.
    8880022    1    1    2    0    0  0.20041172196E+03  0.25289649918E+03 -0.88105548014E+03  0.95066919046E+03  0.15294330000E+03 0.  0.
<mgrwt>
<rscale>  0 0.61265651E+03</rscale>
<asrwt>0</asrwt>
<pdfrwt beam="1">  1        2 0.11774139E+00 0.73343828E+03</pdfrwt>
<pdfrwt beam="2">  1       -2 0.16922405E+00 0.73343828E+03</pdfrwt>
<totfact> 0.80382706E+00</totfact>
</mgrwt>
</event>
<event>
 4    2  0.2930016E-007  0.8468999E+03  0.7818608E-02  0.9617305E-01
         -2   -1    0    0    0  501 -0.00000000000E+00  0.00000000000E+00  0.68564064646E+03  0.68564064647E+03  0.25500000000E-02 0.  1.
          2   -1    0    0  501    0  0.00000000000E+00 -0.00000000000E+00 -0.12392797583E+04  0.12392797583E+04  0.25500000000E-02 0. -1.
    8880023    1    1    2    0    0  0.52616604495E+03  0.81107938460E+02 -0.92800872487E+03  0.12563596636E+04  0.65864270000E+03 0.  0.
    8880022    1    1    2    0    0 -0.52616604495E+03 -0.81107938460E+02  0.37436961302E+03  0.66856074122E+03  0.15294330000E+03 0.  0.
<mgrwt>
<rscale>  0 0.76161355E+03</rscale>
<asrwt>0</asrwt>
<pdfrwt beam="1">  1        2 0.19065842E+00 0.84689988E+03</pdfrwt>
<pdfrwt beam="2">  1       -2 0.10548318E+00 0.84689988E+03</pdfrwt>
<totfact> 0.13164101E+01</totfact>
</mgrwt>
</event>
<event>
 4    2  0.3090396E-007  0.1412584E+04  0.7818608E-02  0.8973966E-01
          2   -1    0    0  501    0  0.00000000000E+00  0.00000000000E+00  0.20266841224E+04  0.20266841224E+04  0.25500000000E-02 0. -1.
         -2   -1    0    0    0  501 -0.00000000000E+00 -0.00000000000E+00 -0.21448432836E+04  0.21448432836E+04  0.25500000000E-02 0.  1.
    8880023    1    1    2    0    0 -0.94253400610E+03  0.82049513426E+03  0.15399049411E+04  0.20896650574E+04  0.65864270000E+03 0.  0.
    8880022    1    1    2    0    0  0.94253400610E+03 -0.82049513426E+03 -0.16580641024E+04  0.20818623486E+04  0.15294330000E+03 0.  0.
<mgrwt>
<rscale>  0 0.13725034E+04</rscale>
<asrwt>0</asrwt>
<pdfrwt beam="1">  1        2 0.31179756E+00 0.14125837E+04</pdfrwt>
<pdfrwt beam="2">  1       -2 0.32997589E+00 0.14125837E+04</pdfrwt>
<totfact> 0.12731845E-01</totfact>
</mgrwt>
</event>
<event>
 4    2  0.2930016E-007  0.1060667E+04  0.7818608E-02  0.9306167E-01
          2   -1    0    0  501    0  0.00000000000E+00  0.00000000000E+00  0.18511505841E+04  0.18511505841E+04  0.25500000000E-02 0. -1.
         -2   -1    0    0    0  501 -0.00000000000E+00 -0.00000000000E+00 -0.79595781806E+03  0.79595781806E+03  0.25500000000E-02 0.  1.
    8880023    1    1    2    0    0 -0.82446680118E+03 -0.10704472189E+03  0.13808644704E+04  0.17412067570E+04  0.65864270000E+03 0.  0.
    8880022    1    1    2    0    0  0.82446680118E+03  0.10704472189E+03 -0.32567170434E+03  0.90590164519E+03  0.15294330000E+03 0.  0.
<mgrwt>
<rscale>  0 0.10021710E+04</rscale>
<asrwt>0</asrwt>
<pdfrwt beam="1">  1        2 0.28479239E+00 0.10606669E+04</pdfrwt>
<pdfrwt beam="2">  1       -2 0.12245505E+00 0.10606669E+04</pdfrwt>
<totfact> 0.40393872E+00</totfact>
</mgrwt>
</event>
<event>
 4    2  0.2930016E-007  0.8974194E+03  0.7818608E-02  0.9530187E-01
         -2   -1    0    0    0  501 -0.00000000000E+00  0.00000000000E+00  0.69459517885E+03  0.69459517885E+03  0.25500000000E-02 0.  1.
          2   -1    0    0  501    0  0.00000000000E+00 -0.00000000000E+00 -0.16606014522E+04  0.16606014522E+04  0.25500000000E-02 0. -1.
    8880023    1    1    2    0    0  0.66802667004E+02  0.60587857757E+03 -0.13482665336E+04  0.16196247401E+04  0.65864270000E+03 0. -1.
    8880022    1    1    2    0    0 -0.66802667004E+02 -0.60587857757E+03  0.38226026024E+03  0.73557189088E+03  0.15294330000E+03 0.  0.
<mgrwt>
<rscale>  0 0.82094379E+03</rscale>
<asrwt>0</asrwt>
<pdfrwt beam="1">  1        2 0.25547715E+00 0.89741944E+03</pdfrwt>
<pdfrwt beam="2">  1       -2 0.10686080E+00 0.89741944E+03</pdfrwt>
<totfact> 0.73271573E+00</totfact>
</mgrwt>
</event>
<event>
 4    2  0.2930016E-007  0.8058766E+03  0.7818608E-02  0.9698231E-01
          2   -1    0    0  501    0  0.00000000000E+00  0.00000000000E+00  0.33628755273E+04  0.33628755273E+04  0.25500000000E-02 0. -1.
         -2   -1    0    0    0  501 -0.00000000000E+00 -0.00000000000E+00 -0.25362997488E+03  0.25362997490E+03  0.25500000000E-02 0.  1.
    8880023    1    1    2    0    0 -0.41116054961E+03 -0.21580970098E+03  0.30121136874E+04  0.31180548258E+04  0.65864270000E+03 0.  0.
    8880022    1    1    2    0    0  0.41116054961E+03  0.21580970098E+03  0.97131865026E+02  0.49845067641E+03  0.15294330000E+03 0.  1.
<mgrwt>
<rscale>  0 0.71122224E+03</rscale>
<asrwt>0</asrwt>
<pdfrwt beam="1">  1        2 0.51736546E+00 0.80587656E+03</pdfrwt>
<pdfrwt beam="2">  1       -2 0.39019997E-01 0.80587656E+03</pdfrwt>
<totfact> 0.66870237E+00</totfact>
</mgrwt>
</event>
<event>
 4    2  0.2930016E-007  0.6602960E+03  0.7818608E-02  0.1023855E+00
         -2   -1    0    0    0  501 -0.00000000000E+00  0.00000000000E+00  0.14649355056E+03  0.14649355058E+03  0.25500000000E-02 0.  1.
          2   -1    0    0  501    0  0.00000000000E+00 -0.00000000000E+00 -0.40822087739E+04  0.40822087739E+04  0.25500000000E-02 0. -1.
    8880023    1    1    2    0    0  0.44389479419E+02 -0.14495685332E+02 -0.40016273123E+04  0.40557381454E+04  0.65864270000E+03 0. -1.
    8880022    1    1    2    0    0 -0.44389479419E+02  0.14495685332E+02  0.65912088961E+02  0.17296417913E+03  0.15294330000E+03 0.  0.
<mgrwt>
<rscale>  0 0.46320688E+03</rscale>
<asrwt>0</asrwt>
<pdfrwt beam="1">  1        2 0.62803203E+00 0.66029596E+03</pdfrwt>
<pdfrwt beam="2">  1       -2 0.22537472E-01 0.66029596E+03</pdfrwt>
<totfact> 0.57216743E+00</totfact>
</mgrwt>
</event>
<event>
 4    2  0.2930016E-007  0.1087821E+04  0.7818608E-02  0.9274738E-01
          2   -1    0    0  501    0  0.00000000000E+00  0.00000000000E+00  0.37996028728E+04  0.37996028728E+04  0.25500000000E-02 0. -1.
         -2   -1    0    0    0  501 -0.00000000000E+00 -0.00000000000E+00 -0.47189416215E+03  0.47189416215E+03  0.25500000000E-02 0.  1.
    8880023    1    1    2    0    0 -0.82529204874E+03  0.26160646426E+03  0.32040435441E+04  0.33836740603E+04  0.65864270000E+03 0. -1.
    8880022    1    1    2    0    0  0.82529204874E+03 -0.26160646426E+03  0.12366516657E+03  0.88782297463E+03  0.15294330000E+03 0.  0.
<mgrwt>
<rscale>  0 0.10314214E+04</rscale>
<asrwt>0</asrwt>
<pdfrwt beam="1">  1        2 0.58455429E+00 0.10878213E+04</pdfrwt>
<pdfrwt beam="2">  1       -2 0.72599101E-01 0.10878213E+04</pdfrwt>
<totfact> 0.86869778E-01</totfact>
</mgrwt>
</event>
<event>
 4    2  0.2930016E-007  0.7405659E+03  0.7818608E-02  0.9858302E-01
         -2   -1    0    0    0  501 -0.00000000000E+00  0.00000000000E+00  0.10270082699E+04  0.10270082699E+04  0.25500000000E-02 0.  1.
          2   -1    0    0  501    0  0.00000000000E+00 -0.00000000000E+00 -0.83259001640E+03  0.83259001641E+03  0.25500000000E-02 0. -1.
    8880023    1    1    2    0    0  0.26974507478E+03 -0.20460987725E+03 -0.61910493593E+03  0.96526096740E+03  0.65864270000E+03 0. -1.
    8880022    1    1    2    0    0 -0.26974507478E+03  0.20460987725E+03  0.81352318938E+03  0.89433731886E+03  0.15294330000E+03 0.  0.
<mgrwt>
<rscale>  0 0.62325423E+03</rscale>
<asrwt>0</asrwt>
<pdfrwt beam="1">  1        2 0.12809077E+00 0.74056587E+03</pdfrwt>
<pdfrwt beam="2">  1       -2 0.15800127E+00 0.74056587E+03</pdfrwt>
<totfact> 0.86646905E+00</totfact>
</mgrwt>
</event>
<event>
 4    2  0.2930016E-007  0.8793383E+03  0.7818608E-02  0.9560049E-01
         -2   -1    0    0    0  501 -0.00000000000E+00  0.00000000000E+00  0.14902707308E+04  0.14902707308E+04  0.25500000000E-02 0.  1.
          2   -1    0    0  501    0  0.00000000000E+00 -0.00000000000E+00 -0.58282892946E+03  0.58282892946E+03  0.25500000000E-02 0. -1.
    8880023    1    1    2    0    0 -0.11692852223E+03 -0.57074808919E+03 -0.11459175182E+03  0.88677344146E+03  0.65864270000E+03 0. -1.
    8880022    1    1    2    0    0  0.11692852223E+03  0.57074808919E+03  0.10220335532E+04  0.11863262188E+04  0.15294330000E+03 0.  1.
<mgrwt>
<rscale>  0 0.79997791E+03</rscale>
<asrwt>0</asrwt>
<pdfrwt beam="1">  1        2 0.89665990E-01 0.87933831E+03</pdfrwt>
<pdfrwt beam="2">  1       -2 0.22927242E+00 0.87933831E+03</pdfrwt>
<totfact> 0.44799286E+00</totfact>
</mgrwt>
</event>
<event>
 4    2  0.2930016E-007  0.7058209E+03  0.7818608E-02  0.9973860E-01
          2   -1    0    0  501    0  0.00000000000E+00  0.00000000000E+00  0.54400640617E+03  0.54400640618E+03  0.25500000000E-02 0. -1.
         -2   -1    0    0    0  501 -0.00000000000E+00 -0.00000000000E+00 -0.15154483312E+04  0.15154483312E+04  0.25500000000E-02 0.  1.
    8880023    1    1    2    0    0 -0.54143780799E+01  0.25366048236E+03  0.29045609850E+03  0.76324826054E+03  0.65864270000E+03 0. -1.
    8880022    1    1    2    0    0  0.54143780799E+01 -0.25366048236E+03 -0.12618980235E+04  0.12962064768E+04  0.15294330000E+03 0.  0.
<mgrwt>
<rscale>  0 0.56811443E+03</rscale>
<asrwt>0</asrwt>
<pdfrwt beam="1">  1        2 0.83693294E-01 0.70582091E+03</pdfrwt>
<pdfrwt beam="2">  1       -2 0.23314590E+00 0.70582091E+03</pdfrwt>
<totfact> 0.47025905E+00</totfact>
</mgrwt>
</event>
<event>
 4    2  0.2930016E-007  0.1537834E+04  0.7818608E-02  0.8883372E-01
         -2   -1    0    0    0  501 -0.00000000000E+00  0.00000000000E+00  0.16792628689E+04  0.16792628689E+04  0.25500000000E-02 0.  1.
          2   -1    0    0  501    0  0.00000000000E+00 -0.00000000000E+00 -0.25467473149E+04  0.25467473149E+04  0.25500000000E-02 0. -1.
    8880023    1    1    2    0    0 -0.13376663576E+04  0.37652718309E+03  0.10433420912E+04  0.18583586654E+04  0.65864270000E+03 0.  1.
    8880022    1    1    2    0    0  0.13376663576E+04 -0.37652718309E+03 -0.19108265372E+04  0.23676515183E+04  0.15294330000E+03 0.  0.
<mgrwt>
<rscale>  0 0.15016269E+04</rscale>
<asrwt>0</asrwt>
<pdfrwt beam="1">  1        2 0.39180728E+00 0.15378343E+04</pdfrwt>
<pdfrwt beam="2">  1       -2 0.25834813E+00 0.15378343E+04</pdfrwt>
<totfact> 0.17431816E-01</totfact>
</mgrwt>
</event>
<event>
 4    2  0.2930016E-007  0.1880842E+04  0.7818608E-02  0.8679088E-01
          2   -1    0    0  501    0  0.00000000000E+00  0.00000000000E+00  0.45183246827E+04  0.45183246827E+04  0.25500000000E-02 0. -1.
         -2   -1    0    0    0  501 -0.00000000000E+00 -0.00000000000E+00 -0.81594585735E+03  0.81594585735E+03  0.25500000000E-02 0.  1.
    8880023    1    1    2    0    0  0.99146065592E+03 -0.14562834782E+04  0.10725040529E+04  0.21651399380E+04  0.65864270000E+03 0.  0.
    8880022    1    1    2    0    0 -0.99146065592E+03  0.14562834782E+04  0.26298747724E+04  0.31691306021E+04  0.15294330000E+03 0.  0.
<mgrwt>
<rscale>  0 0.18520715E+04</rscale>
<asrwt>0</asrwt>
<pdfrwt beam="1">  1        2 0.69512685E+00 0.18808418E+04</pdfrwt>
<pdfrwt beam="2">  1       -2 0.12553014E+00 0.18808418E+04</pdfrwt>
<totfact> 0.51944729E-02</totfact>
</mgrwt>
</event>
<event>
 4    2  0.2930016E-007  0.7456244E+03  0.7818608E-02  0.9843856E-01
         -2   -1    0    0    0  501 -0.00000000000E+00  0.00000000000E+00  0.92556094081E+03  0.92556094081E+03  0.25500000000E-02 0.  1.
          2   -1    0    0  501    0  0.00000000000E+00 -0.00000000000E+00 -0.58790618931E+03  0.58790618932E+03  0.25500000000E-02 0. -1.
    8880023    1    1    2    0    0  0.18239840238E+03  0.29812137956E+03 -0.27250581163E+03  0.79386091841E+03  0.65864270000E+03 0. -1.
    8880022    1    1    2    0    0 -0.18239840238E+03 -0.29812137956E+03  0.61016056312E+03  0.71960621172E+03  0.15294330000E+03 0.  1.
<mgrwt>
<rscale>  0 0.63061142E+03</rscale>
<asrwt>0</asrwt>
<pdfrwt beam="1">  1        2 0.90447106E-01 0.74562440E+03</pdfrwt>
<pdfrwt beam="2">  1       -2 0.14239399E+00 0.74562440E+03</pdfrwt>
<totfact> 0.17716251E+01</totfact>
</mgrwt>
</event>
<event>
 4    2  0.2930016E-007  0.6692415E+03  0.7818608E-02  0.1016213E+00
          2   -1    0    0  501    0  0.00000000000E+00  0.00000000000E+00  0.23949909084E+04  0.23949909084E+04  0.25500000000E-02 0. -1.
         -2   -1    0    0    0  501 -0.00000000000E+00 -0.00000000000E+00 -0.25981575619E+03  0.25981575620E+03  0.25500000000E-02 0.  1.
    8880023    1    1    2    0    0  0.58145595890E+02 -0.10340728965E+03  0.23032183478E+04  0.23984784639E+04  0.65864270000E+03 0. -1.
    8880022    1    1    2    0    0 -0.58145595890E+02  0.10340728965E+03 -0.16804319559E+03  0.25632820070E+03  0.15294330000E+03 0.  0.
<mgrwt>
<rscale>  0 0.49078500E+03</rscale>
<asrwt>0</asrwt>
<pdfrwt beam="1">  1        2 0.36846014E+00 0.66924150E+03</pdfrwt>
<pdfrwt beam="2">  1       -2 0.39971655E-01 0.66924150E+03</pdfrwt>
<totfact> 0.25008654E+01</totfact>
</mgrwt>
</event>
<event>
 4    2  0.2930016E-007  0.6868077E+03  0.7818608E-02  0.1005708E+00
         -2   -1    0    0    0  501 -0.00000000000E+00  0.00000000000E+00  0.53872988877E+03  0.53872988877E+03  0.25500000000E-02 0.  1.
          2   -1    0    0  501    0  0.00000000000E+00 -0.00000000000E+00 -0.13247621069E+04  0.13247621069E+04  0.25500000000E-02 0. -1.
    8880023    1    1    2    0    0  0.18736978098E+03  0.52793413524E+02 -0.11991332004E+04  0.13818918981E+04  0.65864270000E+03 0. -1.
    8880022    1    1    2    0    0 -0.18736978098E+03 -0.52793413524E+02  0.41310098234E+03  0.48160009755E+03  0.15294330000E+03 0.  0.
<mgrwt>
<rscale>  0 0.53216551E+03</rscale>
<asrwt>0</asrwt>
<pdfrwt beam="1">  1        2 0.20380955E+00 0.68680768E+03</pdfrwt>
<pdfrwt beam="2">  1       -2 0.82881522E-01 0.68680768E+03</pdfrwt>
<totfact> 0.20993281E+01</totfact>
</mgrwt>
</event>
<event>
 4    2  0.2930016E-007  0.7443822E+03  0.7818608E-02  0.9847361E-01
         -2   -1    0    0    0  501 -0.00000000000E+00  0.00000000000E+00  0.20096737436E+03  0.20096737438E+03  0.25500000000E-02 0.  1.
          2   -1    0    0  501    0  0.00000000000E+00 -0.00000000000E+00 -0.16496108901E+04  0.16496108901E+04  0.25500000000E-02 0. -1.
    8880023    1    1    2    0    0 -0.17537519234E+03  0.29922932188E+03 -0.11411983624E+04  0.13625118546E+04  0.65864270000E+03 0.  1.
    8880022    1    1    2    0    0  0.17537519234E+03 -0.29922932188E+03 -0.30744515325E+03  0.48806640986E+03  0.15294330000E+03 0. -1.
<mgrwt>
<rscale>  0 0.62881646E+03</rscale>
<asrwt>0</asrwt>
<pdfrwt beam="1">  1        2 0.25378628E+00 0.74438219E+03</pdfrwt>
<pdfrwt beam="2">  1       -2 0.30918059E-01 0.74438219E+03</pdfrwt>
<totfact> 0.10346173E+02</totfact>
</mgrwt>
</event>
<event>
 4    2  0.2930016E-007  0.6899919E+03  0.7818608E-02  0.1004156E+00
         -2   -1    0    0    0  501 -0.00000000000E+00  0.00000000000E+00  0.11450595134E+03  0.11450595137E+03  0.25500000000E-02 0.  1.
          2   -1    0    0  501    0  0.00000000000E+00 -0.00000000000E+00 -0.22919189345E+04  0.22919189345E+04  0.25500000000E-02 0. -1.
    8880023    1    1    2    0    0 -0.45685421020E+02 -0.20047821151E+03 -0.19323564056E+04  0.20518504223E+04  0.65864270000E+03 0. -1.
    8880022    1    1    2    0    0  0.45685421020E+02  0.20047821151E+03 -0.24505657753E+03  0.35457446353E+03  0.15294330000E+03 0.  0.
<mgrwt>
<rscale>  0 0.53864689E+03</rscale>
<asrwt>0</asrwt>
<pdfrwt beam="1">  1        2 0.35260288E+00 0.68999194E+03</pdfrwt>
<pdfrwt beam="2">  1       -2 0.17616302E-01 0.68999194E+03</pdfrwt>
<totfact> 0.12670934E+02</totfact>
</mgrwt>
</event>
<event>
 4    2  0.2930016E-007  0.1041922E+04  0.7818608E-02  0.9328656E-01
         -2   -1    0    0    0  501 -0.00000000000E+00  0.00000000000E+00  0.72150558522E+03  0.72150558522E+03  0.25500000000E-02 0.  1.
          2   -1    0    0  501    0  0.00000000000E+00 -0.00000000000E+00 -0.16209038525E+04  0.16209038525E+04  0.25500000000E-02 0. -1.
    8880023    1    1    2    0    0 -0.73210854063E+03  0.34030509463E+03 -0.10804650933E+04  0.15010014979E+04  0.65864270000E+03 0. -1.
    8880022    1    1    2    0    0  0.73210854063E+03 -0.34030509463E+03  0.18106682600E+03  0.84140793982E+03  0.15294330000E+03 0.  0.
<mgrwt>
<rscale>  0 0.98186981E+03</rscale>
<asrwt>0</asrwt>
<pdfrwt beam="1">  1        2 0.24936982E+00 0.10419216E+04</pdfrwt>
<pdfrwt beam="2">  1       -2 0.11100086E+00 0.10419216E+04</pdfrwt>
<totfact> 0.69152993E+00</totfact>
</mgrwt>
</event>
<event>
 4    2  0.2930016E-007  0.7455031E+03  0.7818608E-02  0.9844197E-01
          2   -1    0    0  501    0  0.00000000000E+00  0.00000000000E+00  0.21854877930E+04  0.21854877930E+04  0.25500000000E-02 0. -1.
         -2   -1    0    0    0  501 -0.00000000000E+00 -0.00000000000E+00 -0.24714912932E+03  0.24714912933E+03  0.25500000000E-02 0.  1.
    8880023    1    1    2    0    0 -0.32482875791E+03  0.12826115315E+03  0.19099926028E+04  0.20503284113E+04  0.65864270000E+03 0. -1.
    8880022    1    1    2    0    0  0.32482875791E+03 -0.12826115315E+03  0.28346060864E+02  0.38230851097E+03  0.15294330000E+03 0.  0.
<mgrwt>
<rscale>  0 0.63043645E+03</rscale>
<asrwt>0</asrwt>
<pdfrwt beam="1">  1        2 0.33622887E+00 0.74550309E+03</pdfrwt>
<pdfrwt beam="2">  1       -2 0.38022945E-01 0.74550309E+03</pdfrwt>
<totfact> 0.35594673E+01</totfact>
</mgrwt>
</event>
<event>
 4    2  0.2930016E-007  0.8348410E+03  0.7818608E-02  0.9639986E-01
         -2   -1    0    0    0  501 -0.00000000000E+00  0.00000000000E+00  0.21640871022E+03  0.21640871024E+03  0.25500000000E-02 0.  1.
          2   -1    0    0  501    0  0.00000000000E+00 -0.00000000000E+00 -0.29824880446E+04  0.29824880446E+04  0.25500000000E-02 0. -1.
    8880023    1    1    2    0    0  0.51579605531E+02 -0.51038103743E+03 -0.24237517658E+04  0.25634999683E+04  0.65864270000E+03 0.  0.
    8880022    1    1    2    0    0 -0.51579605531E+02  0.51038103743E+03 -0.34232756853E+03  0.63539678648E+03  0.15294330000E+03 0.  0.
<mgrwt>
<rscale>  0 0.74705255E+03</rscale>
<asrwt>0</asrwt>
<pdfrwt beam="1">  1        2 0.45884429E+00 0.83484098E+03</pdfrwt>
<pdfrwt beam="2">  1       -2 0.33293650E-01 0.83484098E+03</pdfrwt>
<totfact> 0.15734850E+01</totfact>
</mgrwt>
</event>
<event>
 4    2  0.2930016E-007  0.7701979E+03  0.7818608E-02  0.9779387E-01
          2   -1    0    0  501    0  0.00000000000E+00  0.00000000000E+00  0.14835971898E+04  0.14835971898E+04  0.25500000000E-02 0. -1.
         -2   -1    0    0    0  501 -0.00000000000E+00 -0.00000000000E+00 -0.75215796353E+03  0.75215796353E+03  0.25500000000E-02 0.  1.
    8880023    1    1    2    0    0 -0.22197772958E+03  0.33184410548E+03  0.13080353606E+04  0.15179464199E+04  0.65864270000E+03 0. -1.
    8880022    1    1    2    0    0  0.22197772958E+03 -0.33184410548E+03 -0.57659613430E+03  0.71780873349E+03  0.15294330000E+03 0.  0.
<mgrwt>
<rscale>  0 0.66480565E+03</rscale>
<asrwt>0</asrwt>
<pdfrwt beam="1">  1        2 0.22824572E+00 0.77019792E+03</pdfrwt>
<pdfrwt beam="2">  1       -2 0.11571661E+00 0.77019792E+03</pdfrwt>
<totfact> 0.76954172E+00</totfact>
</mgrwt>
</event>
<event>
 4    2  0.2930016E-007  0.8512322E+03  0.7818608E-02  0.9609354E-01
         -2   -1    0    0    0  501 -0.00000000000E+00  0.00000000000E+00  0.19588673081E+03  0.19588673083E+03  0.25500000000E-02 0.  1.
          2   -1    0    0  501    0  0.00000000000E+00 -0.00000000000E+00 -0.29530235480E+04  0.29530235480E+04  0.25500000000E-02 0. -1.
    8880023    1    1    2    0    0 -0.32796792836E+03  0.42804567970E+03 -0.21985358897E+04  0.23575742471E+04  0.65864270000E+03 0.  0.
    8880022    1    1    2    0    0  0.32796792836E+03 -0.42804567970E+03 -0.55860092749E+03  0.79133603175E+03  0.15294330000E+03 0.  0.
<mgrwt>
<rscale>  0 0.76680151E+03</rscale>
<asrwt>0</asrwt>
<pdfrwt beam="1">  1        2 0.45431128E+00 0.85123221E+03</pdfrwt>
<pdfrwt beam="2">  1       -2 0.30136422E-01 0.85123221E+03</pdfrwt>
<totfact> 0.19722694E+01</totfact>
</mgrwt>
</event>
<event>
 4    2  0.2930016E-007  0.8158279E+03  0.7818608E-02  0.9677563E-01
         -2   -1    0    0    0  501 -0.00000000000E+00  0.00000000000E+00  0.24253678663E+03  0.24253678664E+03  0.25500000000E-02 0.  1.
          2   -1    0    0  501    0  0.00000000000E+00 -0.00000000000E+00 -0.21630980975E+04  0.21630980975E+04  0.25500000000E-02 0. -1.
    8880023    1    1    2    0    0 -0.42283319261E+03  0.23016729625E+03 -0.66584125252E+03  0.10530525499E+04  0.65864270000E+03 0.  0.
    8880022    1    1    2    0    0  0.42283319261E+03 -0.23016729625E+03 -0.12547200583E+04  0.13525823342E+04  0.15294330000E+03 0.  0.
<mgrwt>
<rscale>  0 0.72368528E+03</rscale>
<asrwt>0</asrwt>
<pdfrwt beam="1">  1        2 0.33278431E+00 0.81582786E+03</pdfrwt>
<pdfrwt beam="2">  1       -2 0.37313353E-01 0.81582786E+03</pdfrwt>
<totfact> 0.37642222E+01</totfact>
</mgrwt>
</event>
<event>
 4    2  0.2930016E-007  0.7125211E+03  0.7818608E-02  0.9948756E-01
         -2   -1    0    0    0  501 -0.00000000000E+00  0.00000000000E+00  0.28313119656E+03  0.28313119658E+03  0.25500000000E-02 0.  1.
          2   -1    0    0  501    0  0.00000000000E+00 -0.00000000000E+00 -0.14684307751E+04  0.14684307751E+04  0.25500000000E-02 0. -1.
    8880023    1    1    2    0    0 -0.26466659237E+03 -0.61868447981E+02 -0.12445726918E+04  0.14341016357E+04  0.65864270000E+03 0.  0.
    8880022    1    1    2    0    0  0.26466659237E+03  0.61868447981E+02  0.59273113269E+02  0.31746033601E+03  0.15294330000E+03 0.  0.
<mgrwt>
<rscale>  0 0.57955467E+03</rscale>
<asrwt>0</asrwt>
<pdfrwt beam="1">  1        2 0.22591242E+00 0.71252110E+03</pdfrwt>
<pdfrwt beam="2">  1       -2 0.43558646E-01 0.71252110E+03</pdfrwt>
<totfact> 0.67679495E+01</totfact>
</mgrwt>
</event>
<event>
 4    2  0.2930016E-007  0.8543236E+03  0.7818608E-02  0.9603742E-01
         -2   -1    0    0    0  501 -0.00000000000E+00  0.00000000000E+00  0.44292431386E+03  0.44292431387E+03  0.25500000000E-02 0.  1.
          2   -1    0    0  501    0  0.00000000000E+00 -0.00000000000E+00 -0.17057224099E+04  0.17057224099E+04  0.25500000000E-02 0. -1.
    8880023    1    1    2    0    0  0.37623326802E+03  0.39307394150E+03 -0.13286608310E+04  0.15796228681E+04  0.65864270000E+03 0. -1.
    8880022    1    1    2    0    0 -0.37623326802E+03 -0.39307394150E+03  0.65862734920E+02  0.56902385567E+03  0.15294330000E+03 0.  1.
<mgrwt>
<rscale>  0 0.77049035E+03</rscale>
<asrwt>0</asrwt>
<pdfrwt beam="1">  1        2 0.26241883E+00 0.85432359E+03</pdfrwt>
<pdfrwt beam="2">  1       -2 0.68142203E-01 0.85432359E+03</pdfrwt>
<totfact> 0.19477766E+01</totfact>
</mgrwt>
</event>
<event>
 4    2  0.2930016E-007  0.6984999E+03  0.7818608E-02  0.1000348E+00
         -2   -1    0    0    0  501 -0.00000000000E+00  0.00000000000E+00  0.14375667261E+04  0.14375667261E+04  0.25500000000E-02 0.  1.
          2   -1    0    0  501    0  0.00000000000E+00 -0.00000000000E+00 -0.35551250474E+03  0.35551250474E+03  0.25500000000E-02 0. -1.
    8880023    1    1    2    0    0 -0.75695842968E+02  0.21991385177E+03  0.23882774728E+02  0.69890811702E+03  0.65864270000E+03 0. -1.
    8880022    1    1    2    0    0  0.75695842968E+02 -0.21991385177E+03  0.10581714467E+04  0.10941711138E+04  0.15294330000E+03 0.  0.
<mgrwt>
<rscale>  0 0.55497832E+03</rscale>
<asrwt>0</asrwt>
<pdfrwt beam="1">  1        2 0.54694231E-01 0.69849994E+03</pdfrwt>
<pdfrwt beam="2">  1       -2 0.22116411E+00 0.69849994E+03</pdfrwt>
<totfact> 0.90675575E+00</totfact>
</mgrwt>
</event>
<event>
 4    2  0.2930016E-007  0.1131316E+04  0.7818608E-02  0.9226966E-01
          2   -1    0    0  501    0  0.00000000000E+00  0.00000000000E+00  0.11266186839E+04  0.11266186839E+04  0.25500000000E-02 0. -1.
         -2   -1    0    0    0  501 -0.00000000000E+00 -0.00000000000E+00 -0.10312374595E+04  0.10312374595E+04  0.25500000000E-02 0.  1.
    8880023    1    1    2    0    0 -0.91721546871E+03 -0.69141735649E+02  0.36237857030E+03  0.11879365430E+04  0.65864270000E+03 0. -1.
    8880022    1    1    2    0    0  0.91721546871E+03  0.69141735649E+02 -0.26699734586E+03  0.96991960046E+03  0.15294330000E+03 0.  0.
<mgrwt>
<rscale>  0 0.10779381E+04</rscale>
<asrwt>0</asrwt>
<pdfrwt beam="1">  1        2 0.17332595E+00 0.11313156E+04</pdfrwt>
<pdfrwt beam="2">  1       -2 0.15865192E+00 0.11313156E+04</pdfrwt>
<totfact> 0.52929317E+00</totfact>
</mgrwt>
</event>
<event>
 4    2  0.2930016E-007  0.7264687E+03  0.7818608E-02  0.9901276E-01
         -2   -1    0    0    0  501 -0.00000000000E+00  0.00000000000E+00  0.62876270583E+03  0.62876270583E+03  0.25500000000E-02 0.  1.
          2   -1    0    0  501    0  0.00000000000E+00 -0.00000000000E+00 -0.11543834170E+04  0.11543834170E+04  0.25500000000E-02 0. -1.
    8880023    1    1    2    0    0  0.15917331844E+03 -0.26193602108E+03 -0.97638323462E+03  0.12169967344E+04  0.65864270000E+03 0. -1.
    8880022    1    1    2    0    0 -0.15917331844E+03  0.26193602108E+03  0.45076252346E+03  0.56614938842E+03  0.15294330000E+03 0.  0.
<mgrwt>
<rscale>  0 0.60199469E+03</rscale>
<asrwt>0</asrwt>
<pdfrwt beam="1">  1        2 0.17759745E+00 0.72646874E+03</pdfrwt>
<pdfrwt beam="2">  1       -2 0.96732724E-01 0.72646874E+03</pdfrwt>
<totfact> 0.18409467E+01</totfact>
</mgrwt>
</event>
<event>
 4    2  0.2930016E-007  0.9123872E+03  0.7818608E-02  0.9506432E-01
          2   -1    0    0  501    0  0.00000000000E+00  0.00000000000E+00  0.14048941955E+04  0.14048941955E+04  0.25500000000E-02 0. -1.
         -2   -1    0    0    0  501 -0.00000000000E+00 -0.00000000000E+00 -0.10189462526E+04  0.10189462526E+04  0.25500000000E-02 0.  1.
    8880023    1    1    2    0    0  0.52332998040E+03  0.35322230157E+03  0.11193503854E+04  0.14440899398E+04  0.65864270000E+03 0.  0.
    8880022    1    1    2    0    0 -0.52332998040E+03 -0.35322230157E+03 -0.73340244253E+03  0.97975050826E+03  0.15294330000E+03 0.  0.
<mgrwt>
<rscale>  0 0.83811297E+03</rscale>
<asrwt>0</asrwt>
<pdfrwt beam="1">  1        2 0.21613757E+00 0.91238724E+03</pdfrwt>
<pdfrwt beam="2">  1       -2 0.15676096E+00 0.91238724E+03</pdfrwt>
<totfact> 0.38378987E+00</totfact>
</mgrwt>
</event>
<event>
 4    2  0.2930016E-007  0.7221992E+03  0.7818608E-02  0.9915214E-01
         -2   -1    0    0    0  501 -0.00000000000E+00  0.00000000000E+00  0.42225222496E+03  0.42225222496E+03  0.25500000000E-02 0.  1.
          2   -1    0    0  501    0  0.00000000000E+00 -0.00000000000E+00 -0.10620541183E+04  0.10620541183E+04  0.25500000000E-02 0. -1.
    8880023    1    1    2    0    0  0.21046120633E+03  0.20848890166E+03 -0.83020634604E+03  0.11003700854E+04  0.65864270000E+03 0. -1.
    8880022    1    1    2    0    0 -0.21046120633E+03 -0.20848890166E+03  0.19040445272E+03  0.38393625788E+03  0.15294330000E+03 0.  0.
<mgrwt>
<rscale>  0 0.59529607E+03</rscale>
<asrwt>0</asrwt>
<pdfrwt beam="1">  1        2 0.16339294E+00 0.72219924E+03</pdfrwt>
<pdfrwt beam="2">  1       -2 0.64961881E-01 0.72219924E+03</pdfrwt>
<totfact> 0.51220730E+01</totfact>
</mgrwt>
</event>
<event>
 4    2  0.2930016E-007  0.6786148E+03  0.7818608E-02  0.1010118E+00
          2   -1    0    0  501    0  0.00000000000E+00  0.00000000000E+00  0.12606237303E+04  0.12606237303E+04  0.25500000000E-02 0. -1.
         -2   -1    0    0    0  501 -0.00000000000E+00 -0.00000000000E+00 -0.39271638690E+03  0.39271638691E+03  0.25500000000E-02 0.  1.
    8880023    1    1    2    0    0  0.83506324899E+02 -0.14047947875E+03  0.11241533755E+04  0.13131027409E+04  0.65864270000E+03 0. -1.
    8880022    1    1    2    0    0 -0.83506324899E+02  0.14047947875E+03 -0.25624603211E+03  0.34023737630E+03  0.15294330000E+03 0.  0.
<mgrwt>
<rscale>  0 0.51427639E+03</rscale>
<asrwt>0</asrwt>
<pdfrwt beam="1">  1        2 0.19394211E+00 0.67861476E+03</pdfrwt>
<pdfrwt beam="2">  1       -2 0.60417907E-01 0.67861476E+03</pdfrwt>
<totfact> 0.45663451E+01</totfact>
</mgrwt>
</event>
<event>
 4    2  0.2930016E-007  0.1006065E+04  0.7818608E-02  0.9373666E-01
         -2   -1    0    0    0  501 -0.00000000000E+00  0.00000000000E+00  0.64187774526E+03  0.64187774526E+03  0.25500000000E-02 0.  1.
          2   -1    0    0  501    0  0.00000000000E+00 -0.00000000000E+00 -0.19643223766E+04  0.19643223766E+04  0.25500000000E-02 0. -1.
    8880023    1    1    2    0    0  0.50700645394E+03 -0.56683370277E+03 -0.15040406877E+04  0.18095039617E+04  0.65864270000E+03 0. -1.
    8880022    1    1    2    0    0 -0.50700645394E+03  0.56683370277E+03  0.18159605634E+03  0.79669616017E+03  0.15294330000E+03 0.  0.
<mgrwt>
<rscale>  0 0.94274934E+03</rscale>
<asrwt>0</asrwt>
<pdfrwt beam="1">  1        2 0.30220344E+00 0.10060647E+04</pdfrwt>
<pdfrwt beam="2">  1       -2 0.98750423E-01 0.10060647E+04</pdfrwt>
<totfact> 0.59477707E+00</totfact>
</mgrwt>
</event>
<event>
 4    2  0.2930016E-007  0.6813417E+03  0.7818608E-02  0.1008575E+00
         -2   -1    0    0    0  501 -0.00000000000E+00  0.00000000000E+00  0.16427488164E+03  0.16427488166E+03  0.25500000000E-02 0.  1.
          2   -1    0    0  501    0  0.00000000000E+00 -0.00000000000E+00 -0.20449306480E+04  0.20449306480E+04  0.25500000000E-02 0. -1.
    8880023    1    1    2    0    0  0.17436038458E+03 -0.38445319381E+01 -0.18545828571E+04  0.19757793663E+04  0.65864270000E+03 0. -1.
    8880022    1    1    2    0    0 -0.17436038458E+03  0.38445319381E+01 -0.26072909268E+02  0.23342616338E+03  0.15294330000E+03 0.  0.
<mgrwt>
<rscale>  0 0.52045066E+03</rscale>
<asrwt>0</asrwt>
<pdfrwt beam="1">  1        2 0.31460470E+00 0.68134171E+03</pdfrwt>
<pdfrwt beam="2">  1       -2 0.25273060E-01 0.68134171E+03</pdfrwt>
<totfact> 0.91799277E+01</totfact>
</mgrwt>
</event>
<event>
 4    2  0.2930016E-007  0.7994998E+03  0.7818608E-02  0.9711879E-01
         -2   -1    0    0    0  501 -0.00000000000E+00  0.00000000000E+00  0.37122048443E+03  0.37122048444E+03  0.25500000000E-02 0.  1.
          2   -1    0    0  501    0  0.00000000000E+00 -0.00000000000E+00 -0.15073898575E+04  0.15073898575E+04  0.25500000000E-02 0. -1.
    8880023    1    1    2    0    0  0.43078669116E+03 -0.14075684211E+03 -0.11494025095E+04  0.14001164227E+04  0.65864270000E+03 0.  0.
    8880022    1    1    2    0    0 -0.43078669116E+03  0.14075684211E+03  0.13233136421E+02  0.47849391929E+03  0.15294330000E+03 0.  1.
<mgrwt>
<rscale>  0 0.70313922E+03</rscale>
<asrwt>0</asrwt>
<pdfrwt beam="1">  1        2 0.23190613E+00 0.79949976E+03</pdfrwt>
<pdfrwt beam="2">  1       -2 0.57110844E-01 0.79949976E+03</pdfrwt>
<totfact> 0.36759720E+01</totfact>
</mgrwt>
</event>
<event>
 4    2  0.2930016E-007  0.8262964E+03  0.7818608E-02  0.9656582E-01
         -2   -1    0    0    0  501 -0.00000000000E+00  0.00000000000E+00  0.56809047587E+03  0.56809047588E+03  0.25500000000E-02 0.  1.
          2   -1    0    0  501    0  0.00000000000E+00 -0.00000000000E+00 -0.21605037488E+04  0.21605037488E+04  0.25500000000E-02 0. -1.
    8880023    1    1    2    0    0 -0.40324644986E+03  0.29384992105E+03 -0.19351926417E+04  0.21042186774E+04  0.65864270000E+03 0. -1.
    8880022    1    1    2    0    0  0.40324644986E+03 -0.29384992105E+03  0.34277936876E+03  0.62437554732E+03  0.15294330000E+03 0.  0.
<mgrwt>
<rscale>  0 0.73661784E+03</rscale>
<asrwt>0</asrwt>
<pdfrwt beam="1">  1        2 0.33238519E+00 0.82629636E+03</pdfrwt>
<pdfrwt beam="2">  1       -2 0.87398536E-01 0.82629636E+03</pdfrwt>
<totfact> 0.63140639E+00</totfact>
</mgrwt>
</event>
<event>
 4    2  0.2930016E-007  0.1145830E+04  0.7818608E-02  0.9211668E-01
          2   -1    0    0  501    0  0.00000000000E+00  0.00000000000E+00  0.22813580059E+04  0.22813580059E+04  0.25500000000E-02 0. -1.
         -2   -1    0    0    0  501 -0.00000000000E+00 -0.00000000000E+00 -0.51559522433E+03  0.51559522433E+03  0.25500000000E-02 0.  1.
    8880023    1    1    2    0    0  0.52007462675E+02  0.93616801807E+03  0.13188418607E+04  0.17470745245E+04  0.65864270000E+03 0. -1.
    8880022    1    1    2    0    0 -0.52007462675E+02 -0.93616801807E+03  0.44692092083E+03  0.10498787057E+04  0.15294330000E+03 0.  1.
<mgrwt>
<rscale>  0 0.10933806E+04</rscale>
<asrwt>0</asrwt>
<pdfrwt beam="1">  1        2 0.35097816E+00 0.11458296E+04</pdfrwt>
<pdfrwt beam="2">  1       -2 0.79322341E-01 0.11458296E+04</pdfrwt>
<totfact> 0.64778428E+00</totfact>
</mgrwt>
</event>
<event>
 4    2  0.2930016E-007  0.8351650E+03  0.7818608E-02  0.9639365E-01
         -2   -1    0    0    0  501 -0.00000000000E+00  0.00000000000E+00  0.12929826526E+04  0.12929826526E+04  0.25500000000E-02 0.  1.
          2   -1    0    0  501    0  0.00000000000E+00 -0.00000000000E+00 -0.68741774013E+03  0.68741774014E+03  0.25500000000E-02 0. -1.
    8880023    1    1    2    0    0  0.24185711725E+03 -0.45298509990E+03 -0.33345312138E+03  0.89927279305E+03  0.65864270000E+03 0.  0.
    8880022    1    1    2    0    0 -0.24185711725E+03  0.45298509990E+03  0.93901803380E+03  0.10811275996E+04  0.15294330000E+03 0.  0.
<mgrwt>
<rscale>  0 0.74744624E+03</rscale>
<asrwt>0</asrwt>
<pdfrwt beam="1">  1        2 0.10575658E+00 0.83516500E+03</pdfrwt>
<pdfrwt beam="2">  1       -2 0.19892041E+00 0.83516500E+03</pdfrwt>
<totfact> 0.57269468E+00</totfact>
</mgrwt>
</event>
<event>
 4    2  0.2930016E-007  0.6973437E+03  0.7818608E-02  0.1000840E+00
         -2   -1    0    0    0  501 -0.00000000000E+00  0.00000000000E+00  0.37768919537E+03  0.37768919538E+03  0.25500000000E-02 0.  1.
          2   -1    0    0  501    0  0.00000000000E+00 -0.00000000000E+00 -0.15556950581E+04  0.15556950581E+04  0.25500000000E-02 0. -1.
    8880023    1    1    2    0    0 -0.21091418506E+03 -0.89405254737E+02 -0.14101551252E+04  0.15731578994E+04  0.65864270000E+03 0. -1.
    8880022    1    1    2    0    0  0.21091418506E+03  0.89405254737E+02  0.23214926253E+03  0.36022635404E+03  0.15294330000E+03 0.  0.
<mgrwt>
<rscale>  0 0.55283275E+03</rscale>
<asrwt>0</asrwt>
<pdfrwt beam="1">  1        2 0.23933770E+00 0.69734375E+03</pdfrwt>
<pdfrwt beam="2">  1       -2 0.58106031E-01 0.69734375E+03</pdfrwt>
<totfact> 0.33718274E+01</totfact>
</mgrwt>
</event>
<event>
 4    2  0.2930016E-007  0.7099944E+03  0.7818608E-02  0.9958022E-01
          2   -1    0    0  501    0  0.00000000000E+00  0.00000000000E+00  0.18206416145E+04  0.18206416145E+04  0.25500000000E-02 0. -1.
         -2   -1    0    0    0  501 -0.00000000000E+00 -0.00000000000E+00 -0.28672414178E+03  0.28672414179E+03  0.25500000000E-02 0.  1.
    8880023    1    1    2    0    0 -0.25116251075E+03  0.84848579360E+02  0.16370595385E+04  0.17843923411E+04  0.65864270000E+03 0.  0.
    8880022    1    1    2    0    0  0.25116251075E+03 -0.84848579360E+02 -0.10314206570E+03  0.32297341524E+03  0.15294330000E+03 0.  0.
<mgrwt>
<rscale>  0 0.57529861E+03</rscale>
<asrwt>0</asrwt>
<pdfrwt beam="1">  1        2 0.28009871E+00 0.70999443E+03</pdfrwt>
<pdfrwt beam="2">  1       -2 0.44111407E-01 0.70999443E+03</pdfrwt>
<totfact> 0.42294019E+01</totfact>
</mgrwt>
</event>
<event>
 4    2  0.2930016E-007  0.1119836E+04  0.7818608E-02  0.9239286E-01
          2   -1    0    0  501    0  0.00000000000E+00  0.00000000000E+00  0.43177798628E+04  0.43177798628E+04  0.25500000000E-02 0. -1.
         -2   -1    0    0    0  501 -0.00000000000E+00 -0.00000000000E+00 -0.32129476611E+03  0.32129476612E+03  0.25500000000E-02 0.  1.
    8880023    1    1    2    0    0 -0.86914841933E+03 -0.25456582163E+03  0.33045069443E+04  0.34890971732E+04  0.65864270000E+03 0.  0.
    8880022    1    1    2    0    0  0.86914841933E+03  0.25456582163E+03  0.69197815235E+03  0.11499774557E+04  0.15294330000E+03 0.  0.
<mgrwt>
<rscale>  0 0.10656973E+04</rscale>
<asrwt>0</asrwt>
<pdfrwt beam="1">  1        2 0.66427377E+00 0.11198361E+04</pdfrwt>
<pdfrwt beam="2">  1       -2 0.49429968E-01 0.11198361E+04</pdfrwt>
<totfact> 0.73988850E-01</totfact>
</mgrwt>
</event>
<event>
 4    2  0.2930016E-007  0.6720869E+03  0.7818608E-02  0.1014209E+00
         -2   -1    0    0    0  501 -0.00000000000E+00  0.00000000000E+00  0.88461324572E+03  0.88461324572E+03  0.25500000000E-02 0.  1.
          2   -1    0    0  501    0  0.00000000000E+00 -0.00000000000E+00 -0.12394539881E+04  0.12394539881E+04  0.25500000000E-02 0. -1.
    8880023    1    1    2    0    0 -0.57310397284E+02 -0.12085587627E+03 -0.11343555729E+04  0.13185080191E+04  0.65864270000E+03 0. -1.
    8880022    1    1    2    0    0  0.57310397284E+02  0.12085587627E+03  0.77951483049E+03  0.80555921473E+03  0.15294330000E+03 0.  0.
<mgrwt>
<rscale>  0 0.49835583E+03</rscale>
<asrwt>0</asrwt>
<pdfrwt beam="1">  1        2 0.19068523E+00 0.67208692E+03</pdfrwt>
<pdfrwt beam="2">  1       -2 0.13609435E+00 0.67208692E+03</pdfrwt>
<totfact> 0.71595021E+00</totfact>
</mgrwt>
</event>
<event>
 4    2  0.2930016E-007  0.9521685E+03  0.7818608E-02  0.9447001E-01
          2   -1    0    0  501    0  0.00000000000E+00  0.00000000000E+00  0.21158886348E+04  0.21158886348E+04  0.25500000000E-02 0. -1.
         -2   -1    0    0    0  501 -0.00000000000E+00 -0.00000000000E+00 -0.35977468211E+03  0.35977468212E+03  0.25500000000E-02 0.  1.
    8880023    1    1    2    0    0 -0.51330426688E+03 -0.45752974199E+03  0.13814476993E+04  0.16778029346E+04  0.65864270000E+03 0. -1.
    8880022    1    1    2    0    0  0.51330426688E+03  0.45752974199E+03  0.37466625336E+03  0.79786038229E+03  0.15294330000E+03 0.  0.
<mgrwt>
<rscale>  0 0.88306601E+03</rscale>
<asrwt>0</asrwt>
<pdfrwt beam="1">  1        2 0.32552133E+00 0.95216855E+03</pdfrwt>
<pdfrwt beam="2">  1       -2 0.55349951E-01 0.95216855E+03</pdfrwt>
<totfact> 0.17852864E+01</totfact>
</mgrwt>
</event>
<event>
 4    2  0.2930016E-007  0.7848044E+03  0.7818608E-02  0.9744670E-01
          2   -1    0    0  501    0  0.00000000000E+00  0.00000000000E+00  0.10657429714E+04  0.10657429714E+04  0.25500000000E-02 0. -1.
         -2   -1    0    0    0  501 -0.00000000000E+00 -0.00000000000E+00 -0.77410109867E+03  0.77410109867E+03  0.25500000000E-02 0.  1.
    8880023    1    1    2    0    0  0.40751838228E+03 -0.12663553757E+03  0.82581164090E+03  0.11392466211E+04  0.65864270000E+03 0. -1.
    8880022    1    1    2    0    0 -0.40751838228E+03  0.12663553757E+03 -0.53416976815E+03  0.70059744896E+03  0.15294330000E+03 0.  0.
<mgrwt>
<rscale>  0 0.68418322E+03</rscale>
<asrwt>0</asrwt>
<pdfrwt beam="1">  1        2 0.16396046E+00 0.78480443E+03</pdfrwt>
<pdfrwt beam="2">  1       -2 0.11909248E+00 0.78480443E+03</pdfrwt>
<totfact> 0.12552035E+01</totfact>
</mgrwt>
</event>
<event>
 4    2  0.2930016E-007  0.6774311E+03  0.7818608E-02  0.1010816E+00
          2   -1    0    0  501    0  0.00000000000E+00  0.00000000000E+00  0.29737249610E+04  0.29737249610E+04  0.25500000000E-02 0. -1.
         -2   -1    0    0    0  501 -0.00000000000E+00 -0.00000000000E+00 -0.10554381035E+03  0.10554381038E+03  0.25500000000E-02 0.  1.
    8880023    1    1    2    0    0  0.47643116868E+02 -0.15110532469E+03  0.27441450429E+04  0.28265252358E+04  0.65864270000E+03 0. -1.
    8880022    1    1    2    0    0 -0.47643116868E+02  0.15110532469E+03  0.12403610768E+03  0.25274353554E+03  0.15294330000E+03 0.  0.
<mgrwt>
<rscale>  0 0.51151718E+03</rscale>
<asrwt>0</asrwt>
<pdfrwt beam="1">  1        2 0.45749621E+00 0.67743110E+03</pdfrwt>
<pdfrwt beam="2">  1       -2 0.16237507E-01 0.67743110E+03</pdfrwt>
<totfact> 0.59003660E+01</totfact>
</mgrwt>
</event>
<event>
 4    2  0.2930016E-007  0.8146248E+03  0.7818608E-02  0.9680023E-01
          2   -1    0    0  501    0  0.00000000000E+00  0.00000000000E+00  0.19514570315E+04  0.19514570315E+04  0.25500000000E-02 0. -1.
         -2   -1    0    0    0  501 -0.00000000000E+00 -0.00000000000E+00 -0.60468882444E+03  0.60468882445E+03  0.25500000000E-02 0.  1.
    8880023    1    1    2    0    0 -0.47785055731E+03  0.38239258851E+02  0.17375527681E+04  0.19190370565E+04  0.65864270000E+03 0. -1.
    8880022    1    1    2    0    0  0.47785055731E+03 -0.38239258851E+02 -0.39078456111E+03  0.63710879938E+03  0.15294330000E+03 0.  0.
<mgrwt>
<rscale>  0 0.72218777E+03</rscale>
<asrwt>0</asrwt>
<pdfrwt beam="1">  1        2 0.30022416E+00 0.81462482E+03</pdfrwt>
<pdfrwt beam="2">  1       -2 0.93029051E-01 0.81462482E+03</pdfrwt>
<totfact> 0.71298145E+00</totfact>
</mgrwt>
</event>
<event>
 4    2  0.2930016E-007  0.6625479E+03  0.7818608E-02  0.1021686E+00
         -2   -1    0    0    0  501 -0.00000000000E+00  0.00000000000E+00  0.25685919296E+03  0.25685919297E+03  0.25500000000E-02 0.  1.
          2   -1    0    0  501    0  0.00000000000E+00 -0.00000000000E+00 -0.13820237898E+04  0.13820237898E+04  0.25500000000E-02 0. -1.
    8880023    1    1    2    0    0 -0.71325989249E+02 -0.84937727652E+01 -0.12594238896E+04  0.14230665061E+04  0.65864270000E+03 0. -1.
    8880022    1    1    2    0    0  0.71325989249E+02  0.84937727652E+01  0.13425929271E+03  0.21581647669E+03  0.15294330000E+03 0.  0.
<mgrwt>
<rscale>  0 0.47083204E+03</rscale>
<asrwt>0</asrwt>
<pdfrwt beam="1">  1        2 0.21261904E+00 0.66254792E+03</pdfrwt>
<pdfrwt beam="2">  1       -2 0.39516800E-01 0.66254792E+03</pdfrwt>
<totfact> 0.92067327E+01</totfact>
</mgrwt>
</event>
<event>
 4    2  0.2930016E-007  0.6946747E+03  0.7818608E-02  0.1002005E+00
         -2   -1    0    0    0  501 -0.00000000000E+00  0.00000000000E+00  0.18328162493E+03  0.18328162494E+03  0.25500000000E-02 0.  1.
          2   -1    0    0  501    0  0.00000000000E+00 -0.00000000000E+00 -0.19710354981E+04  0.19710354981E+04  0.25500000000E-02 0. -1.
    8880023    1    1    2    0    0  0.22075041914E+03 -0.56519288560E+01 -0.17502844530E+04  0.18831007845E+04  0.65864270000E+03 0. -1.
    8880022    1    1    2    0    0 -0.22075041914E+03  0.56519288560E+01 -0.37469420200E+02  0.27121633859E+03  0.15294330000E+03 0.  0.
<mgrwt>
<rscale>  0 0.54779607E+03</rscale>
<asrwt>0</asrwt>
<pdfrwt beam="1">  1        2 0.30323622E+00 0.69467467E+03</pdfrwt>
<pdfrwt beam="2">  1       -2 0.28197174E-01 0.69467467E+03</pdfrwt>
<totfact> 0.82387491E+01</totfact>
</mgrwt>
</event>
<event>
 4    2  0.2930016E-007  0.7544481E+03  0.7818608E-02  0.9819699E-01
          2   -1    0    0  501    0  0.00000000000E+00  0.00000000000E+00  0.89528147608E+03  0.89528147609E+03  0.25500000000E-02 0. -1.
         -2   -1    0    0    0  501 -0.00000000000E+00 -0.00000000000E+00 -0.47840679257E+03  0.47840679257E+03  0.25500000000E-02 0.  1.
    8880023    1    1    2    0    0  0.36779555845E+03 -0.10397530328E+02  0.57129845113E+03  0.94634761477E+03  0.65864270000E+03 0.  1.
    8880022    1    1    2    0    0 -0.36779555845E+03  0.10397530328E+02 -0.15442376761E+03  0.42734065389E+03  0.15294330000E+03 0.  0.
<mgrwt>
<rscale>  0 0.64316027E+03</rscale>
<asrwt>0</asrwt>
<pdfrwt beam="1">  1        2 0.13773561E+00 0.75444807E+03</pdfrwt>
<pdfrwt beam="2">  1       -2 0.73601045E-01 0.75444807E+03</pdfrwt>
<totfact> 0.49869381E+01</totfact>
</mgrwt>
</event>
<event>
 4    2  0.2930016E-007  0.9056287E+03  0.7818608E-02  0.9517055E-01
          2   -1    0    0  501    0  0.00000000000E+00  0.00000000000E+00  0.28556586396E+04  0.28556586396E+04  0.25500000000E-02 0. -1.
         -2   -1    0    0    0  501 -0.00000000000E+00 -0.00000000000E+00 -0.30870709726E+03  0.30870709727E+03  0.25500000000E-02 0.  1.
    8880023    1    1    2    0    0  0.62014174585E+03  0.42158924035E+02  0.23110638822E+04  0.24821723618E+04  0.65864270000E+03 0.  0.
    8880022    1    1    2    0    0 -0.62014174585E+03 -0.42158924035E+02  0.23588766019E+03  0.68219337512E+03  0.15294330000E+03 0.  0.
<mgrwt>
<rscale>  0 0.83037989E+03</rscale>
<asrwt>0</asrwt>
<pdfrwt beam="1">  1        2 0.43933209E+00 0.90562871E+03</pdfrwt>
<pdfrwt beam="2">  1       -2 0.47493401E-01 0.90562871E+03</pdfrwt>
<totfact> 0.92834354E+00</totfact>
</mgrwt>
</event>
<event>
 4    2  0.2930016E-007  0.7038264E+03  0.7818608E-02  0.9981683E-01
          2   -1    0    0  501    0  0.00000000000E+00  0.00000000000E+00  0.14120983171E+04  0.14120983171E+04  0.25500000000E-02 0. -1.
         -2   -1    0    0    0  501 -0.00000000000E+00 -0.00000000000E+00 -0.25148117055E+03  0.25148117056E+03  0.25500000000E-02 0.  1.
    8880023    1    1    2    0    0  0.89215289570E+02  0.23152114289E+03  0.11772906966E+04  0.13716358839E+04  0.65864270000E+03 0. -1.
    8880022    1    1    2    0    0 -0.89215289570E+02 -0.23152114289E+03 -0.16673550023E+02  0.29194360377E+03  0.15294330000E+03 0.  0.
<mgrwt>
<rscale>  0 0.56460738E+03</rscale>
<asrwt>0</asrwt>
<pdfrwt beam="1">  1        2 0.21724589E+00 0.70382641E+03</pdfrwt>
<pdfrwt beam="2">  1       -2 0.38689411E-01 0.70382641E+03</pdfrwt>
<totfact> 0.91879087E+01</totfact>
</mgrwt>
</event>
<event>
 4    2  0.2930016E-007  0.6847531E+03  0.7818608E-02  0.1006753E+00
         -2   -1    0    0    0  501 -0.00000000000E+00  0.00000000000E+00  0.52814987624E+03  0.52814987625E+03  0.25500000000E-02 0.  1.
          2   -1    0    0  501    0  0.00000000000E+00 -0.00000000000E+00 -0.12361474703E+04  0.12361474703E+04  0.25500000000E-02 0. -1.
    8880023    1    1    2    0    0 -0.18080708331E+03 -0.48840794039E+02 -0.11046995655E+04  0.12997107220E+04  0.65864270000E+03 0. -1.
    8880022    1    1    2    0    0  0.18080708331E+03  0.48840794039E+02  0.39670197147E+03  0.46458662456E+03  0.15294330000E+03 0.  0.
<mgrwt>
<rscale>  0 0.52785611E+03</rscale>
<asrwt>0</asrwt>
<pdfrwt beam="1">  1        2 0.19017653E+00 0.68475312E+03</pdfrwt>
<pdfrwt beam="2">  1       -2 0.81253827E-01 0.68475312E+03</pdfrwt>
<totfact> 0.24707971E+01</totfact>
</mgrwt>
</event>
<event>
 4    2  0.2930016E-007  0.6768806E+03  0.7818608E-02  0.1011146E+00
         -2   -1    0    0    0  501 -0.00000000000E+00  0.00000000000E+00  0.18654939668E+03  0.18654939670E+03  0.25500000000E-02 0.  1.
          2   -1    0    0  501    0  0.00000000000E+00 -0.00000000000E+00 -0.20199308975E+04  0.20199308975E+04  0.25500000000E-02 0. -1.
    8880023    1    1    2    0    0 -0.12485854135E+03  0.93635193453E+02 -0.18665231451E+04  0.19854662078E+04  0.65864270000E+03 0. -1.
    8880022    1    1    2    0    0  0.12485854135E+03 -0.93635193453E+02  0.33141644269E+02  0.22101408643E+03  0.15294330000E+03 0.  0.
<mgrwt>
<rscale>  0 0.51021644E+03</rscale>
<asrwt>0</asrwt>
<pdfrwt beam="1">  1        2 0.31075858E+00 0.67688065E+03</pdfrwt>
<pdfrwt beam="2">  1       -2 0.28699909E-01 0.67688065E+03</pdfrwt>
<totfact> 0.75177132E+01</totfact>
</mgrwt>
</event>
<event>
 4    2  0.2930016E-007  0.6639302E+03  0.7818608E-02  0.1020448E+00
          2   -1    0    0  501    0  0.00000000000E+00  0.00000000000E+00  0.36744436836E+03  0.36744436837E+03  0.25500000000E-02 0. -1.
         -2   -1    0    0    0  501 -0.00000000000E+00 -0.00000000000E+00 -0.54085068772E+03  0.54085068772E+03  0.25500000000E-02 0.  1.
    8880023    1    1    2    0    0 -0.82746268468E+02  0.12090953569E+02 -0.21530687568E+01  0.66393371512E+03  0.65864270000E+03 0.  0.
    8880022    1    1    2    0    0  0.82746268468E+02 -0.12090953569E+02 -0.17125325060E+03  0.24436134097E+03  0.15294330000E+03 0.  0.
<mgrwt>
<rscale>  0 0.47525190E+03</rscale>
<asrwt>0</asrwt>
<pdfrwt beam="1">  1        2 0.56529903E-01 0.66393022E+03</pdfrwt>
<pdfrwt beam="2">  1       -2 0.83207798E-01 0.66393022E+03</pdfrwt>
<totfact> 0.11224809E+02</totfact>
</mgrwt>
</event>
<event>
 4    2  0.2930016E-007  0.1066985E+04  0.7818608E-02  0.9298736E-01
         -2   -1    0    0    0  501 -0.00000000000E+00  0.00000000000E+00  0.21053575097E+04  0.21053575097E+04  0.25500000000E-02 0.  1.
          2   -1    0    0  501    0  0.00000000000E+00 -0.00000000000E+00 -0.67406378670E+03  0.67406378670E+03  0.25500000000E-02 0. -1.
    8880023    1    1    2    0    0 -0.75847598467E+03 -0.35966922041E+03 -0.51968482099E+02  0.10682502969E+04  0.65864270000E+03 0.  0.
    8880022    1    1    2    0    0  0.75847598467E+03  0.35966922041E+03  0.14832622051E+04  0.17111709995E+04  0.15294330000E+03 0.  0.
<mgrwt>
<rscale>  0 0.10089932E+04</rscale>
<asrwt>0</asrwt>
<pdfrwt beam="1">  1        2 0.10370212E+00 0.10669855E+04</pdfrwt>
<pdfrwt beam="2">  1       -2 0.32390115E+00 0.10669855E+04</pdfrwt>
<totfact> 0.97358831E-01</totfact>
</mgrwt>
</event>
<event>
 4    2  0.2930016E-007  0.8247658E+03  0.7818608E-02  0.9659604E-01
         -2   -1    0    0    0  501 -0.00000000000E+00  0.00000000000E+00  0.93930543099E+03  0.93930543099E+03  0.25500000000E-02 0.  1.
          2   -1    0    0  501    0  0.00000000000E+00 -0.00000000000E+00 -0.69595027731E+03  0.69595027732E+03  0.25500000000E-02 0. -1.
    8880023    1    1    2    0    0 -0.33618232065E+03  0.36525308358E+03 -0.30553879278E+03  0.87954108939E+03  0.65864270000E+03 0. -1.
    8880022    1    1    2    0    0  0.33618232065E+03 -0.36525308358E+03  0.54889394645E+03  0.75571461891E+03  0.15294330000E+03 0.  0.
<mgrwt>
<rscale>  0 0.73473756E+03</rscale>
<asrwt>0</asrwt>
<pdfrwt beam="1">  1        2 0.10706927E+00 0.82476577E+03</pdfrwt>
<pdfrwt beam="2">  1       -2 0.14450853E+00 0.82476577E+03</pdfrwt>
<totfact> 0.13748515E+01</totfact>
</mgrwt>
</event>
<event>
 4    2  0.2930016E-007  0.1005903E+04  0.7818608E-02  0.9373876E-01
          2   -1    0    0  501    0  0.00000000000E+00  0.00000000000E+00  0.58694055382E+03  0.58694055382E+03  0.25500000000E-02 0. -1.
         -2   -1    0    0    0  501 -0.00000000000E+00 -0.00000000000E+00 -0.14231117120E+04  0.14231117120E+04  0.25500000000E-02 0.  1.
    8880023    1    1    2    0    0 -0.68015045622E+03  0.33974314159E+03 -0.24608634092E+03  0.10355668683E+04  0.65864270000E+03 0. -1.
    8880022    1    1    2    0    0  0.68015045622E+03 -0.33974314159E+03 -0.59008481731E+03  0.97448539752E+03  0.15294330000E+03 0.  0.
<mgrwt>
<rscale>  0 0.94257164E+03</rscale>
<asrwt>0</asrwt>
<pdfrwt beam="1">  1        2 0.90298547E-01 0.10059027E+04</pdfrwt>
<pdfrwt beam="2">  1       -2 0.21894026E+00 0.10059027E+04</pdfrwt>
<totfact> 0.50884821E+00</totfact>
</mgrwt>
</event>
<event>
 4    2  0.2930016E-007  0.7987080E+03  0.7818608E-02  0.9713597E-01
         -2   -1    0    0    0  501 -0.00000000000E+00  0.00000000000E+00  0.13380227169E+04  0.13380227169E+04  0.25500000000E-02 0.  1.
          2   -1    0    0  501    0  0.00000000000E+00 -0.00000000000E+00 -0.33803429866E+03  0.33803429867E+03  0.25500000000E-02 0. -1.
    8880023    1    1    2    0    0  0.29717117182E+02 -0.45082276841E+03  0.35548161570E+03  0.87424347921E+03  0.65864270000E+03 0.  0.
    8880022    1    1    2    0    0 -0.29717117182E+02  0.45082276841E+03  0.64450680257E+03  0.80181353640E+03  0.15294330000E+03 0.  0.
<mgrwt>
<rscale>  0 0.70212996E+03</rscale>
<asrwt>0</asrwt>
<pdfrwt beam="1">  1        2 0.52005277E-01 0.79870801E+03</pdfrwt>
<pdfrwt beam="2">  1       -2 0.20584965E+00 0.79870801E+03</pdfrwt>
<totfact> 0.11869527E+01</totfact>
</mgrwt>
</event>
<event>
 4    2  0.2930016E-007  0.9224915E+03  0.7818608E-02  0.9490849E-01
          2   -1    0    0  501    0  0.00000000000E+00  0.00000000000E+00  0.11627613208E+04  0.11627613208E+04  0.25500000000E-02 0. -1.
         -2   -1    0    0    0  501 -0.00000000000E+00 -0.00000000000E+00 -0.66007732509E+03  0.66007732510E+03  0.25500000000E-02 0.  1.
    8880023    1    1    2    0    0  0.41396178172E+03  0.49579826053E+03  0.66782160822E+03  0.11388486197E+04  0.65864270000E+03 0. -1.
    8880022    1    1    2    0    0 -0.41396178172E+03 -0.49579826053E+03 -0.16513761253E+03  0.68399002621E+03  0.15294330000E+03 0.  0.
<mgrwt>
<rscale>  0 0.84961831E+03</rscale>
<asrwt>0</asrwt>
<pdfrwt beam="1">  1        2 0.17888636E+00 0.92249145E+03</pdfrwt>
<pdfrwt beam="2">  1       -2 0.10155036E+00 0.92249145E+03</pdfrwt>
<totfact> 0.15894610E+01</totfact>
</mgrwt>
</event>
<event>
 4    2  0.2930016E-007  0.6695808E+03  0.7818608E-02  0.1015965E+00
          2   -1    0    0  501    0  0.00000000000E+00  0.00000000000E+00  0.16043274045E+04  0.16043274045E+04  0.25500000000E-02 0. -1.
         -2   -1    0    0    0  501 -0.00000000000E+00 -0.00000000000E+00 -0.25736396808E+03  0.25736396810E+03  0.25500000000E-02 0.  1.
    8880023    1    1    2    0    0  0.68261144581E+02 -0.99340862085E+02  0.14809725166E+04  0.16253055073E+04  0.65864270000E+03 0. -1.
    8880022    1    1    2    0    0 -0.68261144581E+02  0.99340862085E+02 -0.13400908019E+03  0.23638586533E+03  0.15294330000E+03 0.  0.
<mgrwt>
<rscale>  0 0.49171170E+03</rscale>
<asrwt>0</asrwt>
<pdfrwt beam="1">  1        2 0.24681959E+00 0.66958076E+03</pdfrwt>
<pdfrwt beam="2">  1       -2 0.39594458E-01 0.66958076E+03</pdfrwt>
<totfact> 0.68958669E+01</totfact>
</mgrwt>
</event>
<event>
 4    2  0.2930016E-007  0.8045972E+03  0.7818608E-02  0.9700943E-01
          2   -1    0    0  501    0  0.00000000000E+00  0.00000000000E+00  0.10372493772E+04  0.10372493772E+04  0.25500000000E-02 0. -1.
         -2   -1    0    0    0  501 -0.00000000000E+00 -0.00000000000E+00 -0.73014484708E+03  0.73014484709E+03  0.25500000000E-02 0.  1.
    8880023    1    1    2    0    0  0.15748011792E+03 -0.43447265076E+03  0.75686803723E+03  0.11046383588E+04  0.65864270000E+03 0. -1.
    8880022    1    1    2    0    0 -0.15748011792E+03  0.43447265076E+03 -0.44976350713E+03  0.66275586542E+03  0.15294330000E+03 0.  0.
<mgrwt>
<rscale>  0 0.70960692E+03</rscale>
<asrwt>0</asrwt>
<pdfrwt beam="1">  1        2 0.15957683E+00 0.80459721E+03</pdfrwt>
<pdfrwt beam="2">  1       -2 0.11232998E+00 0.80459721E+03</pdfrwt>
<totfact> 0.15058046E+01</totfact>
</mgrwt>
</event>
<event>
 4    2  0.2930016E-007  0.7072300E+03  0.7818608E-02  0.9968435E-01
          2   -1    0    0  501    0  0.00000000000E+00  0.00000000000E+00  0.13267479445E+04  0.13267479445E+04  0.25500000000E-02 0. -1.
         -2   -1    0    0    0  501 -0.00000000000E+00 -0.00000000000E+00 -0.41949225426E+03  0.41949225426E+03  0.25500000000E-02 0.  1.
    8880023    1    1    2    0    0  0.22057792481E+02 -0.25666603699E+03  0.11571153621E+04  0.13561305867E+04  0.65864270000E+03 0. -1.
    8880022    1    1    2    0    0 -0.22057792481E+02  0.25666603699E+03 -0.24985967188E+03  0.39010961203E+03  0.15294330000E+03 0.  0.
<mgrwt>
<rscale>  0 0.57056248E+03</rscale>
<asrwt>0</asrwt>
<pdfrwt beam="1">  1        2 0.20411507E+00 0.70722995E+03</pdfrwt>
<pdfrwt beam="2">  1       -2 0.64537271E-01 0.70722995E+03</pdfrwt>
<totfact> 0.36238277E+01</totfact>
</mgrwt>
</event>
<event>
 4    2  0.2930016E-007  0.6721828E+03  0.7818608E-02  0.1014144E+00
          2   -1    0    0  501    0  0.00000000000E+00  0.00000000000E+00  0.15601202236E+04  0.15601202236E+04  0.25500000000E-02 0. -1.
         -2   -1    0    0    0  501 -0.00000000000E+00 -0.00000000000E+00 -0.25796007614E+03  0.25796007616E+03  0.25500000000E-02 0.  1.
    8880023    1    1    2    0    0  0.13104774966E+03  0.29086583153E+02  0.14283650978E+04  0.15786249083E+04  0.65864270000E+03 0. -1.
    8880022    1    1    2    0    0 -0.13104774966E+03 -0.29086583153E+02 -0.12620495037E+03  0.23945539151E+03  0.15294330000E+03 0.  0.
<mgrwt>
<rscale>  0 0.49860345E+03</rscale>
<asrwt>0</asrwt>
<pdfrwt beam="1">  1        2 0.24001850E+00 0.67218282E+03</pdfrwt>
<pdfrwt beam="2">  1       -2 0.39686165E-01 0.67218282E+03</pdfrwt>
<totfact> 0.72580418E+01</totfact>
</mgrwt>
</event>
<event>
 4    2  0.2930016E-007  0.7885595E+03  0.7818608E-02  0.9736102E-01
          2   -1    0    0  501    0  0.00000000000E+00  0.00000000000E+00  0.86903424655E+03  0.86903424656E+03  0.25500000000E-02 0. -1.
         -2   -1    0    0    0  501 -0.00000000000E+00 -0.00000000000E+00 -0.72715110069E+03  0.72715110069E+03  0.25500000000E-02 0.  1.
    8880023    1    1    2    0    0 -0.34957481999E+03 -0.25654106732E+03  0.56599906510E+03  0.97066009599E+03  0.65864270000E+03 0.  0.
    8880022    1    1    2    0    0  0.34957481999E+03  0.25654106732E+03 -0.42411591923E+03  0.62552525125E+03  0.15294330000E+03 0.  0.
<mgrwt>
<rscale>  0 0.68907407E+03</rscale>
<asrwt>0</asrwt>
<pdfrwt beam="1">  1        2 0.13369758E+00 0.78855950E+03</pdfrwt>
<pdfrwt beam="2">  1       -2 0.11186940E+00 0.78855950E+03</pdfrwt>
<totfact> 0.19637892E+01</totfact>
</mgrwt>
</event>
<event>
 4    2  0.2930016E-007  0.6726332E+03  0.7818608E-02  0.1013841E+00
          2   -1    0    0  501    0  0.00000000000E+00  0.00000000000E+00  0.12574753066E+04  0.12574753066E+04  0.25500000000E-02 0. -1.
         -2   -1    0    0    0  501 -0.00000000000E+00 -0.00000000000E+00 -0.20824630384E+03  0.20824630385E+03  0.25500000000E-02 0.  1.
    8880023    1    1    2    0    0  0.45112051088E+02 -0.12880286169E+03  0.10655504297E+04  0.12600925358E+04  0.65864270000E+03 0. -1.
    8880022    1    1    2    0    0 -0.45112051088E+02  0.12880286169E+03 -0.16321426966E+02  0.20562907461E+03  0.15294330000E+03 0.  0.
<mgrwt>
<rscale>  0 0.49976033E+03</rscale>
<asrwt>0</asrwt>
<pdfrwt beam="1">  1        2 0.19345773E+00 0.67263324E+03</pdfrwt>
<pdfrwt beam="2">  1       -2 0.32037894E-01 0.67263324E+03</pdfrwt>
<totfact> 0.16169527E+02</totfact>
</mgrwt>
</event>
<event>
 4    2  0.2930016E-007  0.7227105E+03  0.7818608E-02  0.9913519E-01
          2   -1    0    0  501    0  0.00000000000E+00  0.00000000000E+00  0.51372039687E+04  0.51372039687E+04  0.25500000000E-02 0. -1.
         -2   -1    0    0    0  501 -0.00000000000E+00 -0.00000000000E+00 -0.69513424898E+02  0.69513424944E+02  0.25500000000E-02 0.  1.
    8880023    1    1    2    0    0  0.28464152856E+03 -0.86484092152E+02  0.44102421079E+04  0.44690654453E+04  0.65864270000E+03 0.  0.
    8880022    1    1    2    0    0 -0.28464152856E+03  0.86484092152E+02  0.65744843585E+03  0.73765194828E+03  0.15294330000E+03 0.  0.
<mgrwt>
<rscale>  0 0.59610552E+03</rscale>
<asrwt>0</asrwt>
<pdfrwt beam="1">  1        2 0.79033922E+00 0.72271053E+03</pdfrwt>
<pdfrwt beam="2">  1       -2 0.10694371E-01 0.72271053E+03</pdfrwt>
<totfact> 0.16607864E+00</totfact>
</mgrwt>
</event>
<event>
 4    2  0.2930016E-007  0.9924684E+03  0.7818608E-02  0.9391478E-01
         -2   -1    0    0    0  501 -0.00000000000E+00  0.00000000000E+00  0.13468206962E+04  0.13468206962E+04  0.25500000000E-02 0.  1.
          2   -1    0    0  501    0  0.00000000000E+00 -0.00000000000E+00 -0.12904628376E+04  0.12904628376E+04  0.25500000000E-02 0. -1.
    8880023    1    1    2    0    0  0.49862255578E+03  0.55005349341E+03 -0.95236711117E+03  0.13754986803E+04  0.65864270000E+03 0. -1.
    8880022    1    1    2    0    0 -0.49862255578E+03 -0.55005349341E+03  0.10087249698E+04  0.12617848535E+04  0.15294330000E+03 0.  0.
<mgrwt>
<rscale>  0 0.92780316E+03</rscale>
<asrwt>0</asrwt>
<pdfrwt beam="1">  1        2 0.19853274E+00 0.99246839E+03</pdfrwt>
<pdfrwt beam="2">  1       -2 0.20720318E+00 0.99246839E+03</pdfrwt>
<totfact> 0.19866895E+00</totfact>
</mgrwt>
</event>
<event>
 4    2  0.2930016E-007  0.7303216E+03  0.7818608E-02  0.9889093E-01
          2   -1    0    0  501    0  0.00000000000E+00  0.00000000000E+00  0.30513149113E+04  0.30513149113E+04  0.25500000000E-02 0. -1.
         -2   -1    0    0    0  501 -0.00000000000E+00 -0.00000000000E+00 -0.95909692676E+02  0.95909692710E+02  0.25500000000E-02 0.  1.
    8880023    1    1    2    0    0 -0.11952639671E+03 -0.29201529072E+03  0.20584439542E+04  0.21841614428E+04  0.65864270000E+03 0.  0.
    8880022    1    1    2    0    0  0.11952639671E+03  0.29201529072E+03  0.89696126445E+03  0.96306316120E+03  0.15294330000E+03 0. -1.
<mgrwt>
<rscale>  0 0.60792807E+03</rscale>
<asrwt>0</asrwt>
<pdfrwt beam="1">  1        2 0.46943301E+00 0.73032164E+03</pdfrwt>
<pdfrwt beam="2">  1       -2 0.14755339E-01 0.73032164E+03</pdfrwt>
<totfact> 0.61715336E+01</totfact>
</mgrwt>
</event>
<event>
 4    2  0.2930016E-007  0.7160848E+03  0.7818608E-02  0.9936063E-01
         -2   -1    0    0    0  501 -0.00000000000E+00  0.00000000000E+00  0.39210618507E+03  0.39210618508E+03  0.25500000000E-02 0.  1.
          2   -1    0    0  501    0  0.00000000000E+00 -0.00000000000E+00 -0.77887985571E+03  0.77887985571E+03  0.25500000000E-02 0. -1.
    8880023    1    1    2    0    0  0.26241712786E+03 -0.10052109892E+03 -0.44878654140E+03  0.84509573796E+03  0.65864270000E+03 0.  1.
    8880022    1    1    2    0    0 -0.26241712786E+03  0.10052109892E+03  0.62012870756E+02  0.32589030283E+03  0.15294330000E+03 0.  0.
<mgrwt>
<rscale>  0 0.58544896E+03</rscale>
<asrwt>0</asrwt>
<pdfrwt beam="1">  1        2 0.11982767E+00 0.71608480E+03</pdfrwt>
<pdfrwt beam="2">  1       -2 0.60324029E-01 0.71608480E+03</pdfrwt>
<totfact> 0.92736075E+01</totfact>
</mgrwt>
</event>
<event>
 4    2  0.2930016E-007  0.1019641E+04  0.7818608E-02  0.9356300E-01
          2   -1    0    0  501    0  0.00000000000E+00  0.00000000000E+00  0.86133663053E+03  0.86133663053E+03  0.25500000000E-02 0. -1.
         -2   -1    0    0    0  501 -0.00000000000E+00 -0.00000000000E+00 -0.13497736017E+04  0.13497736017E+04  0.25500000000E-02 0.  1.
    8880023    1    1    2    0    0 -0.27554392433E+03  0.72796554117E+03  0.32963099793E+03  0.10715993115E+04  0.65864270000E+03 0. -1.
    8880022    1    1    2    0    0  0.27554392433E+03 -0.72796554117E+03 -0.81806796912E+03  0.11395109207E+04  0.15294330000E+03 0.  0.
<mgrwt>
<rscale>  0 0.95760957E+03</rscale>
<asrwt>0</asrwt>
<pdfrwt beam="1">  1        2 0.13251333E+00 0.10196414E+04</pdfrwt>
<pdfrwt beam="2">  1       -2 0.20765748E+00 0.10196414E+04</pdfrwt>
<totfact> 0.36620535E+00</totfact>
</mgrwt>
</event>
<event>
 4    2  0.2930016E-007  0.6793761E+03  0.7818608E-02  0.1009679E+00
          2   -1    0    0  501    0  0.00000000000E+00  0.00000000000E+00  0.13360671359E+04  0.13360671359E+04  0.25500000000E-02 0. -1.
         -2   -1    0    0    0  501 -0.00000000000E+00 -0.00000000000E+00 -0.15459670914E+03  0.15459670916E+03  0.25500000000E-02 0.  1.
    8880023    1    1    2    0    0  0.12419358985E+02 -0.16609485977E+03  0.94046634916E+03  0.11601848573E+04  0.65864270000E+03 0. -1.
    8880022    1    1    2    0    0 -0.12419358985E+02  0.16609485977E+03  0.24100407755E+03  0.33047898773E+03  0.15294330000E+03 0. -1.
<mgrwt>
<rscale>  0 0.51602507E+03</rscale>
<asrwt>0</asrwt>
<pdfrwt beam="1">  1        2 0.20554879E+00 0.67937615E+03</pdfrwt>
<pdfrwt beam="2">  1       -2 0.23784109E-01 0.67937615E+03</pdfrwt>
<totfact> 0.25115310E+02</totfact>
</mgrwt>
</event>
<event>
 4    2  0.2930016E-007  0.1041035E+04  0.7818608E-02  0.9329737E-01
         -2   -1    0    0    0  501 -0.00000000000E+00  0.00000000000E+00  0.46617749655E+03  0.46617749656E+03  0.25500000000E-02 0.  1.
          2   -1    0    0  501    0  0.00000000000E+00 -0.00000000000E+00 -0.32058710810E+04  0.32058710810E+04  0.25500000000E-02 0. -1.
    8880023    1    1    2    0    0 -0.93508932007E+02  0.80074908968E+03 -0.26493222352E+04  0.28465174402E+04  0.65864270000E+03 0.  0.
    8880022    1    1    2    0    0  0.93508932007E+02 -0.80074908968E+03 -0.90371349224E+02  0.82553113737E+03  0.15294330000E+03 0.  0.
<mgrwt>
<rscale>  0 0.98090687E+03</rscale>
<asrwt>0</asrwt>
<pdfrwt beam="1">  1        2 0.49321092E+00 0.10410347E+04</pdfrwt>
<pdfrwt beam="2">  1       -2 0.71719617E-01 0.10410347E+04</pdfrwt>
<totfact> 0.23126216E+00</totfact>
</mgrwt>
</event>
<event>
 4    2  0.2930016E-007  0.6803372E+03  0.7818608E-02  0.1009134E+00
         -2   -1    0    0    0  501 -0.00000000000E+00  0.00000000000E+00  0.48291755212E+03  0.48291755213E+03  0.25500000000E-02 0.  1.
          2   -1    0    0  501    0  0.00000000000E+00 -0.00000000000E+00 -0.48491589265E+03  0.48491589265E+03  0.25500000000E-02 0. -1.
    8880023    1    1    2    0    0 -0.25939465494E+02  0.16845070552E+03 -0.14800359389E+03  0.69624978717E+03  0.65864270000E+03 0. -1.
    8880022    1    1    2    0    0  0.25939465494E+02 -0.16845070552E+03  0.14600525337E+03  0.27158365762E+03  0.15294330000E+03 0.  0.
<mgrwt>
<rscale>  0 0.51820447E+03</rscale>
<asrwt>0</asrwt>
<pdfrwt beam="1">  1        2 0.74602445E-01 0.68033720E+03</pdfrwt>
<pdfrwt beam="2">  1       -2 0.74295008E-01 0.68033720E+03</pdfrwt>
<totfact> 0.10557824E+02</totfact>
</mgrwt>
</event>
<event>
 4    2  0.2930016E-007  0.9161195E+03  0.7818608E-02  0.9500635E-01
         -2   -1    0    0    0  501 -0.00000000000E+00  0.00000000000E+00  0.17603050923E+03  0.17603050925E+03  0.25500000000E-02 0.  1.
          2   -1    0    0  501    0  0.00000000000E+00 -0.00000000000E+00 -0.41457741159E+04  0.41457741159E+04  0.25500000000E-02 0. -1.
    8880023    1    1    2    0    0 -0.45687128986E+03  0.44354643720E+03 -0.31034288080E+04  0.32358222124E+04  0.65864270000E+03 0.  0.
    8880022    1    1    2    0    0  0.45687128986E+03 -0.44354643720E+03 -0.86631479860E+03  0.10859824127E+04  0.15294330000E+03 0.  0.
<mgrwt>
<rscale>  0 0.84237042E+03</rscale>
<asrwt>0</asrwt>
<pdfrwt beam="1">  1        2 0.63781133E+00 0.91611955E+03</pdfrwt>
<pdfrwt beam="2">  1       -2 0.27081620E-01 0.91611955E+03</pdfrwt>
<totfact> 0.34503083E+00</totfact>
</mgrwt>
</event>
<event>
 4    2  0.2930016E-007  0.6938053E+03  0.7818608E-02  0.1002394E+00
          2   -1    0    0  501    0  0.00000000000E+00  0.00000000000E+00  0.68671273042E+03  0.68671273043E+03  0.25500000000E-02 0. -1.
         -2   -1    0    0    0  501 -0.00000000000E+00 -0.00000000000E+00 -0.12992672884E+04  0.12992672884E+04  0.25500000000E-02 0.  1.
    8880023    1    1    2    0    0 -0.20281813356E+03  0.80127616007E+02  0.49149475420E+03  0.85025462646E+03  0.65864270000E+03 0. -1.
    8880022    1    1    2    0    0  0.20281813356E+03 -0.80127616007E+02 -0.11040493122E+04  0.11357253924E+04  0.15294330000E+03 0.  1.
<mgrwt>
<rscale>  0 0.54612895E+03</rscale>
<asrwt>0</asrwt>
<pdfrwt beam="1">  1        2 0.10564811E+00 0.69380533E+03</pdfrwt>
<pdfrwt beam="2">  1       -2 0.19988727E+00 0.69380533E+03</pdfrwt>
<totfact> 0.57513506E+00</totfact>
</mgrwt>
</event>
<event>
 4    2  0.2930016E-007  0.1051997E+04  0.7818608E-02  0.9316485E-01
          2   -1    0    0  501    0  0.00000000000E+00  0.00000000000E+00  0.74387629291E+03  0.74387629291E+03  0.25500000000E-02 0. -1.
         -2   -1    0    0    0  501 -0.00000000000E+00 -0.00000000000E+00 -0.37150613539E+04  0.37150613539E+04  0.25500000000E-02 0.  1.
    8880023    1    1    2    0    0  0.13130283121E+03  0.80971999298E+03  0.29117887061E+03  0.10915503843E+04  0.65864270000E+03 0.  0.
    8880022    1    1    2    0    0 -0.13130283121E+03 -0.80971999298E+03 -0.32623639316E+04  0.33673872625E+04  0.15294330000E+03 0.  0.
<mgrwt>
<rscale>  0 0.99279291E+03</rscale>
<asrwt>0</asrwt>
<pdfrwt beam="1">  1        2 0.11444251E+00 0.10519967E+04</pdfrwt>
<pdfrwt beam="2">  1       -2 0.57154789E+00 0.10519967E+04</pdfrwt>
<totfact> 0.24869340E-02</totfact>
</mgrwt>
</event>
<event>
 4    2  0.2930016E-007  0.7426393E+03  0.7818608E-02  0.9852325E-01
         -2   -1    0    0    0  501 -0.00000000000E+00  0.00000000000E+00  0.10937603701E+04  0.10937603701E+04  0.25500000000E-02 0.  1.
          2   -1    0    0  501    0  0.00000000000E+00 -0.00000000000E+00 -0.67507042889E+03  0.67507042889E+03  0.25500000000E-02 0. -1.
    8880023    1    1    2    0    0 -0.21154253739E+03 -0.27009755915E+03 -0.41764061575E+03  0.85201926432E+03  0.65864270000E+03 0. -1.
    8880022    1    1    2    0    0  0.21154253739E+03  0.27009755915E+03  0.83633055697E+03  0.91681153468E+03  0.15294330000E+03 0.  0.
<mgrwt>
<rscale>  0 0.62628534E+03</rscale>
<asrwt>0</asrwt>
<pdfrwt beam="1">  1        2 0.10385699E+00 0.74263931E+03</pdfrwt>
<pdfrwt beam="2">  1       -2 0.16827082E+00 0.74263931E+03</pdfrwt>
<totfact> 0.95693494E+00</totfact>
</mgrwt>
</event>
<event>
 4    2  0.2930016E-007  0.6591595E+03  0.7818608E-02  0.1025034E+00
          2   -1    0    0  501    0  0.00000000000E+00  0.00000000000E+00  0.48779975447E+03  0.48779975448E+03  0.25500000000E-02 0. -1.
         -2   -1    0    0    0  501 -0.00000000000E+00 -0.00000000000E+00 -0.35673174639E+03  0.35673174640E+03  0.25500000000E-02 0.  1.
    8880023    1    1    2    0    0  0.15665586922E+02  0.20873030841E+02  0.17738773900E+03  0.68261095087E+03  0.65864270000E+03 0. -1.
    8880022    1    1    2    0    0 -0.15665586922E+02 -0.20873030841E+02 -0.46319730913E+02  0.16192055001E+03  0.15294330000E+03 0.  0.
<mgrwt>
<rscale>  0 0.45912782E+03</rscale>
<asrwt>0</asrwt>
<pdfrwt beam="1">  1        2 0.75046116E-01 0.65915954E+03</pdfrwt>
<pdfrwt beam="2">  1       -2 0.54881808E-01 0.65915954E+03</pdfrwt>
<totfact> 0.20054424E+02</totfact>
</mgrwt>
</event>
<event>
 4    2  0.2930016E-007  0.7063187E+03  0.7818608E-02  0.9971934E-01
         -2   -1    0    0    0  501 -0.00000000000E+00  0.00000000000E+00  0.26428646440E+03  0.26428646441E+03  0.25500000000E-02 0.  1.
          2   -1    0    0  501    0  0.00000000000E+00 -0.00000000000E+00 -0.14857421737E+04  0.14857421737E+04  0.25500000000E-02 0. -1.
    8880023    1    1    2    0    0  0.65986466150E+02 -0.24641763805E+03 -0.12655812510E+04  0.14493384612E+04  0.65864270000E+03 0. -1.
    8880022    1    1    2    0    0 -0.65986466150E+02  0.24641763805E+03  0.44125541660E+02  0.30069017692E+03  0.15294330000E+03 0.  0.
<mgrwt>
<rscale>  0 0.56898196E+03</rscale>
<asrwt>0</asrwt>
<pdfrwt beam="1">  1        2 0.22857571E+00 0.70631868E+03</pdfrwt>
<pdfrwt beam="2">  1       -2 0.40659457E-01 0.70631868E+03</pdfrwt>
<totfact> 0.75844490E+01</totfact>
</mgrwt>
</event>
<event>
 4    2  0.2930016E-007  0.9358633E+03  0.7818608E-02  0.9470752E-01
         -2   -1    0    0    0  501 -0.00000000000E+00  0.00000000000E+00  0.49526506155E+03  0.49526506155E+03  0.25500000000E-02 0.  1.
          2   -1    0    0  501    0  0.00000000000E+00 -0.00000000000E+00 -0.16579041992E+04  0.16579041992E+04  0.25500000000E-02 0. -1.
    8880023    1    1    2    0    0 -0.20550122798E+03  0.63229677521E+03 -0.11340623097E+04  0.14703528471E+04  0.65864270000E+03 0. -1.
    8880022    1    1    2    0    0  0.20550122798E+03 -0.63229677521E+03 -0.28576828028E+02  0.68281641365E+03  0.15294330000E+03 0. -1.
<mgrwt>
<rscale>  0 0.86474915E+03</rscale>
<asrwt>0</asrwt>
<pdfrwt beam="1">  1        2 0.25506218E+00 0.93586333E+03</pdfrwt>
<pdfrwt beam="2">  1       -2 0.76194625E-01 0.93586333E+03</pdfrwt>
<totfact> 0.16040506E+01</totfact>
</mgrwt>
</event>
<event>
 4    2  0.2930016E-007  0.6615306E+03  0.7818608E-02  0.1022640E+00
         -2   -1    0    0    0  501 -0.00000000000E+00  0.00000000000E+00  0.16837183553E+03  0.16837183555E+03  0.25500000000E-02 0.  1.
          2   -1    0    0  501    0  0.00000000000E+00 -0.00000000000E+00 -0.11526873117E+04  0.11526873117E+04  0.25500000000E-02 0. -1.
    8880023    1    1    2    0    0 -0.24471413282E+01 -0.61697343826E+02 -0.94147187119E+03  0.11506485307E+04  0.65864270000E+03 0. -1.
    8880022    1    1    2    0    0  0.24471413282E+01  0.61697343826E+02 -0.42843605021E+02  0.17041061658E+03  0.15294330000E+03 0.  0.
<mgrwt>
<rscale>  0 0.46745732E+03</rscale>
<asrwt>0</asrwt>
<pdfrwt beam="1">  1        2 0.17733651E+00 0.66153062E+03</pdfrwt>
<pdfrwt beam="2">  1       -2 0.25903360E-01 0.66153062E+03</pdfrwt>
<totfact> 0.27585545E+02</totfact>
</mgrwt>
</event>
<event>
 4    2  0.2930016E-007  0.7672942E+03  0.7818608E-02  0.9786577E-01
          2   -1    0    0  501    0  0.00000000000E+00  0.00000000000E+00  0.13618058883E+04  0.13618058883E+04  0.25500000000E-02 0. -1.
         -2   -1    0    0    0  501 -0.00000000000E+00 -0.00000000000E+00 -0.41001134472E+03  0.41001134473E+03  0.25500000000E-02 0.  1.
    8880023    1    1    2    0    0 -0.24818713077E+03 -0.30550516743E+03  0.10851144940E+04  0.13289898158E+04  0.65864270000E+03 0. -1.
    8880022    1    1    2    0    0  0.24818713077E+03  0.30550516743E+03 -0.13331995045E+03  0.44282741718E+03  0.15294330000E+03 0.  0.
<mgrwt>
<rscale>  0 0.66087914E+03</rscale>
<asrwt>0</asrwt>
<pdfrwt beam="1">  1        2 0.20950860E+00 0.76729425E+03</pdfrwt>
<pdfrwt beam="2">  1       -2 0.63078668E-01 0.76729425E+03</pdfrwt>
<totfact> 0.36106816E+01</totfact>
</mgrwt>
</event>
<event>
 4    2  0.3830877E-007  0.8434013E+03  0.7818608E-02  0.9623800E-01
         -2   -1    0    0    0  501 -0.00000000000E+00  0.00000000000E+00  0.90652163004E+03  0.90652163004E+03  0.25500000000E-02 0.  1.
          2   -1    0    0  501    0  0.00000000000E+00 -0.00000000000E+00 -0.35980469172E+04  0.35980469172E+04  0.25500000000E-02 0. -1.
    8880023    1    1    2    0    0 -0.47554540558E+03 -0.22665415451E+03 -0.34594886738E+04  0.35608127765E+04  0.65864270000E+03 0.  0.
    8880022    1    1    2    0    0  0.47554540558E+03  0.22665415451E+03  0.76796338668E+03  0.94375577075E+03  0.15294330000E+03 0.  0.
<mgrwt>
<rscale>  0 0.75740779E+03</rscale>
<asrwt>0</asrwt>
<pdfrwt beam="1">  1        2 0.55354567E+00 0.84340130E+03</pdfrwt>
<pdfrwt beam="2">  1       -2 0.13946487E+00 0.84340130E+03</pdfrwt>
<totfact> 0.26869716E-01</totfact>
</mgrwt>
</event>
<event>
 4    2  0.2930016E-007  0.7042612E+03  0.7818608E-02  0.9979963E-01
          2   -1    0    0  501    0  0.00000000000E+00  0.00000000000E+00  0.87473890012E+03  0.87473890012E+03  0.25500000000E-02 0. -1.
         -2   -1    0    0    0  501 -0.00000000000E+00 -0.00000000000E+00 -0.35603657415E+03  0.35603657416E+03  0.25500000000E-02 0.  1.
    8880023    1    1    2    0    0 -0.24830993984E+03 -0.22711969809E+02  0.60215027172E+03  0.92658988544E+03  0.65864270000E+03 0. -1.
    8880022    1    1    2    0    0  0.24830993984E+03  0.22711969809E+02 -0.83447945755E+02  0.30418558885E+03  0.15294330000E+03 0.  0.
<mgrwt>
<rscale>  0 0.56537623E+03</rscale>
<asrwt>0</asrwt>
<pdfrwt beam="1">  1        2 0.13457522E+00 0.70426122E+03</pdfrwt>
<pdfrwt beam="2">  1       -2 0.54774857E-01 0.70426122E+03</pdfrwt>
<totfact> 0.97211548E+01</totfact>
</mgrwt>
</event>
<event>
 4    2  0.2930016E-007  0.7659368E+03  0.7818608E-02  0.9789973E-01
          2   -1    0    0  501    0  0.00000000000E+00  0.00000000000E+00  0.50876249809E+03  0.50876249809E+03  0.25500000000E-02 0. -1.
         -2   -1    0    0    0  501 -0.00000000000E+00 -0.00000000000E+00 -0.12478596700E+04  0.12478596700E+04  0.25500000000E-02 0.  1.
    8880023    1    1    2    0    0  0.29174865448E+03 -0.26025305447E+03  0.14350559339E+03  0.77926439117E+03  0.65864270000E+03 0.  0.
    8880022    1    1    2    0    0 -0.29174865448E+03  0.26025305447E+03 -0.88260276528E+03  0.97735777689E+03  0.15294330000E+03 0.  0.
<mgrwt>
<rscale>  0 0.65903416E+03</rscale>
<asrwt>0</asrwt>
<pdfrwt beam="1">  1        2 0.78271154E-01 0.76593677E+03</pdfrwt>
<pdfrwt beam="2">  1       -2 0.19197841E+00 0.76593677E+03</pdfrwt>
<totfact> 0.92219214E+00</totfact>
</mgrwt>
</event>
<event>
 4    2  0.2930016E-007  0.8783384E+03  0.7818608E-02  0.9561740E-01
         -2   -1    0    0    0  501 -0.00000000000E+00  0.00000000000E+00  0.23333283849E+03  0.23333283850E+03  0.25500000000E-02 0.  1.
          2   -1    0    0  501    0  0.00000000000E+00 -0.00000000000E+00 -0.30579936263E+04  0.30579936263E+04  0.25500000000E-02 0. -1.
    8880023    1    1    2    0    0  0.35126174359E+03  0.46290737595E+03 -0.23995971535E+04  0.25552973910E+04  0.65864270000E+03 0.  0.
    8880022    1    1    2    0    0 -0.35126174359E+03 -0.46290737595E+03 -0.42506363429E+03  0.73602907377E+03  0.15294330000E+03 0.  0.
<mgrwt>
<rscale>  0 0.79881049E+03</rscale>
<asrwt>0</asrwt>
<pdfrwt beam="1">  1        2 0.47046053E+00 0.87833835E+03</pdfrwt>
<pdfrwt beam="2">  1       -2 0.35897362E-01 0.87833835E+03</pdfrwt>
<totfact> 0.12166821E+01</totfact>
</mgrwt>
</event>
<event>
 4    2  0.2930016E-007  0.8692285E+03  0.7818608E-02  0.9577354E-01
         -2   -1    0    0    0  501 -0.00000000000E+00  0.00000000000E+00  0.10040199317E+04  0.10040199317E+04  0.25500000000E-02 0.  1.
          2   -1    0    0  501    0  0.00000000000E+00 -0.00000000000E+00 -0.99811673071E+03  0.99811673072E+03  0.25500000000E-02 0. -1.
    8880023    1    1    2    0    0 -0.51321960301E+03 -0.24156477258E+03 -0.67666503262E+03  0.11015596547E+04  0.65864270000E+03 0. -1.
    8880022    1    1    2    0    0  0.51321960301E+03  0.24156477258E+03  0.68256823364E+03  0.90057700773E+03  0.15294330000E+03 0.  0.
<mgrwt>
<rscale>  0 0.78813351E+03</rscale>
<asrwt>0</asrwt>
<pdfrwt beam="1">  1        2 0.15355642E+00 0.86922845E+03</pdfrwt>
<pdfrwt beam="2">  1       -2 0.15446460E+00 0.86922845E+03</pdfrwt>
<totfact> 0.70301477E+00</totfact>
</mgrwt>
</event>
<event>
 4    2  0.2930016E-007  0.7548100E+03  0.7818608E-02  0.9818734E-01
         -2   -1    0    0    0  501 -0.00000000000E+00  0.00000000000E+00  0.38890787785E+03  0.38890787786E+03  0.25500000000E-02 0.  1.
          2   -1    0    0  501    0  0.00000000000E+00 -0.00000000000E+00 -0.20170182303E+04  0.20170182303E+04  0.25500000000E-02 0. -1.
    8880023    1    1    2    0    0 -0.35167651034E+03 -0.11068709177E+03 -0.18146246709E+04  0.19653500713E+04  0.65864270000E+03 0.  0.
    8880022    1    1    2    0    0  0.35167651034E+03  0.11068709177E+03  0.18651431850E+03  0.44057603683E+03  0.15294330000E+03 0.  0.
<mgrwt>
<rscale>  0 0.64366801E+03</rscale>
<asrwt>0</asrwt>
<pdfrwt beam="1">  1        2 0.31031049E+00 0.75481005E+03</pdfrwt>
<pdfrwt beam="2">  1       -2 0.59831982E-01 0.75481005E+03</pdfrwt>
<totfact> 0.17611347E+01</totfact>
</mgrwt>
</event>
<event>
 4    2  0.2930016E-007  0.6857433E+03  0.7818608E-02  0.1006245E+00
         -2   -1    0    0    0  501 -0.00000000000E+00  0.00000000000E+00  0.69302529929E+03  0.69302529929E+03  0.25500000000E-02 0.  1.
          2   -1    0    0  501    0  0.00000000000E+00 -0.00000000000E+00 -0.42658210007E+03  0.42658210008E+03  0.25500000000E-02 0. -1.
    8880023    1    1    2    0    0 -0.17954949011E+03 -0.64773339880E+02 -0.85462606570E+02  0.69104823880E+03  0.65864270000E+03 0. -1.
    8880022    1    1    2    0    0  0.17954949011E+03  0.64773339880E+02  0.35190580578E+03  0.42855916058E+03  0.15294330000E+03 0.  0.
<mgrwt>
<rscale>  0 0.52994614E+03</rscale>
<asrwt>0</asrwt>
<pdfrwt beam="1">  1        2 0.65628016E-01 0.68574325E+03</pdfrwt>
<pdfrwt beam="2">  1       -2 0.10661928E+00 0.68574325E+03</pdfrwt>
<totfact> 0.53189231E+01</totfact>
</mgrwt>
</event>
<event>
 4    2  0.2930016E-007  0.7635660E+03  0.7818608E-02  0.9795961E-01
          2   -1    0    0  501    0  0.00000000000E+00  0.00000000000E+00  0.77437243427E+03  0.77437243427E+03  0.25500000000E-02 0. -1.
         -2   -1    0    0    0  501 -0.00000000000E+00 -0.00000000000E+00 -0.54857615021E+03  0.54857615021E+03  0.25500000000E-02 0.  1.
    8880023    1    1    2    0    0 -0.17892956490E+03 -0.34235516644E+03  0.41203874629E+03  0.86764565572E+03  0.65864270000E+03 0.  0.
    8880022    1    1    2    0    0  0.17892956490E+03  0.34235516644E+03 -0.18624246223E+03  0.45530292876E+03  0.15294330000E+03 0.  0.
<mgrwt>
<rscale>  0 0.65579727E+03</rscale>
<asrwt>0</asrwt>
<pdfrwt beam="1">  1        2 0.11913422E+00 0.76356601E+03</pdfrwt>
<pdfrwt beam="2">  1       -2 0.84396331E-01 0.76356601E+03</pdfrwt>
<totfact> 0.44592632E+01</totfact>
</mgrwt>
</event>
<event>
 4    2  0.2930016E-007  0.8924258E+03  0.7818608E-02  0.9538302E-01
          2   -1    0    0  501    0  0.00000000000E+00  0.00000000000E+00  0.10775289266E+04  0.10775289266E+04  0.25500000000E-02 0. -1.
         -2   -1    0    0    0  501 -0.00000000000E+00 -0.00000000000E+00 -0.77379527785E+03  0.77379527785E+03  0.25500000000E-02 0.  1.
    8880023    1    1    2    0    0  0.28139434628E+03 -0.53238228130E+03 -0.34155565306E+03  0.95555436369E+03  0.65864270000E+03 0.  1.
    8880022    1    1    2    0    0 -0.28139434628E+03  0.53238228130E+03  0.64528930177E+03  0.89576984072E+03  0.15294330000E+03 0.  0.
<mgrwt>
<rscale>  0 0.81517953E+03</rscale>
<asrwt>0</asrwt>
<pdfrwt beam="1">  1        2 0.16577368E+00 0.89242584E+03</pdfrwt>
<pdfrwt beam="2">  1       -2 0.11904543E+00 0.89242584E+03</pdfrwt>
<totfact> 0.12216221E+01</totfact>
</mgrwt>
</event>
<event>
 4    2  0.2930016E-007  0.6763777E+03  0.7818608E-02  0.1011452E+00
          2   -1    0    0  501    0  0.00000000000E+00  0.00000000000E+00  0.85874110280E+03  0.85874110280E+03  0.25500000000E-02 0. -1.
         -2   -1    0    0    0  501 -0.00000000000E+00 -0.00000000000E+00 -0.74305312155E+03  0.74305312155E+03  0.25500000000E-02 0.  1.
    8880023    1    1    2    0    0  0.10103571455E+03  0.11605325868E+03  0.70308640776E+03  0.97561123277E+03  0.65864270000E+03 0.  0.
    8880022    1    1    2    0    0 -0.10103571455E+03 -0.11605325868E+03 -0.58739842651E+03  0.62618299158E+03  0.15294330000E+03 0.  0.
<mgrwt>
<rscale>  0 0.50901776E+03</rscale>
<asrwt>0</asrwt>
<pdfrwt beam="1">  1        2 0.13211402E+00 0.67637769E+03</pdfrwt>
<pdfrwt beam="2">  1       -2 0.11431586E+00 0.67637769E+03</pdfrwt>
<totfact> 0.19157251E+01</totfact>
</mgrwt>
</event>
<event>
 4    2  0.2930016E-007  0.6801105E+03  0.7818608E-02  0.1009261E+00
         -2   -1    0    0    0  501 -0.00000000000E+00  0.00000000000E+00  0.36170309011E+03  0.36170309012E+03  0.25500000000E-02 0.  1.
          2   -1    0    0  501    0  0.00000000000E+00 -0.00000000000E+00 -0.65357149927E+03  0.65357149928E+03  0.25500000000E-02 0. -1.
    8880023    1    1    2    0    0 -0.11208094331E+03 -0.12719260790E+03 -0.36963892871E+03  0.77406927419E+03  0.65864270000E+03 0.  0.
    8880022    1    1    2    0    0  0.11208094331E+03  0.12719260790E+03  0.77770519548E+02  0.24120531521E+03  0.15294330000E+03 0.  0.
<mgrwt>
<rscale>  0 0.51769313E+03</rscale>
<asrwt>0</asrwt>
<pdfrwt beam="1">  1        2 0.10054946E+00 0.68011051E+03</pdfrwt>
<pdfrwt beam="2">  1       -2 0.55646629E-01 0.68011051E+03</pdfrwt>
<totfact> 0.13750833E+02</totfact>
</mgrwt>
</event>
<event>
 4    2  0.2930016E-007  0.7444649E+03  0.7818608E-02  0.9847127E-01
          2   -1    0    0  501    0  0.00000000000E+00  0.00000000000E+00  0.24850850097E+04  0.24850850097E+04  0.25500000000E-02 0. -1.
         -2   -1    0    0    0  501 -0.00000000000E+00 -0.00000000000E+00 -0.15323011405E+03  0.15323011407E+03  0.25500000000E-02 0.  1.
    8880023    1    1    2    0    0  0.26969226674E+03  0.21836636125E+03  0.20011801890E+04  0.21351698156E+04  0.65864270000E+03 0. -1.
    8880022    1    1    2    0    0 -0.26969226674E+03 -0.21836636125E+03  0.33067470665E+03  0.50314530814E+03  0.15294330000E+03 0.  1.
<mgrwt>
<rscale>  0 0.62893620E+03</rscale>
<asrwt>0</asrwt>
<pdfrwt beam="1">  1        2 0.38232071E+00 0.74446490E+03</pdfrwt>
<pdfrwt beam="2">  1       -2 0.23573868E-01 0.74446490E+03</pdfrwt>
<totfact> 0.58878530E+01</totfact>
</mgrwt>
</event>
<event>
 4    2  0.2930016E-007  0.8119419E+03  0.7818608E-02  0.9685546E-01
          2   -1    0    0  501    0  0.00000000000E+00  0.00000000000E+00  0.29516329965E+04  0.29516329965E+04  0.25500000000E-02 0. -1.
         -2   -1    0    0    0  501 -0.00000000000E+00 -0.00000000000E+00 -0.29164578117E+03  0.29164578118E+03  0.25500000000E-02 0.  1.
    8880023    1    1    2    0    0  0.30531848159E+03 -0.36362071074E+03  0.26199105787E+04  0.27428417823E+04  0.65864270000E+03 0. -1.
    8880022    1    1    2    0    0 -0.30531848159E+03  0.36362071074E+03  0.40076636653E+02  0.50043699533E+03  0.15294330000E+03 0.  0.
<mgrwt>
<rscale>  0 0.71883924E+03</rscale>
<asrwt>0</asrwt>
<pdfrwt beam="1">  1        2 0.45409738E+00 0.81194187E+03</pdfrwt>
<pdfrwt beam="2">  1       -2 0.44868582E-01 0.81194187E+03</pdfrwt>
<totfact> 0.92396069E+00</totfact>
</mgrwt>
</event>
<event>
 4    2  0.2930016E-007  0.1040229E+04  0.7818608E-02  0.9330720E-01
          2   -1    0    0  501    0  0.00000000000E+00  0.00000000000E+00  0.37329127781E+04  0.37329127781E+04  0.25500000000E-02 0. -1.
         -2   -1    0    0    0  501 -0.00000000000E+00 -0.00000000000E+00 -0.87387750006E+03  0.87387750006E+03  0.25500000000E-02 0.  1.
    8880023    1    1    2    0    0  0.66301779141E+03  0.45680885961E+03 -0.49648424233E+03  0.11526377293E+04  0.65864270000E+03 0.  0.
    8880022    1    1    2    0    0 -0.66301779141E+03 -0.45680885961E+03  0.33555195204E+04  0.34541525488E+04  0.15294330000E+03 0.  0.
<mgrwt>
<rscale>  0 0.98003233E+03</rscale>
<asrwt>0</asrwt>
<pdfrwt beam="1">  1        2 0.57429426E+00 0.10402294E+04</pdfrwt>
<pdfrwt beam="2">  1       -2 0.13444269E+00 0.10402294E+04</pdfrwt>
<totfact> 0.22671733E-01</totfact>
</mgrwt>
</event>
<event>
 4    2  0.2930016E-007  0.7382572E+03  0.7818608E-02  0.9865053E-01
         -2   -1    0    0    0  501 -0.00000000000E+00  0.00000000000E+00  0.76918040806E+03  0.76918040807E+03  0.25500000000E-02 0.  1.
          2   -1    0    0  501    0  0.00000000000E+00 -0.00000000000E+00 -0.12840689021E+04  0.12840689021E+04  0.25500000000E-02 0. -1.
    8880023    1    1    2    0    0 -0.31139340245E+03 -0.11936335515E+03 -0.11224697345E+04  0.13434887319E+04  0.65864270000E+03 0.  0.
    8880022    1    1    2    0    0  0.31139340245E+03  0.11936335515E+03  0.60758124047E+03  0.70976057824E+03  0.15294330000E+03 0.  0.
<mgrwt>
<rscale>  0 0.61985264E+03</rscale>
<asrwt>0</asrwt>
<pdfrwt beam="1">  1        2 0.19754906E+00 0.73825718E+03</pdfrwt>
<pdfrwt beam="2">  1       -2 0.11833545E+00 0.73825718E+03</pdfrwt>
<totfact> 0.94955480E+00</totfact>
</mgrwt>
</event>
<event>
 4    2  0.2930016E-007  0.1261640E+04  0.7818608E-02  0.9099415E-01
         -2   -1    0    0    0  501 -0.00000000000E+00  0.00000000000E+00  0.63672209895E+03  0.63672209895E+03  0.25500000000E-02 0.  1.
          2   -1    0    0  501    0  0.00000000000E+00 -0.00000000000E+00 -0.24650994967E+04  0.24650994967E+04  0.25500000000E-02 0. -1.
    8880023    1    1    2    0    0  0.89962516037E+03  0.59042392436E+03 -0.43468580181E+03  0.13344241425E+04  0.65864270000E+03 0.  0.
    8880022    1    1    2    0    0 -0.89962516037E+03 -0.59042392436E+03 -0.13936915959E+04  0.17673974531E+04  0.15294330000E+03 0.  1.
<mgrwt>
<rscale>  0 0.12154790E+04</rscale>
<asrwt>0</asrwt>
<pdfrwt beam="1">  1        2 0.37924607E+00 0.12616402E+04</pdfrwt>
<pdfrwt beam="2">  1       -2 0.97957247E-01 0.12616402E+04</pdfrwt>
<totfact> 0.30886250E+00</totfact>
</mgrwt>
</event>
<event>
 4    2  0.2930016E-007  0.8238895E+03  0.7818608E-02  0.9661341E-01
         -2   -1    0    0    0  501 -0.00000000000E+00  0.00000000000E+00  0.31469638649E+03  0.31469638650E+03  0.25500000000E-02 0.  1.
          2   -1    0    0  501    0  0.00000000000E+00 -0.00000000000E+00 -0.22584575553E+04  0.22584575553E+04  0.25500000000E-02 0. -1.
    8880023    1    1    2    0    0 -0.40778961887E+03 -0.28051981873E+03 -0.34615519060E+03  0.89365393985E+03  0.65864270000E+03 0.  0.
    8880022    1    1    2    0    0  0.40778961887E+03  0.28051981873E+03 -0.15976059782E+04  0.16795000020E+04  0.15294330000E+03 0.  0.
<mgrwt>
<rscale>  0 0.73365955E+03</rscale>
<asrwt>0</asrwt>
<pdfrwt beam="1">  1        2 0.34745500E+00 0.82388952E+03</pdfrwt>
<pdfrwt beam="2">  1       -2 0.48414830E-01 0.82388952E+03</pdfrwt>
<totfact> 0.19906649E+01</totfact>
</mgrwt>
</event>
<event>
 4    2  0.2930016E-007  0.7227353E+03  0.7818608E-02  0.9913437E-01
         -2   -1    0    0    0  501 -0.00000000000E+00  0.00000000000E+00  0.55778933275E+03  0.55778933276E+03  0.25500000000E-02 0.  1.
          2   -1    0    0  501    0  0.00000000000E+00 -0.00000000000E+00 -0.50754373047E+03  0.50754373048E+03  0.25500000000E-02 0. -1.
    8880023    1    1    2    0    0 -0.26948148747E+03 -0.12615775930E+03 -0.21980979717E+02  0.72306944483E+03  0.65864270000E+03 0.  0.
    8880022    1    1    2    0    0  0.26948148747E+03  0.12615775930E+03  0.72226582001E+02  0.34226361840E+03  0.15294330000E+03 0. -1.
<mgrwt>
<rscale>  0 0.59614463E+03</rscale>
<asrwt>0</asrwt>
<pdfrwt beam="1">  1        2 0.78083651E-01 0.72273526E+03</pdfrwt>
<pdfrwt beam="2">  1       -2 0.85813743E-01 0.72273526E+03</pdfrwt>
<totfact> 0.72279787E+01</totfact>
</mgrwt>
</event>
<event>
 4    2  0.2930016E-007  0.1087312E+04  0.7818608E-02  0.9275316E-01
         -2   -1    0    0    0  501 -0.00000000000E+00  0.00000000000E+00  0.47038056183E+03  0.47038056183E+03  0.25500000000E-02 0.  1.
          2   -1    0    0  501    0  0.00000000000E+00 -0.00000000000E+00 -0.23147635884E+04  0.23147635884E+04  0.25500000000E-02 0. -1.
    8880023    1    1    2    0    0  0.84834740616E+03 -0.16954054634E+03 -0.14741864167E+04  0.18317950529E+04  0.65864270000E+03 0. -1.
    8880022    1    1    2    0    0 -0.84834740616E+03  0.16954054634E+03 -0.37019660984E+03  0.95334909731E+03  0.15294330000E+03 0.  0.
<mgrwt>
<rscale>  0 0.10308745E+04</rscale>
<asrwt>0</asrwt>
<pdfrwt beam="1">  1        2 0.35611747E+00 0.10873121E+04</pdfrwt>
<pdfrwt beam="2">  1       -2 0.72366242E-01 0.10873121E+04</pdfrwt>
<totfact> 0.76641512E+00</totfact>
</mgrwt>
</event>
<event>
 4    2  0.2930016E-007  0.6850909E+03  0.7818608E-02  0.1006579E+00
         -2   -1    0    0    0  501 -0.00000000000E+00  0.00000000000E+00  0.95093640024E+02  0.95093640058E+02  0.25500000000E-02 0.  1.
          2   -1    0    0  501    0  0.00000000000E+00 -0.00000000000E+00 -0.30365175174E+04  0.30365175174E+04  0.25500000000E-02 0. -1.
    8880023    1    1    2    0    0  0.18628244806E+03 -0.28951734646E+02 -0.27134158290E+04  0.27985666011E+04  0.65864270000E+03 0. -1.
    8880022    1    1    2    0    0 -0.18628244806E+03  0.28951734646E+02 -0.22800804841E+03  0.33304455641E+03  0.15294330000E+03 0.  0.
<mgrwt>
<rscale>  0 0.52857198E+03</rscale>
<asrwt>0</asrwt>
<pdfrwt beam="1">  1        2 0.46715647E+00 0.68509091E+03</pdfrwt>
<pdfrwt beam="2">  1       -2 0.14629793E-01 0.68509091E+03</pdfrwt>
<totfact> 0.64374079E+01</totfact>
</mgrwt>
</event>
<event>
 4    2  0.2930016E-007  0.1076065E+04  0.7818608E-02  0.9288184E-01
          2   -1    0    0  501    0  0.00000000000E+00  0.00000000000E+00  0.29757618914E+04  0.29757618914E+04  0.25500000000E-02 0. -1.
         -2   -1    0    0    0  501 -0.00000000000E+00 -0.00000000000E+00 -0.63212510547E+03  0.63212510548E+03  0.25500000000E-02 0.  1.
    8880023    1    1    2    0    0  0.64948407477E+03 -0.54979689814E+03  0.25068452485E+04  0.27280376644E+04  0.65864270000E+03 0. -1.
    8880022    1    1    2    0    0 -0.64948407477E+03  0.54979689814E+03 -0.16320846251E+03  0.87984933247E+03  0.15294330000E+03 0.  0.
<mgrwt>
<rscale>  0 0.10187795E+04</rscale>
<asrwt>0</asrwt>
<pdfrwt beam="1">  1        2 0.45780953E+00 0.10760652E+04</pdfrwt>
<pdfrwt beam="2">  1       -2 0.97250015E-01 0.10760652E+04</pdfrwt>
<totfact> 0.16025828E+00</totfact>
</mgrwt>
</event>
<event>
 4    2  0.2930016E-007  0.1068778E+04  0.7818608E-02  0.9296642E-01
          2   -1    0    0  501    0  0.00000000000E+00  0.00000000000E+00  0.25807470120E+04  0.25807470120E+04  0.25500000000E-02 0. -1.
         -2   -1    0    0    0  501 -0.00000000000E+00 -0.00000000000E+00 -0.10514055693E+04  0.10514055693E+04  0.25500000000E-02 0.  1.
    8880023    1    1    2    0    0  0.54859184590E+03  0.63837460687E+03  0.22645854220E+04  0.25041230984E+04  0.65864270000E+03 0. -1.
    8880022    1    1    2    0    0 -0.54859184590E+03 -0.63837460687E+03 -0.73524397937E+03  0.11280294829E+04  0.15294330000E+03 0.  0.
<mgrwt>
<rscale>  0 0.10109263E+04</rscale>
<asrwt>0</asrwt>
<pdfrwt beam="1">  1        2 0.39703800E+00 0.10687775E+04</pdfrwt>
<pdfrwt beam="2">  1       -2 0.16175470E+00 0.10687775E+04</pdfrwt>
<totfact> 0.76089965E-01</totfact>
</mgrwt>
</event>
<event>
 4    2  0.2930016E-007  0.6752445E+03  0.7818608E-02  0.1012153E+00
         -2   -1    0    0    0  501 -0.00000000000E+00  0.00000000000E+00  0.14629298142E+04  0.14629298142E+04  0.25500000000E-02 0.  1.
          2   -1    0    0  501    0  0.00000000000E+00 -0.00000000000E+00 -0.26811068383E+03  0.26811068384E+03  0.25500000000E-02 0. -1.
    8880023    1    1    2    0    0 -0.12655780957E+03 -0.78281613434E+02  0.18669411834E+03  0.70057818282E+03  0.65864270000E+03 0. -1.
    8880022    1    1    2    0    0  0.12655780957E+03  0.78281613434E+02  0.10081250120E+04  0.10304623152E+04  0.15294330000E+03 0.  0.
<mgrwt>
<rscale>  0 0.50628002E+03</rscale>
<asrwt>0</asrwt>
<pdfrwt beam="1">  1        2 0.41247797E-01 0.67524447E+03</pdfrwt>
<pdfrwt beam="2">  1       -2 0.22506613E+00 0.67524447E+03</pdfrwt>
<totfact> 0.11763543E+01</totfact>
</mgrwt>
</event>
<event>
 4    2  0.2930016E-007  0.1147608E+04  0.7818608E-02  0.9209814E-01
         -2   -1    0    0    0  501 -0.00000000000E+00  0.00000000000E+00  0.79232305281E+03  0.79232305282E+03  0.25500000000E-02 0.  1.
          2   -1    0    0  501    0  0.00000000000E+00 -0.00000000000E+00 -0.18806144896E+04  0.18806144896E+04  0.25500000000E-02 0. -1.
    8880023    1    1    2    0    0  0.90443565896E+03  0.25532515539E+03  0.98011711153E+02  0.11517861338E+04  0.65864270000E+03 0.  1.
    8880022    1    1    2    0    0 -0.90443565896E+03 -0.25532515539E+03 -0.11863031479E+04  0.15211514086E+04  0.15294330000E+03 0. -1.
<mgrwt>
<rscale>  0 0.10952706E+04</rscale>
<asrwt>0</asrwt>
<pdfrwt beam="1">  1        2 0.28932531E+00 0.11476084E+04</pdfrwt>
<pdfrwt beam="2">  1       -2 0.12189585E+00 0.11476084E+04</pdfrwt>
<totfact> 0.38986203E+00</totfact>
</mgrwt>
</event>
<event>
 4    2  0.2930016E-007  0.7547444E+03  0.7818608E-02  0.9818909E-01
         -2   -1    0    0    0  501 -0.00000000000E+00  0.00000000000E+00  0.17702859472E+03  0.17702859474E+03  0.25500000000E-02 0.  1.
          2   -1    0    0  501    0  0.00000000000E+00 -0.00000000000E+00 -0.27106967445E+04  0.27106967445E+04  0.25500000000E-02 0. -1.
    8880023    1    1    2    0    0  0.29679067310E+03 -0.21850434873E+03 -0.23102521011E+04  0.24304122760E+04  0.65864270000E+03 0. -1.
    8880022    1    1    2    0    0 -0.29679067310E+03  0.21850434873E+03 -0.22341604868E+03  0.45731306331E+03  0.15294330000E+03 0.  0.
<mgrwt>
<rscale>  0 0.64357592E+03</rscale>
<asrwt>0</asrwt>
<pdfrwt beam="1">  1        2 0.41703024E+00 0.75474437E+03</pdfrwt>
<pdfrwt beam="2">  1       -2 0.27235170E-01 0.75474437E+03</pdfrwt>
<totfact> 0.33609216E+01</totfact>
</mgrwt>
</event>
<event>
 4    2  0.2930016E-007  0.7199326E+03  0.7818608E-02  0.9922814E-01
          2   -1    0    0  501    0  0.00000000000E+00  0.00000000000E+00  0.99369063007E+03  0.99369063008E+03  0.25500000000E-02 0. -1.
         -2   -1    0    0    0  501 -0.00000000000E+00 -0.00000000000E+00 -0.54058435893E+03  0.54058435893E+03  0.25500000000E-02 0.  1.
    8880023    1    1    2    0    0 -0.23704455329E+03 -0.16823369935E+03  0.78650985562E+03  0.10662554371E+04  0.65864270000E+03 0.  0.
    8880022    1    1    2    0    0  0.23704455329E+03  0.16823369935E+03 -0.33340358447E+03  0.46801955194E+03  0.15294330000E+03 0.  0.
<mgrwt>
<rscale>  0 0.59168243E+03</rscale>
<asrwt>0</asrwt>
<pdfrwt beam="1">  1        2 0.15287548E+00 0.71993257E+03</pdfrwt>
<pdfrwt beam="2">  1       -2 0.83166826E-01 0.71993257E+03</pdfrwt>
<totfact> 0.32801704E+01</totfact>
</mgrwt>
</event>
<event>
 4    2  0.2930016E-007  0.7922512E+03  0.7818608E-02  0.9727808E-01
         -2   -1    0    0    0  501 -0.00000000000E+00  0.00000000000E+00  0.20382433213E+03  0.20382433215E+03  0.25500000000E-02 0.  1.
          2   -1    0    0  501    0  0.00000000000E+00 -0.00000000000E+00 -0.25138688827E+04  0.25138688827E+04  0.25500000000E-02 0. -1.
    8880023    1    1    2    0    0  0.13181068162E+03 -0.42009243484E+03 -0.20172933699E+04  0.21672873497E+04  0.65864270000E+03 0.  0.
    8880022    1    1    2    0    0 -0.13181068162E+03  0.42009243484E+03 -0.29275118065E+03  0.55040586514E+03  0.15294330000E+03 0.  0.
<mgrwt>
<rscale>  0 0.69384982E+03</rscale>
<asrwt>0</asrwt>
<pdfrwt beam="1">  1        2 0.38674904E+00 0.79225117E+03</pdfrwt>
<pdfrwt beam="2">  1       -2 0.31357591E-01 0.79225117E+03</pdfrwt>
<totfact> 0.33441599E+01</totfact>
</mgrwt>
</event>
<event>
 4    2  0.2930016E-007  0.7365031E+03  0.7818608E-02  0.9870253E-01
          2   -1    0    0  501    0  0.00000000000E+00  0.00000000000E+00  0.94465333264E+03  0.94465333264E+03  0.25500000000E-02 0. -1.
         -2   -1    0    0    0  501 -0.00000000000E+00 -0.00000000000E+00 -0.12980679675E+04  0.12980679675E+04  0.25500000000E-02 0.  1.
    8880023    1    1    2    0    0  0.29115625531E+03  0.15444930594E+03  0.76790172751E+03  0.10640064955E+04  0.65864270000E+03 0. -1.
    8880022    1    1    2    0    0 -0.29115625531E+03 -0.15444930594E+03 -0.11213163623E+04  0.11787148046E+04  0.15294330000E+03 0.  0.
<mgrwt>
<rscale>  0 0.61724865E+03</rscale>
<asrwt>0</asrwt>
<pdfrwt beam="1">  1        2 0.14533128E+00 0.73650306E+03</pdfrwt>
<pdfrwt beam="2">  1       -2 0.19970277E+00 0.73650306E+03</pdfrwt>
<totfact> 0.37498962E+00</totfact>
</mgrwt>
</event>
<event>
 4    2  0.2930016E-007  0.6776574E+03  0.7818608E-02  0.1010681E+00
         -2   -1    0    0    0  501 -0.00000000000E+00  0.00000000000E+00  0.23783717474E+03  0.23783717475E+03  0.25500000000E-02 0.  1.
          2   -1    0    0  501    0  0.00000000000E+00 -0.00000000000E+00 -0.12976580550E+04  0.12976580550E+04  0.25500000000E-02 0. -1.
    8880023    1    1    2    0    0  0.10999093170E+03 -0.11537461619E+03 -0.11177394939E+04  0.13071193861E+04  0.65864270000E+03 0.  0.
    8880022    1    1    2    0    0 -0.10999093170E+03  0.11537461619E+03  0.57918613660E+02  0.22837584360E+03  0.15294330000E+03 0.  1.
<mgrwt>
<rscale>  0 0.51204859E+03</rscale>
<asrwt>0</asrwt>
<pdfrwt beam="1">  1        2 0.19963970E+00 0.67765737E+03</pdfrwt>
<pdfrwt beam="2">  1       -2 0.36590335E-01 0.67765737E+03</pdfrwt>
<totfact> 0.11912439E+02</totfact>
</mgrwt>
</event>
<event>
 4    2  0.2930016E-007  0.9533941E+03  0.7818608E-02  0.9445247E-01
         -2   -1    0    0    0  501 -0.00000000000E+00  0.00000000000E+00  0.21560024324E+04  0.21560024324E+04  0.25500000000E-02 0.  1.
          2   -1    0    0  501    0  0.00000000000E+00 -0.00000000000E+00 -0.57439035484E+03  0.57439035485E+03  0.25500000000E-02 0. -1.
    8880023    1    1    2    0    0 -0.50361422006E+03 -0.47066207279E+03 -0.47783829743E+02  0.95459078670E+03  0.65864270000E+03 0.  0.
    8880022    1    1    2    0    0  0.50361422006E+03  0.47066207279E+03  0.16293959073E+04  0.17758020006E+04  0.15294330000E+03 0.  0.
<mgrwt>
<rscale>  0 0.88443725E+03</rscale>
<asrwt>0</asrwt>
<pdfrwt beam="1">  1        2 0.88367748E-01 0.95339408E+03</pdfrwt>
<pdfrwt beam="2">  1       -2 0.33169268E+00 0.95339408E+03</pdfrwt>
<totfact> 0.10776971E+00</totfact>
</mgrwt>
</event>
<event>
 4    2  0.2930016E-007  0.7304769E+03  0.7818608E-02  0.9888609E-01
         -2   -1    0    0    0  501 -0.00000000000E+00  0.00000000000E+00  0.15954676828E+04  0.15954676828E+04  0.25500000000E-02 0.  1.
          2   -1    0    0  501    0  0.00000000000E+00 -0.00000000000E+00 -0.18422839216E+03  0.18422839218E+03  0.25500000000E-02 0. -1.
    8880023    1    1    2    0    0 -0.13587282198E+03 -0.28517528148E+03  0.10124685880E+04  0.12484747546E+04  0.65864270000E+03 0.  0.
    8880022    1    1    2    0    0  0.13587282198E+03  0.28517528148E+03  0.39877070263E+03  0.53122132037E+03  0.15294330000E+03 0. -1.
<mgrwt>
<rscale>  0 0.60816516E+03</rscale>
<asrwt>0</asrwt>
<pdfrwt beam="1">  1        2 0.28342830E-01 0.73047695E+03</pdfrwt>
<pdfrwt beam="2">  1       -2 0.24545656E+00 0.73047695E+03</pdfrwt>
<totfact> 0.13363574E+01</totfact>
</mgrwt>
</event>
<event>
 4    2  0.2930016E-007  0.8066443E+03  0.7818608E-02  0.9696610E-01
         -2   -1    0    0    0  501 -0.00000000000E+00  0.00000000000E+00  0.93985648711E+03  0.93985648711E+03  0.25500000000E-02 0.  1.
          2   -1    0    0  501    0  0.00000000000E+00 -0.00000000000E+00 -0.81175190206E+03  0.81175190206E+03  0.25500000000E-02 0. -1.
    8880023    1    1    2    0    0 -0.16056280928E+03  0.43713199419E+03 -0.50443398196E+03  0.95138249116E+03  0.65864270000E+03 0. -1.
    8880022    1    1    2    0    0  0.16056280928E+03 -0.43713199419E+03  0.63253856701E+03  0.80022589801E+03  0.15294330000E+03 0.  0.
<mgrwt>
<rscale>  0 0.71219009E+03</rscale>
<asrwt>0</asrwt>
<pdfrwt beam="1">  1        2 0.12488491E+00 0.80664428E+03</pdfrwt>
<pdfrwt beam="2">  1       -2 0.14459331E+00 0.80664428E+03</pdfrwt>
<totfact> 0.11260788E+01</totfact>
</mgrwt>
</event>
<event>
 4    2  0.2930016E-007  0.7190341E+03  0.7818608E-02  0.9925868E-01
          2   -1    0    0  501    0  0.00000000000E+00  0.00000000000E+00  0.24067901462E+04  0.24067901462E+04  0.25500000000E-02 0. -1.
         -2   -1    0    0    0  501 -0.00000000000E+00 -0.00000000000E+00 -0.16297166901E+03  0.16297166903E+03  0.25500000000E-02 0.  1.
    8880023    1    1    2    0    0 -0.11305419921E+03 -0.26536499639E+03  0.20873455912E+04  0.22077186544E+04  0.65864270000E+03 0.  0.
    8880022    1    1    2    0    0  0.11305419921E+03  0.26536499639E+03  0.15647288594E+03  0.36204316085E+03  0.15294330000E+03 0.  0.
<mgrwt>
<rscale>  0 0.59023836E+03</rscale>
<asrwt>0</asrwt>
<pdfrwt beam="1">  1        2 0.37027540E+00 0.71903410E+03</pdfrwt>
<pdfrwt beam="2">  1       -2 0.25072565E-01 0.71903410E+03</pdfrwt>
<totfact> 0.58532540E+01</totfact>
</mgrwt>
</event>
<event>
 4    2  0.2930016E-007  0.1203513E+04  0.7818608E-02  0.9153715E-01
         -2   -1    0    0    0  501 -0.00000000000E+00  0.00000000000E+00  0.84312506210E+03  0.84312506210E+03  0.25500000000E-02 0.  1.
          2   -1    0    0  501    0  0.00000000000E+00 -0.00000000000E+00 -0.23499948875E+04  0.23499948875E+04  0.25500000000E-02 0. -1.
    8880023    1    1    2    0    0  0.94486589557E+03  0.34908637088E+03 -0.17704154733E+04  0.21407508050E+04  0.65864270000E+03 0. -1.
    8880022    1    1    2    0    0 -0.94486589557E+03 -0.34908637088E+03  0.26354564787E+03  0.10523691446E+04  0.15294330000E+03 0.  0.
<mgrwt>
<rscale>  0 0.11544204E+04</rscale>
<asrwt>0</asrwt>
<pdfrwt beam="1">  1        2 0.36153767E+00 0.12035128E+04</pdfrwt>
<pdfrwt beam="2">  1       -2 0.12971155E+00 0.12035128E+04</pdfrwt>
<totfact> 0.18129851E+00</totfact>
</mgrwt>
</event>
<event>
 4    2  0.2930016E-007  0.8735387E+03  0.7818608E-02  0.9569920E-01
         -2   -1    0    0    0  501 -0.00000000000E+00  0.00000000000E+00  0.50638054246E+03  0.50638054247E+03  0.25500000000E-02 0.  1.
          2   -1    0    0  501    0  0.00000000000E+00 -0.00000000000E+00 -0.15745430930E+04  0.15745430930E+04  0.25500000000E-02 0. -1.
    8880023    1    1    2    0    0 -0.13415714757E+03 -0.55790815952E+03 -0.11885167976E+04  0.14750057760E+04  0.65864270000E+03 0. -1.
    8880022    1    1    2    0    0  0.13415714757E+03  0.55790815952E+03  0.12035424703E+03  0.60591785953E+03  0.15294330000E+03 0.  0.
<mgrwt>
<rscale>  0 0.79319469E+03</rscale>
<asrwt>0</asrwt>
<pdfrwt beam="1">  1        2 0.24223740E+00 0.87353870E+03</pdfrwt>
<pdfrwt beam="2">  1       -2 0.77904700E-01 0.87353870E+03</pdfrwt>
<totfact> 0.17088774E+01</totfact>
</mgrwt>
</event>
<event>
 4    2  0.2930016E-007  0.7875754E+03  0.7818608E-02  0.9738334E-01
         -2   -1    0    0    0  501 -0.00000000000E+00  0.00000000000E+00  0.11075595413E+04  0.11075595413E+04  0.25500000000E-02 0.  1.
          2   -1    0    0  501    0  0.00000000000E+00 -0.00000000000E+00 -0.41815788350E+03  0.41815788351E+03  0.25500000000E-02 0. -1.
    8880023    1    1    2    0    0  0.39844962920E+03 -0.16644103928E+03  0.12279779992E+03  0.79709110677E+03  0.65864270000E+03 0.  0.
    8880022    1    1    2    0    0 -0.39844962920E+03  0.16644103928E+03  0.56660385789E+03  0.72862631805E+03  0.15294330000E+03 0.  0.
<mgrwt>
<rscale>  0 0.68779554E+03</rscale>
<asrwt>0</asrwt>
<pdfrwt beam="1">  1        2 0.64331984E-01 0.78757535E+03</pdfrwt>
<pdfrwt beam="2">  1       -2 0.17039377E+00 0.78757535E+03</pdfrwt>
<totfact> 0.16197443E+01</totfact>
</mgrwt>
</event>
<event>
 4    2  0.2930016E-007  0.7492016E+03  0.7818608E-02  0.9833911E-01
         -2   -1    0    0    0  501 -0.00000000000E+00  0.00000000000E+00  0.45712245939E+03  0.45712245940E+03  0.25500000000E-02 0.  1.
          2   -1    0    0  501    0  0.00000000000E+00 -0.00000000000E+00 -0.10768960718E+04  0.10768960718E+04  0.25500000000E-02 0. -1.
    8880023    1    1    2    0    0  0.58289001259E+02  0.35227147190E+03 -0.80841497228E+03  0.11021967933E+04  0.65864270000E+03 0. -1.
    8880022    1    1    2    0    0 -0.58289001259E+02 -0.35227147190E+03  0.18864135990E+03  0.43182173783E+03  0.15294330000E+03 0.  1.
<mgrwt>
<rscale>  0 0.63574005E+03</rscale>
<asrwt>0</asrwt>
<pdfrwt beam="1">  1        2 0.16567632E+00 0.74920158E+03</pdfrwt>
<pdfrwt beam="2">  1       -2 0.70326532E-01 0.74920158E+03</pdfrwt>
<totfact> 0.42125231E+01</totfact>
</mgrwt>
</event>
<event>
 4    2  0.2930016E-007  0.8231562E+03  0.7818608E-02  0.9662798E-01
         -2   -1    0    0    0  501 -0.00000000000E+00  0.00000000000E+00  0.16910773095E+03  0.16910773097E+03  0.25500000000E-02 0.  1.
          2   -1    0    0  501    0  0.00000000000E+00 -0.00000000000E+00 -0.28303239786E+04  0.28303239786E+04  0.25500000000E-02 0. -1.
    8880023    1    1    2    0    0 -0.26606946019E+03 -0.41591215439E+03 -0.19801920799E+04  0.21444688754E+04  0.65864270000E+03 0.  0.
    8880022    1    1    2    0    0  0.26606946019E+03  0.41591215439E+03 -0.68102416780E+03  0.85496283425E+03  0.15294330000E+03 0.  0.
<mgrwt>
<rscale>  0 0.73275643E+03</rscale>
<asrwt>0</asrwt>
<pdfrwt beam="1">  1        2 0.43543442E+00 0.82315617E+03</pdfrwt>
<pdfrwt beam="2">  1       -2 0.26016576E-01 0.82315617E+03</pdfrwt>
<totfact> 0.30760719E+01</totfact>
</mgrwt>
</event>
<event>
 4    2  0.2930016E-007  0.9411226E+03  0.7818608E-02  0.9463003E-01
          2   -1    0    0  501    0  0.00000000000E+00  0.00000000000E+00  0.61531523777E+03  0.61531523777E+03  0.25500000000E-02 0. -1.
         -2   -1    0    0    0  501 -0.00000000000E+00 -0.00000000000E+00 -0.15165225256E+04  0.15165225256E+04  0.25500000000E-02 0.  1.
    8880023    1    1    2    0    0 -0.61310233990E+03  0.27569389485E+03  0.66723102527E+02  0.94348491324E+03  0.65864270000E+03 0. -1.
    8880022    1    1    2    0    0  0.61310233990E+03 -0.27569389485E+03 -0.96793039040E+03  0.11883528502E+04  0.15294330000E+03 0.  0.
<mgrwt>
<rscale>  0 0.87067258E+03</rscale>
<asrwt>0</asrwt>
<pdfrwt beam="1">  1        2 0.94663883E-01 0.94112263E+03</pdfrwt>
<pdfrwt beam="2">  1       -2 0.23331116E+00 0.94112263E+03</pdfrwt>
<totfact> 0.39330888E+00</totfact>
</mgrwt>
</event>
<event>
 4    2  0.2930016E-007  0.7046861E+03  0.7818608E-02  0.9978290E-01
         -2   -1    0    0    0  501 -0.00000000000E+00  0.00000000000E+00  0.23259279251E+03  0.23259279252E+03  0.25500000000E-02 0.  1.
          2   -1    0    0  501    0  0.00000000000E+00 -0.00000000000E+00 -0.54323455090E+04  0.54323455090E+04  0.25500000000E-02 0. -1.
    8880023    1    1    2    0    0 -0.20759969205E+03  0.14026658457E+03 -0.53061311006E+04  0.53527198516E+04  0.65864270000E+03 0. -1.
    8880022    1    1    2    0    0  0.20759969205E+03 -0.14026658457E+03  0.10637838405E+03  0.31221844996E+03  0.15294330000E+03 0.  0.
<mgrwt>
<rscale>  0 0.56612525E+03</rscale>
<asrwt>0</asrwt>
<pdfrwt beam="1">  1        2 0.83574537E+00 0.70468614E+03</pdfrwt>
<pdfrwt beam="2">  1       -2 0.35783511E-01 0.70468614E+03</pdfrwt>
<totfact> 0.72455827E-02</totfact>
</mgrwt>
</event>
<event>
 4    2  0.2930016E-007  0.9637081E+03  0.7818608E-02  0.9430659E-01
         -2   -1    0    0    0  501 -0.00000000000E+00  0.00000000000E+00  0.98389042008E+03  0.98389042008E+03  0.25500000000E-02 0.  1.
          2   -1    0    0  501    0  0.00000000000E+00 -0.00000000000E+00 -0.11100067667E+04  0.11100067667E+04  0.25500000000E-02 0. -1.
    8880023    1    1    2    0    0 -0.43924615007E+03 -0.54953252793E+03 -0.68511370691E+03  0.11824187825E+04  0.65864270000E+03 0.  0.
    8880022    1    1    2    0    0  0.43924615007E+03  0.54953252793E+03  0.55899736029E+03  0.91147840426E+03  0.15294330000E+03 0.  0.
<mgrwt>
<rscale>  0 0.89594913E+03</rscale>
<asrwt>0</asrwt>
<pdfrwt beam="1">  1        2 0.17077027E+00 0.96370814E+03</pdfrwt>
<pdfrwt beam="2">  1       -2 0.15136776E+00 0.96370814E+03</pdfrwt>
<totfact> 0.62498523E+00</totfact>
</mgrwt>
</event>
<event>
 4    2  0.2930016E-007  0.6950191E+03  0.7818608E-02  0.1001853E+00
         -2   -1    0    0    0  501 -0.00000000000E+00  0.00000000000E+00  0.44567260845E+03  0.44567260846E+03  0.25500000000E-02 0.  1.
          2   -1    0    0  501    0  0.00000000000E+00 -0.00000000000E+00 -0.60209336801E+03  0.60209336801E+03  0.25500000000E-02 0. -1.
    8880023    1    1    2    0    0  0.11006099417E+03 -0.19268601550E+03 -0.28248668507E+03  0.75023346800E+03  0.65864270000E+03 0. -1.
    8880022    1    1    2    0    0 -0.11006099417E+03  0.19268601550E+03  0.12606592551E+03  0.29753250847E+03  0.15294330000E+03 0.  0.
<mgrwt>
<rscale>  0 0.54845283E+03</rscale>
<asrwt>0</asrwt>
<pdfrwt beam="1">  1        2 0.92629749E-01 0.69501909E+03</pdfrwt>
<pdfrwt beam="2">  1       -2 0.68565017E-01 0.69501909E+03</pdfrwt>
<totfact> 0.97477721E+01</totfact>
</mgrwt>
</event>
<event>
 4    2  0.4392672E-007  0.7138504E+03  0.7818608E-02  0.9943972E-01
         -2   -1    0    0    0  501 -0.00000000000E+00  0.00000000000E+00  0.11816587575E+04  0.11816587575E+04  0.25500000000E-02 0.  1.
          2   -1    0    0  501    0  0.00000000000E+00 -0.00000000000E+00 -0.18548154182E+04  0.18548154182E+04  0.25500000000E-02 0. -1.
    8880023    1    1    2    0    0  0.24584432402E+03  0.12382530410E+03 -0.17630050150E+04  0.19020433819E+04  0.65864270000E+03 0. -1.
    8880022    1    1    2    0    0 -0.24584432402E+03 -0.12382530410E+03  0.10898483542E+04  0.11344307937E+04  0.15294330000E+03 0.  0.
<mgrwt>
<rscale>  0 0.58176760E+03</rscale>
<asrwt>0</asrwt>
<pdfrwt beam="1">  1        2 0.28535622E+00 0.71385037E+03</pdfrwt>
<pdfrwt beam="2">  1       -2 0.18179365E+00 0.71385037E+03</pdfrwt>
<totfact> 0.14814470E+00</totfact>
</mgrwt>
</event>
<event>
 4    2  0.2930016E-007  0.7666210E+03  0.7818608E-02  0.9788258E-01
          2   -1    0    0  501    0  0.00000000000E+00  0.00000000000E+00  0.38926896336E+03  0.38926896337E+03  0.25500000000E-02 0. -1.
         -2   -1    0    0    0  501 -0.00000000000E+00 -0.00000000000E+00 -0.11250144019E+04  0.11250144019E+04  0.25500000000E-02 0.  1.
    8880023    1    1    2    0    0  0.31451015868E+03 -0.23448004946E+03 -0.13152052895E+03  0.77782092368E+03  0.65864270000E+03 0. -1.
    8880022    1    1    2    0    0 -0.31451015868E+03  0.23448004946E+03 -0.60422490959E+03  0.73646244161E+03  0.15294330000E+03 0.  0.
<mgrwt>
<rscale>  0 0.65996486E+03</rscale>
<asrwt>0</asrwt>
<pdfrwt beam="1">  1        2 0.59887533E-01 0.76662099E+03</pdfrwt>
<pdfrwt beam="2">  1       -2 0.17307914E+00 0.76662099E+03</pdfrwt>
<totfact> 0.16843214E+01</totfact>
</mgrwt>
</event>
<event>
 4    2  0.2930016E-007  0.7932799E+03  0.7818608E-02  0.9725519E-01
         -2   -1    0    0    0  501 -0.00000000000E+00  0.00000000000E+00  0.90271673522E+03  0.90271673523E+03  0.25500000000E-02 0.  1.
          2   -1    0    0  501    0  0.00000000000E+00 -0.00000000000E+00 -0.89325887001E+03  0.89325887002E+03  0.25500000000E-02 0. -1.
    8880023    1    1    2    0    0  0.20810967720E+03  0.39009383759E+03 -0.62343223062E+03  0.10089404305E+04  0.65864270000E+03 0. -1.
    8880022    1    1    2    0    0 -0.20810967720E+03 -0.39009383759E+03  0.63289009583E+03  0.78703517474E+03  0.15294330000E+03 0.  0.
<mgrwt>
<rscale>  0 0.69517516E+03</rscale>
<asrwt>0</asrwt>
<pdfrwt beam="1">  1        2 0.13742444E+00 0.79327993E+03</pdfrwt>
<pdfrwt beam="2">  1       -2 0.13887950E+00 0.79327993E+03</pdfrwt>
<totfact> 0.10993413E+01</totfact>
</mgrwt>
</event>
<event>
 4    2  0.2930016E-007  0.7583640E+03  0.7818608E-02  0.9809362E-01
         -2   -1    0    0    0  501 -0.00000000000E+00  0.00000000000E+00  0.11856814762E+04  0.11856814762E+04  0.25500000000E-02 0.  1.
          2   -1    0    0  501    0  0.00000000000E+00 -0.00000000000E+00 -0.53641957430E+03  0.53641957431E+03  0.25500000000E-02 0. -1.
    8880023    1    1    2    0    0 -0.33971061558E+03 -0.16094214007E+03 -0.19702418548E+03  0.78353966761E+03  0.65864270000E+03 0. -1.
    8880022    1    1    2    0    0  0.33971061558E+03  0.16094214007E+03  0.84628608735E+03  0.93856138288E+03  0.15294330000E+03 0.  0.
<mgrwt>
<rscale>  0 0.64862559E+03</rscale>
<asrwt>0</asrwt>
<pdfrwt beam="1">  1        2 0.82526090E-01 0.75836395E+03</pdfrwt>
<pdfrwt beam="2">  1       -2 0.18241253E+00 0.75836395E+03</pdfrwt>
<totfact> 0.10057089E+01</totfact>
</mgrwt>
</event>
<event>
 4    2  0.2930016E-007  0.7019326E+03  0.7818608E-02  0.9989277E-01
          2   -1    0    0  501    0  0.00000000000E+00  0.00000000000E+00  0.20076794971E+04  0.20076794971E+04  0.25500000000E-02 0. -1.
         -2   -1    0    0    0  501 -0.00000000000E+00 -0.00000000000E+00 -0.28002273789E+03  0.28002273790E+03  0.25500000000E-02 0.  1.
    8880023    1    1    2    0    0  0.25118275776E+01  0.24267850749E+03  0.18478479981E+04  0.19766769077E+04  0.65864270000E+03 0. -1.
    8880022    1    1    2    0    0 -0.25118275776E+01 -0.24267850749E+03 -0.12019123888E+03  0.31102532726E+03  0.15294330000E+03 0.  0.
<mgrwt>
<rscale>  0 0.56122949E+03</rscale>
<asrwt>0</asrwt>
<pdfrwt beam="1">  1        2 0.30887377E+00 0.70193260E+03</pdfrwt>
<pdfrwt beam="2">  1       -2 0.43080421E-01 0.70193260E+03</pdfrwt>
<totfact> 0.35100467E+01</totfact>
</mgrwt>
</event>
<event>
 4    2  0.2930016E-007  0.7519449E+03  0.7818608E-02  0.9826426E-01
         -2   -1    0    0    0  501 -0.00000000000E+00  0.00000000000E+00  0.73011722834E+03  0.73011722835E+03  0.25500000000E-02 0.  1.
          2   -1    0    0  501    0  0.00000000000E+00 -0.00000000000E+00 -0.97641815891E+03  0.97641815891E+03  0.25500000000E-02 0. -1.
    8880023    1    1    2    0    0 -0.73004323211E+02 -0.35536076960E+03 -0.75346986437E+03  0.10644895258E+04  0.65864270000E+03 0. -1.
    8880022    1    1    2    0    0  0.73004323211E+02  0.35536076960E+03  0.50716893380E+03  0.64204586145E+03  0.15294330000E+03 0.  0.
<mgrwt>
<rscale>  0 0.63963448E+03</rscale>
<asrwt>0</asrwt>
<pdfrwt beam="1">  1        2 0.15021818E+00 0.75194489E+03</pdfrwt>
<pdfrwt beam="2">  1       -2 0.11232573E+00 0.75194489E+03</pdfrwt>
<totfact> 0.16556679E+01</totfact>
</mgrwt>
</event>
<event>
 4    2  0.2930016E-007  0.9156329E+03  0.7818608E-02  0.9501388E-01
         -2   -1    0    0    0  501 -0.00000000000E+00  0.00000000000E+00  0.30557022534E+03  0.30557022535E+03  0.25500000000E-02 0.  1.
          2   -1    0    0  501    0  0.00000000000E+00 -0.00000000000E+00 -0.20450180380E+04  0.20450180380E+04  0.25500000000E-02 0. -1.
    8880023    1    1    2    0    0 -0.63602978831E+03 -0.62802373883E+01 -0.11501599947E+04  0.14701195709E+04  0.65864270000E+03 0.  0.
    8880022    1    1    2    0    0  0.63602978831E+03  0.62802373883E+01 -0.58928781795E+03  0.88046869246E+03  0.15294330000E+03 0.  0.
<mgrwt>
<rscale>  0 0.84181577E+03</rscale>
<asrwt>0</asrwt>
<pdfrwt beam="1">  1        2 0.31461815E+00 0.91563286E+03</pdfrwt>
<pdfrwt beam="2">  1       -2 0.47010805E-01 0.91563286E+03</pdfrwt>
<totfact> 0.27412211E+01</totfact>
</mgrwt>
</event>
<event>
 4    2  0.2930016E-007  0.6941369E+03  0.7818608E-02  0.1002245E+00
          2   -1    0    0  501    0  0.00000000000E+00  0.00000000000E+00  0.10528412034E+04  0.10528412034E+04  0.25500000000E-02 0. -1.
         -2   -1    0    0    0  501 -0.00000000000E+00 -0.00000000000E+00 -0.51635107695E+03  0.51635107695E+03  0.25500000000E-02 0.  1.
    8880023    1    1    2    0    0  0.13239267543E+03  0.17460834443E+03  0.88833768514E+03  0.11273730277E+04  0.65864270000E+03 0. -1.
    8880022    1    1    2    0    0 -0.13239267543E+03 -0.17460834443E+03 -0.35184755869E+03  0.44181925267E+03  0.15294330000E+03 0.  0.
<mgrwt>
<rscale>  0 0.54676648E+03</rscale>
<asrwt>0</asrwt>
<pdfrwt beam="1">  1        2 0.16197557E+00 0.69413695E+03</pdfrwt>
<pdfrwt beam="2">  1       -2 0.79438628E-01 0.69413695E+03</pdfrwt>
<totfact> 0.33471030E+01</totfact>
</mgrwt>
</event>
<event>
 4    2  0.2930016E-007  0.7758278E+03  0.7818608E-02  0.9765730E-01
          2   -1    0    0  501    0  0.00000000000E+00  0.00000000000E+00  0.91637392944E+03  0.91637392945E+03  0.25500000000E-02 0. -1.
         -2   -1    0    0    0  501 -0.00000000000E+00 -0.00000000000E+00 -0.12656202994E+04  0.12656202994E+04  0.25500000000E-02 0.  1.
    8880023    1    1    2    0    0  0.22736408278E+03  0.34118056508E+03  0.70013089264E+03  0.10450320939E+04  0.65864270000E+03 0. -1.
    8880022    1    1    2    0    0 -0.22736408278E+03 -0.34118056508E+03 -0.10493772626E+04  0.11369621350E+04  0.15294330000E+03 0.  0.
<mgrwt>
<rscale>  0 0.67234526E+03</rscale>
<asrwt>0</asrwt>
<pdfrwt beam="1">  1        2 0.14098060E+00 0.77582782E+03</pdfrwt>
<pdfrwt beam="2">  1       -2 0.19471082E+00 0.77582782E+03</pdfrwt>
<totfact> 0.41979010E+00</totfact>
</mgrwt>
</event>
<event>
 4    2  0.2930016E-007  0.7319090E+03  0.7818608E-02  0.9884175E-01
          2   -1    0    0  501    0  0.00000000000E+00  0.00000000000E+00  0.16548043818E+04  0.16548043818E+04  0.25500000000E-02 0. -1.
         -2   -1    0    0    0  501 -0.00000000000E+00 -0.00000000000E+00 -0.60989330686E+03  0.60989330686E+03  0.25500000000E-02 0.  1.
    8880023    1    1    2    0    0  0.88425581103E+02  0.30669439667E+03  0.15113074018E+04  0.16792083865E+04  0.65864270000E+03 0. -1.
    8880022    1    1    2    0    0 -0.88425581103E+02 -0.30669439667E+03 -0.46639632679E+03  0.58548930221E+03  0.15294330000E+03 0.  0.
<mgrwt>
<rscale>  0 0.61034394E+03</rscale>
<asrwt>0</asrwt>
<pdfrwt beam="1">  1        2 0.25458528E+00 0.73190897E+03</pdfrwt>
<pdfrwt beam="2">  1       -2 0.93829741E-01 0.73190897E+03</pdfrwt>
<totfact> 0.10272322E+01</totfact>
</mgrwt>
</event>
<event>
 4    2  0.2930016E-007  0.6969845E+03  0.7818608E-02  0.1000995E+00
         -2   -1    0    0    0  501 -0.00000000000E+00  0.00000000000E+00  0.35053819458E+03  0.35053819459E+03  0.25500000000E-02 0.  1.
          2   -1    0    0  501    0  0.00000000000E+00 -0.00000000000E+00 -0.94815000746E+03  0.94815000746E+03  0.25500000000E-02 0. -1.
    8880023    1    1    2    0    0 -0.22788291702E+03 -0.68196967088E+01 -0.71644404913E+03  0.99953960098E+03  0.65864270000E+03 0.  0.
    8880022    1    1    2    0    0  0.22788291702E+03  0.68196967088E+01  0.11883223625E+03  0.29914860107E+03  0.15294330000E+03 0.  0.
<mgrwt>
<rscale>  0 0.55216168E+03</rscale>
<asrwt>0</asrwt>
<pdfrwt beam="1">  1        2 0.14586923E+00 0.69698446E+03</pdfrwt>
<pdfrwt beam="2">  1       -2 0.53928953E-01 0.69698446E+03</pdfrwt>
<totfact> 0.89735412E+01</totfact>
</mgrwt>
</event>
<event>
 4    2  0.2930016E-007  0.6904647E+03  0.7818608E-02  0.1003932E+00
         -2   -1    0    0    0  501 -0.00000000000E+00  0.00000000000E+00  0.67897757056E+03  0.67897757056E+03  0.25500000000E-02 0.  1.
          2   -1    0    0  501    0  0.00000000000E+00 -0.00000000000E+00 -0.11054690120E+04  0.11054690120E+04  0.25500000000E-02 0. -1.
    8880023    1    1    2    0    0 -0.19295702598E+03  0.75491099954E+02 -0.96555266131E+03  0.11870271556E+04  0.65864270000E+03 0. -1.
    8880022    1    1    2    0    0  0.19295702598E+03 -0.75491099954E+02  0.53906121983E+03  0.59741942703E+03  0.15294330000E+03 0.  0.
<mgrwt>
<rscale>  0 0.53959028E+03</rscale>
<asrwt>0</asrwt>
<pdfrwt beam="1">  1        2 0.17007215E+00 0.69046472E+03</pdfrwt>
<pdfrwt beam="2">  1       -2 0.10445809E+00 0.69046472E+03</pdfrwt>
<totfact> 0.16493879E+01</totfact>
</mgrwt>
</event>
<event>
 4    2  0.2930016E-007  0.8314650E+03  0.7818608E-02  0.9646489E-01
         -2   -1    0    0    0  501 -0.00000000000E+00  0.00000000000E+00  0.47724725586E+03  0.47724725587E+03  0.25500000000E-02 0.  1.
          2   -1    0    0  501    0  0.00000000000E+00 -0.00000000000E+00 -0.17614605261E+04  0.17614605261E+04  0.25500000000E-02 0. -1.
    8880023    1    1    2    0    0 -0.49343688964E+03  0.11850709880E+03 -0.14601212040E+04  0.16802642748E+04  0.65864270000E+03 0. -1.
    8880022    1    1    2    0    0  0.49343688964E+03 -0.11850709880E+03  0.17590793377E+03  0.55844350717E+03  0.15294330000E+03 0.  0.
<mgrwt>
<rscale>  0 0.74294209E+03</rscale>
<asrwt>0</asrwt>
<pdfrwt beam="1">  1        2 0.27099392E+00 0.83146503E+03</pdfrwt>
<pdfrwt beam="2">  1       -2 0.73422655E-01 0.83146503E+03</pdfrwt>
<totfact> 0.15455700E+01</totfact>
</mgrwt>
</event>
<event>
 4    2  0.2930016E-007  0.7432184E+03  0.7818608E-02  0.9850669E-01
         -2   -1    0    0    0  501 -0.00000000000E+00  0.00000000000E+00  0.29011471848E+03  0.29011471849E+03  0.25500000000E-02 0.  1.
          2   -1    0    0  501    0  0.00000000000E+00 -0.00000000000E+00 -0.14745203403E+04  0.14745203403E+04  0.25500000000E-02 0. -1.
    8880023    1    1    2    0    0  0.28291993614E+03  0.19626432362E+03 -0.11718434058E+04  0.13876564953E+04  0.65864270000E+03 0.  0.
    8880022    1    1    2    0    0 -0.28291993614E+03 -0.19626432362E+03 -0.12562215952E+02  0.37697856342E+03  0.15294330000E+03 0.  0.
<mgrwt>
<rscale>  0 0.62712799E+03</rscale>
<asrwt>0</asrwt>
<pdfrwt beam="1">  1        2 0.22684928E+00 0.74321839E+03</pdfrwt>
<pdfrwt beam="2">  1       -2 0.44633034E-01 0.74321839E+03</pdfrwt>
<totfact> 0.63782625E+01</totfact>
</mgrwt>
</event>
<event>
 4    2  0.2930016E-007  0.6815294E+03  0.7818608E-02  0.1008471E+00
          2   -1    0    0  501    0  0.00000000000E+00  0.00000000000E+00  0.17580273181E+04  0.17580273181E+04  0.25500000000E-02 0. -1.
         -2   -1    0    0    0  501 -0.00000000000E+00 -0.00000000000E+00 -0.20079134484E+03  0.20079134485E+03  0.25500000000E-02 0.  1.
    8880023    1    1    2    0    0  0.14320639517E+03  0.10081718992E+03  0.15843598714E+04  0.17247256553E+04  0.65864270000E+03 0.  0.
    8880022    1    1    2    0    0 -0.14320639517E+03 -0.10081718992E+03 -0.27123898151E+02  0.23409300773E+03  0.15294330000E+03 0.  0.
<mgrwt>
<rscale>  0 0.52086697E+03</rscale>
<asrwt>0</asrwt>
<pdfrwt beam="1">  1        2 0.27046574E+00 0.68152944E+03</pdfrwt>
<pdfrwt beam="2">  1       -2 0.30890976E-01 0.68152944E+03</pdfrwt>
<totfact> 0.91001686E+01</totfact>
</mgrwt>
</event>
<event>
 4    2  0.2930016E-007  0.8630907E+03  0.7818608E-02  0.9588089E-01
          2   -1    0    0  501    0  0.00000000000E+00  0.00000000000E+00  0.24737192028E+04  0.24737192028E+04  0.25500000000E-02 0. -1.
         -2   -1    0    0    0  501 -0.00000000000E+00 -0.00000000000E+00 -0.37927459633E+03  0.37927459634E+03  0.25500000000E-02 0.  1.
    8880023    1    1    2    0    0  0.37402230308E+03  0.41379065168E+03  0.21044274471E+04  0.22745418161E+04  0.65864270000E+03 0.  0.
    8880022    1    1    2    0    0 -0.37402230308E+03 -0.41379065168E+03 -0.99828406254E+01  0.57845198309E+03  0.15294330000E+03 0.  0.
<mgrwt>
<rscale>  0 0.78089563E+03</rscale>
<asrwt>0</asrwt>
<pdfrwt beam="1">  1        2 0.38057220E+00 0.86309072E+03</pdfrwt>
<pdfrwt beam="2">  1       -2 0.58349935E-01 0.86309072E+03</pdfrwt>
<totfact> 0.10197668E+01</totfact>
</mgrwt>
</event>
<event>
 4    2  0.2930016E-007  0.9860291E+03  0.7818608E-02  0.9400068E-01
         -2   -1    0    0    0  501 -0.00000000000E+00  0.00000000000E+00  0.32578784340E+03  0.32578784341E+03  0.25500000000E-02 0.  1.
          2   -1    0    0  501    0  0.00000000000E+00 -0.00000000000E+00 -0.24342178325E+04  0.24342178325E+04  0.25500000000E-02 0. -1.
    8880023    1    1    2    0    0  0.32465931987E+03 -0.65805740749E+03 -0.14976977282E+04  0.17931402390E+04  0.65864270000E+03 0.  0.
    8880022    1    1    2    0    0 -0.32465931987E+03  0.65805740749E+03 -0.61073226092E+03  0.96686543690E+03  0.15294330000E+03 0.  0.
<mgrwt>
<rscale>  0 0.92070053E+03</rscale>
<asrwt>0</asrwt>
<pdfrwt beam="1">  1        2 0.37449504E+00 0.98602912E+03</pdfrwt>
<pdfrwt beam="2">  1       -2 0.50121208E-01 0.98602912E+03</pdfrwt>
<totfact> 0.14487421E+01</totfact>
</mgrwt>
</event>
<event>
 4    2  0.2930016E-007  0.1077007E+04  0.7818608E-02  0.9287098E-01
          2   -1    0    0  501    0  0.00000000000E+00  0.00000000000E+00  0.25886676606E+04  0.25886676606E+04  0.25500000000E-02 0. -1.
         -2   -1    0    0    0  501 -0.00000000000E+00 -0.00000000000E+00 -0.75044853945E+03  0.75044853945E+03  0.25500000000E-02 0.  1.
    8880023    1    1    2    0    0 -0.71330893009E+02  0.84914396402E+03  0.21615135362E+04  0.24149709193E+04  0.65864270000E+03 0.  0.
    8880022    1    1    2    0    0  0.71330893009E+02 -0.84914396402E+03 -0.32329441508E+03  0.92414528066E+03  0.15294330000E+03 0.  0.
<mgrwt>
<rscale>  0 0.10197933E+04</rscale>
<asrwt>0</asrwt>
<pdfrwt beam="1">  1        2 0.39825657E+00 0.10770069E+04</pdfrwt>
<pdfrwt beam="2">  1       -2 0.11545362E+00 0.10770069E+04</pdfrwt>
<totfact> 0.18013137E+00</totfact>
</mgrwt>
</event>
<event>
 4    2  0.2930016E-007  0.1204466E+04  0.7818608E-02  0.9152793E-01
         -2   -1    0    0    0  501 -0.00000000000E+00  0.00000000000E+00  0.18892791320E+04  0.18892791320E+04  0.25500000000E-02 0.  1.
          2   -1    0    0  501    0  0.00000000000E+00 -0.00000000000E+00 -0.88344492577E+03  0.88344492577E+03  0.25500000000E-02 0. -1.
    8880023    1    1    2    0    0 -0.25194916870E+03 -0.97644808938E+03 -0.16972152351E+03  0.12163654289E+04  0.65864270000E+03 0.  0.
    8880022    1    1    2    0    0  0.25194916870E+03  0.97644808938E+03  0.11755557298E+04  0.15563586289E+04  0.15294330000E+03 0.  0.
<mgrwt>
<rscale>  0 0.11554255E+04</rscale>
<asrwt>0</asrwt>
<pdfrwt beam="1">  1        2 0.13591461E+00 0.12044665E+04</pdfrwt>
<pdfrwt beam="2">  1       -2 0.29065832E+00 0.12044665E+04</pdfrwt>
<totfact> 0.10671034E+00</totfact>
</mgrwt>
</event>
<event>
 4    2  0.2930016E-007  0.8353405E+03  0.7818608E-02  0.9639029E-01
         -2   -1    0    0    0  501 -0.00000000000E+00  0.00000000000E+00  0.76751698207E+03  0.76751698208E+03  0.25500000000E-02 0.  1.
          2   -1    0    0  501    0  0.00000000000E+00 -0.00000000000E+00 -0.14053341338E+04  0.14053341338E+04  0.25500000000E-02 0. -1.
    8880023    1    1    2    0    0 -0.49806194818E+03  0.12616593515E+03 -0.11566922909E+04  0.14267903874E+04  0.65864270000E+03 0. -1.
    8880022    1    1    2    0    0  0.49806194818E+03 -0.12616593515E+03  0.51887513923E+03  0.74606072845E+03  0.15294330000E+03 0.  0.
<mgrwt>
<rscale>  0 0.74765943E+03</rscale>
<asrwt>0</asrwt>
<pdfrwt beam="1">  1        2 0.21620525E+00 0.83534050E+03</pdfrwt>
<pdfrwt beam="2">  1       -2 0.11807954E+00 0.83534050E+03</pdfrwt>
<totfact> 0.80365726E+00</totfact>
</mgrwt>
</event>
<event>
 4    2  0.2930016E-007  0.1380919E+04  0.7818608E-02  0.8998653E-01
          2   -1    0    0  501    0  0.00000000000E+00  0.00000000000E+00  0.31347061647E+04  0.31347061647E+04  0.25500000000E-02 0. -1.
         -2   -1    0    0    0  501 -0.00000000000E+00 -0.00000000000E+00 -0.80245674206E+03  0.80245674206E+03  0.25500000000E-02 0.  1.
    8880023    1    1    2    0    0 -0.98059397801E+03 -0.71523588344E+03  0.91153841835E+02  0.13839241843E+04  0.65864270000E+03 0.  0.
    8880022    1    1    2    0    0  0.98059397801E+03  0.71523588344E+03  0.22410955808E+04  0.25532387225E+04  0.15294330000E+03 0.  0.
<mgrwt>
<rscale>  0 0.13397119E+04</rscale>
<asrwt>0</asrwt>
<pdfrwt beam="1">  1        2 0.48226249E+00 0.13809189E+04</pdfrwt>
<pdfrwt beam="2">  1       -2 0.12345488E+00 0.13809189E+04</pdfrwt>
<totfact> 0.68360510E-01</totfact>
</mgrwt>
</event>
<event>
 4    2  0.2930016E-007  0.1043252E+04  0.7818608E-02  0.9327037E-01
          2   -1    0    0  501    0  0.00000000000E+00  0.00000000000E+00  0.16104654898E+04  0.16104654898E+04  0.25500000000E-02 0. -1.
         -2   -1    0    0    0  501 -0.00000000000E+00 -0.00000000000E+00 -0.55984099568E+03  0.55984099568E+03  0.25500000000E-02 0.  1.
    8880023    1    1    2    0    0 -0.69915045113E+03 -0.40712851950E+03  0.38676926267E+03  0.11126390491E+04  0.65864270000E+03 0.  1.
    8880022    1    1    2    0    0  0.69915045113E+03  0.40712851950E+03  0.66385523147E+03  0.10576674364E+04  0.15294330000E+03 0.  0.
<mgrwt>
<rscale>  0 0.98331401E+03</rscale>
<asrwt>0</asrwt>
<pdfrwt beam="1">  1        2 0.24776392E+00 0.10432522E+04</pdfrwt>
<pdfrwt beam="2">  1       -2 0.86129385E-01 0.10432522E+04</pdfrwt>
<totfact> 0.12776344E+01</totfact>
</mgrwt>
</event>
<event>
 4    2  0.2930016E-007  0.1190258E+04  0.7818608E-02  0.9166651E-01
          2   -1    0    0  501    0  0.00000000000E+00  0.00000000000E+00  0.16170679581E+04  0.16170679581E+04  0.25500000000E-02 0. -1.
         -2   -1    0    0    0  501 -0.00000000000E+00 -0.00000000000E+00 -0.12973969045E+04  0.12973969045E+04  0.25500000000E-02 0.  1.
    8880023    1    1    2    0    0 -0.20288234468E+03 -0.97043411660E+03  0.11175726499E+04  0.16326917818E+04  0.65864270000E+03 0.  0.
    8880022    1    1    2    0    0  0.20288234468E+03  0.97043411660E+03 -0.79790159620E+03  0.12817730808E+04  0.15294330000E+03 0.  0.
<mgrwt>
<rscale>  0 0.11404375E+04</rscale>
<asrwt>0</asrwt>
<pdfrwt beam="1">  1        2 0.24877969E+00 0.11902579E+04</pdfrwt>
<pdfrwt beam="2">  1       -2 0.19959952E+00 0.11902579E+04</pdfrwt>
<totfact> 0.14176624E+00</totfact>
</mgrwt>
</event>
<event>
 4    2  0.2930016E-007  0.8326837E+03  0.7818608E-02  0.9644133E-01
         -2   -1    0    0    0  501 -0.00000000000E+00  0.00000000000E+00  0.41385328664E+03  0.41385328664E+03  0.25500000000E-02 0.  1.
          2   -1    0    0  501    0  0.00000000000E+00 -0.00000000000E+00 -0.25728499757E+04  0.25728499757E+04  0.25500000000E-02 0. -1.
    8880023    1    1    2    0    0 -0.47612375451E+03 -0.18126784220E+03 -0.22918581684E+04  0.24384371902E+04  0.65864270000E+03 0. -1.
    8880022    1    1    2    0    0  0.47612375451E+03  0.18126784220E+03  0.13286147929E+03  0.54826607219E+03  0.15294330000E+03 0.  0.
<mgrwt>
<rscale>  0 0.74442765E+03</rscale>
<asrwt>0</asrwt>
<pdfrwt beam="1">  1        2 0.39582306E+00 0.83268365E+03</pdfrwt>
<pdfrwt beam="2">  1       -2 0.63669738E-01 0.83268365E+03</pdfrwt>
<totfact> 0.74727021E+00</totfact>
</mgrwt>
</event>
<event>
 4    2  0.2930016E-007  0.6928480E+03  0.7818608E-02  0.1002827E+00
          2   -1    0    0  501    0  0.00000000000E+00  0.00000000000E+00  0.23422532166E+04  0.23422532167E+04  0.25500000000E-02 0. -1.
         -2   -1    0    0    0  501 -0.00000000000E+00 -0.00000000000E+00 -0.45997775821E+03  0.45997775822E+03  0.25500000000E-02 0.  1.
    8880023    1    1    2    0    0  0.18555787686E+03 -0.10861162100E+03  0.22473842145E+04  0.23517598142E+04  0.65864270000E+03 0. -1.
    8880022    1    1    2    0    0 -0.18555787686E+03  0.10861162100E+03 -0.36510875602E+03  0.45047116070E+03  0.15294330000E+03 0.  0.
<mgrwt>
<rscale>  0 0.54427720E+03</rscale>
<asrwt>0</asrwt>
<pdfrwt beam="1">  1        2 0.36034664E+00 0.69284805E+03</pdfrwt>
<pdfrwt beam="2">  1       -2 0.70765810E-01 0.69284805E+03</pdfrwt>
<totfact> 0.82140517E+00</totfact>
</mgrwt>
</event>
<event>
 4    2  0.2930016E-007  0.6683316E+03  0.7818608E-02  0.1016888E+00
          2   -1    0    0  501    0  0.00000000000E+00  0.00000000000E+00  0.15655022819E+04  0.15655022819E+04  0.25500000000E-02 0. -1.
         -2   -1    0    0    0  501 -0.00000000000E+00 -0.00000000000E+00 -0.29616183010E+03  0.29616183011E+03  0.25500000000E-02 0.  1.
    8880023    1    1    2    0    0 -0.11338771380E+03 -0.37956018477E+00  0.14516210078E+04  0.15980834378E+04  0.65864270000E+03 0. -1.
    8880022    1    1    2    0    0  0.11338771380E+03  0.37956018477E+00 -0.18228055599E+03  0.26358067420E+03  0.15294330000E+03 0.  0.
<mgrwt>
<rscale>  0 0.48826473E+03</rscale>
<asrwt>0</asrwt>
<pdfrwt beam="1">  1        2 0.24084651E+00 0.66833160E+03</pdfrwt>
<pdfrwt beam="2">  1       -2 0.45563358E-01 0.66833160E+03</pdfrwt>
<totfact> 0.54945171E+01</totfact>
</mgrwt>
</event>
<event>
 4    2  0.2930016E-007  0.8577725E+03  0.7818608E-02  0.9597538E-01
          2   -1    0    0  501    0  0.00000000000E+00  0.00000000000E+00  0.10836567686E+04  0.10836567686E+04  0.25500000000E-02 0. -1.
         -2   -1    0    0    0  501 -0.00000000000E+00 -0.00000000000E+00 -0.65462749956E+03  0.65462749956E+03  0.25500000000E-02 0.  1.
    8880023    1    1    2    0    0 -0.47932711592E+03  0.26871729703E+03  0.69966742746E+03  0.11069363961E+04  0.65864270000E+03 0. -1.
    8880022    1    1    2    0    0  0.47932711592E+03 -0.26871729703E+03 -0.27063815838E+03  0.63134787207E+03  0.15294330000E+03 0.  0.
<mgrwt>
<rscale>  0 0.77459341E+03</rscale>
<asrwt>0</asrwt>
<pdfrwt beam="1">  1        2 0.16671643E+00 0.85777251E+03</pdfrwt>
<pdfrwt beam="2">  1       -2 0.10071192E+00 0.85777251E+03</pdfrwt>
<totfact> 0.18229227E+01</totfact>
</mgrwt>
</event>
<event>
 4    2  0.2930016E-007  0.7779423E+03  0.7818608E-02  0.9760693E-01
          2   -1    0    0  501    0  0.00000000000E+00  0.00000000000E+00  0.71427970020E+03  0.71427970021E+03  0.25500000000E-02 0. -1.
         -2   -1    0    0    0  501 -0.00000000000E+00 -0.00000000000E+00 -0.84888992517E+03  0.84888992517E+03  0.25500000000E-02 0.  1.
    8880023    1    1    2    0    0 -0.21358199065E+03 -0.35463611300E+03  0.39606227998E+03  0.87296023693E+03  0.65864270000E+03 0.  0.
    8880022    1    1    2    0    0  0.21358199065E+03  0.35463611300E+03 -0.53067250495E+03  0.69020938845E+03  0.15294330000E+03 0.  0.
<mgrwt>
<rscale>  0 0.67515329E+03</rscale>
<asrwt>0</asrwt>
<pdfrwt beam="1">  1        2 0.10988918E+00 0.77794232E+03</pdfrwt>
<pdfrwt beam="2">  1       -2 0.13059845E+00 0.77794232E+03</pdfrwt>
<totfact> 0.17340644E+01</totfact>
</mgrwt>
</event>
<event>
 4    2  0.2930016E-007  0.2131499E+04  0.7818608E-02  0.8558420E-01
         -2   -1    0    0    0  501 -0.00000000000E+00  0.00000000000E+00  0.15706247565E+04  0.15706247565E+04  0.25500000000E-02 0.  1.
          2   -1    0    0  501    0  0.00000000000E+00 -0.00000000000E+00 -0.27634978178E+04  0.27634978178E+04  0.25500000000E-02 0. -1.
    8880023    1    1    2    0    0  0.13371207867E+04  0.15236752045E+04 -0.53873733285E+03  0.21985282001E+04  0.65864270000E+03 0. -1.
    8880022    1    1    2    0    0 -0.13371207867E+04 -0.15236752045E+04 -0.65413572849E+03  0.21355943742E+04  0.15294330000E+03 0.  1.
<mgrwt>
<rscale>  0 0.21064217E+04</rscale>
<asrwt>0</asrwt>
<pdfrwt beam="1">  1        2 0.42515351E+00 0.21314991E+04</pdfrwt>
<pdfrwt beam="2">  1       -2 0.24163458E+00 0.21314991E+04</pdfrwt>
<totfact> 0.15476514E-01</totfact>
</mgrwt>
</event>
<event>
 4    2  0.2930016E-007  0.6858740E+03  0.7818608E-02  0.1006179E+00
          2   -1    0    0  501    0  0.00000000000E+00  0.00000000000E+00  0.38144814665E+03  0.38144814666E+03  0.25500000000E-02 0. -1.
         -2   -1    0    0    0  501 -0.00000000000E+00 -0.00000000000E+00 -0.11260818212E+04  0.11260818212E+04  0.25500000000E-02 0.  1.
    8880023    1    1    2    0    0 -0.18678722342E+02  0.19043102760E+03  0.38525692187E+02  0.68695509763E+03  0.65864270000E+03 0. -1.
    8880022    1    1    2    0    0  0.18678722342E+02 -0.19043102760E+03 -0.78315936672E+03  0.82057487022E+03  0.15294330000E+03 0.  0.
<mgrwt>
<rscale>  0 0.53022015E+03</rscale>
<asrwt>0</asrwt>
<pdfrwt beam="1">  1        2 0.58684331E-01 0.68587395E+03</pdfrwt>
<pdfrwt beam="2">  1       -2 0.17324336E+00 0.68587395E+03</pdfrwt>
<totfact> 0.17311945E+01</totfact>
</mgrwt>
</event>
<event>
 4    2  0.2930016E-007  0.8307469E+03  0.7818608E-02  0.9647881E-01
         -2   -1    0    0    0  501 -0.00000000000E+00  0.00000000000E+00  0.52176233495E+03  0.52176233496E+03  0.25500000000E-02 0.  1.
          2   -1    0    0  501    0  0.00000000000E+00 -0.00000000000E+00 -0.13173046161E+04  0.13173046161E+04  0.25500000000E-02 0. -1.
    8880023    1    1    2    0    0 -0.40933502523E+03 -0.29795150587E+03 -0.97466643805E+03  0.12806697991E+04  0.65864270000E+03 0.  0.
    8880022    1    1    2    0    0  0.40933502523E+03  0.29795150587E+03  0.17912415686E+03  0.55839715196E+03  0.15294330000E+03 0.  0.
<mgrwt>
<rscale>  0 0.74206572E+03</rscale>
<asrwt>0</asrwt>
<pdfrwt beam="1">  1        2 0.20266225E+00 0.83074693E+03</pdfrwt>
<pdfrwt beam="2">  1       -2 0.80271129E-01 0.83074693E+03</pdfrwt>
<totfact> 0.22421021E+01</totfact>
</mgrwt>
</event>
<event>
 4    2  0.2930016E-007  0.7975580E+03  0.7818608E-02  0.9716101E-01
          2   -1    0    0  501    0  0.00000000000E+00  0.00000000000E+00  0.12685967678E+04  0.12685967678E+04  0.25500000000E-02 0. -1.
         -2   -1    0    0    0  501 -0.00000000000E+00 -0.00000000000E+00 -0.51563732359E+03  0.51563732359E+03  0.25500000000E-02 0.  1.
    8880023    1    1    2    0    0 -0.20102717008E+03  0.40233902134E+03  0.97516224842E+03  0.12597778488E+04  0.65864270000E+03 0.  0.
    8880022    1    1    2    0    0  0.20102717008E+03 -0.40233902134E+03 -0.22220280423E+03  0.52445624262E+03  0.15294330000E+03 0.  0.
<mgrwt>
<rscale>  0 0.70066176E+03</rscale>
<asrwt>0</asrwt>
<pdfrwt beam="1">  1        2 0.19516873E+00 0.79755803E+03</pdfrwt>
<pdfrwt beam="2">  1       -2 0.79328819E-01 0.79755803E+03</pdfrwt>
<totfact> 0.24654511E+01</totfact>
</mgrwt>
</event>
<event>
 4    2  0.2930016E-007  0.7921007E+03  0.7818608E-02  0.9728144E-01
          2   -1    0    0  501    0  0.00000000000E+00  0.00000000000E+00  0.21203034811E+04  0.21203034811E+04  0.25500000000E-02 0. -1.
         -2   -1    0    0    0  501 -0.00000000000E+00 -0.00000000000E+00 -0.38848641064E+03  0.38848641065E+03  0.25500000000E-02 0.  1.
    8880023    1    1    2    0    0  0.42351926870E+03  0.11935145238E+03  0.18633642065E+04  0.20247344795E+04  0.65864270000E+03 0. -1.
    8880022    1    1    2    0    0 -0.42351926870E+03 -0.11935145238E+03 -0.13154713601E+03  0.48405541228E+03  0.15294330000E+03 0.  0.
<mgrwt>
<rscale>  0 0.69365580E+03</rscale>
<asrwt>0</asrwt>
<pdfrwt beam="1">  1        2 0.32620053E+00 0.79210072E+03</pdfrwt>
<pdfrwt beam="2">  1       -2 0.59767141E-01 0.79210072E+03</pdfrwt>
<totfact> 0.15415445E+01</totfact>
</mgrwt>
</event>
<event>
 4    2  0.2930016E-007  0.9384752E+03  0.7818608E-02  0.9466893E-01
          2   -1    0    0  501    0  0.00000000000E+00  0.00000000000E+00  0.10116847811E+04  0.10116847811E+04  0.25500000000E-02 0. -1.
         -2   -1    0    0    0  501 -0.00000000000E+00 -0.00000000000E+00 -0.10722834505E+04  0.10722834505E+04  0.25500000000E-02 0.  1.
    8880023    1    1    2    0    0  0.16277322084E+03  0.64840609512E+03  0.61440382183E+03  0.11217075591E+04  0.65864270000E+03 0. -1.
    8880022    1    1    2    0    0 -0.16277322084E+03 -0.64840609512E+03 -0.67500249121E+03  0.96226067246E+03  0.15294330000E+03 0.  0.
<mgrwt>
<rscale>  0 0.86769277E+03</rscale>
<asrwt>0</asrwt>
<pdfrwt beam="1">  1        2 0.15564381E+00 0.93847525E+03</pdfrwt>
<pdfrwt beam="2">  1       -2 0.16496669E+00 0.93847525E+03</pdfrwt>
<totfact> 0.57199533E+00</totfact>
</mgrwt>
</event>
<event>
 4    2  0.2930016E-007  0.7168379E+03  0.7818608E-02  0.9933434E-01
         -2   -1    0    0    0  501 -0.00000000000E+00  0.00000000000E+00  0.58109572799E+03  0.58109572800E+03  0.25500000000E-02 0.  1.
          2   -1    0    0  501    0  0.00000000000E+00 -0.00000000000E+00 -0.61243810200E+03  0.61243810201E+03  0.25500000000E-02 0. -1.
    8880023    1    1    2    0    0  0.27184820005E+03  0.78389878046E+02 -0.29744839663E+03  0.77610061962E+03  0.65864270000E+03 0. -1.
    8880022    1    1    2    0    0 -0.27184820005E+03 -0.78389878046E+02  0.26610602262E+03  0.41743321039E+03  0.15294330000E+03 0.  0.
<mgrwt>
<rscale>  0 0.58667933E+03</rscale>
<asrwt>0</asrwt>
<pdfrwt beam="1">  1        2 0.94221246E-01 0.71683793E+03</pdfrwt>
<pdfrwt beam="2">  1       -2 0.89399343E-01 0.71683793E+03</pdfrwt>
<totfact> 0.52684235E+01</totfact>
</mgrwt>
</event>
<event>
 4    2  0.2930016E-007  0.1027603E+04  0.7818608E-02  0.9346303E-01
         -2   -1    0    0    0  501 -0.00000000000E+00  0.00000000000E+00  0.69822587985E+03  0.69822587986E+03  0.25500000000E-02 0.  1.
          2   -1    0    0  501    0  0.00000000000E+00 -0.00000000000E+00 -0.12770873904E+04  0.12770873904E+04  0.25500000000E-02 0. -1.
    8880023    1    1    2    0    0 -0.17926052048E+03 -0.76813008680E+03 -0.56293807182E+03  0.11716943473E+04  0.65864270000E+03 0. -1.
    8880022    1    1    2    0    0  0.17926052048E+03  0.76813008680E+03 -0.15923438708E+02  0.80361892298E+03  0.15294330000E+03 0.  1.
<mgrwt>
<rscale>  0 0.96629629E+03</rscale>
<asrwt>0</asrwt>
<pdfrwt beam="1">  1        2 0.19647498E+00 0.10276032E+04</pdfrwt>
<pdfrwt beam="2">  1       -2 0.10741937E+00 0.10276032E+04</pdfrwt>
<totfact> 0.11760733E+01</totfact>
</mgrwt>
</event>
<event>
 4    2  0.2930016E-007  0.6767815E+03  0.7818608E-02  0.1011206E+00
         -2   -1    0    0    0  501 -0.00000000000E+00  0.00000000000E+00  0.41891314993E+03  0.41891314994E+03  0.25500000000E-02 0.  1.
          2   -1    0    0  501    0  0.00000000000E+00 -0.00000000000E+00 -0.63485592231E+03  0.63485592232E+03  0.25500000000E-02 0. -1.
    8880023    1    1    2    0    0  0.12371262348E+03 -0.94435856392E+02 -0.38419405961E+03  0.77822761830E+03  0.65864270000E+03 0.  0.
    8880022    1    1    2    0    0 -0.12371262348E+03  0.94435856392E+02  0.16825128723E+03  0.27554145396E+03  0.15294330000E+03 0.  0.
<mgrwt>
<rscale>  0 0.50998084E+03</rscale>
<asrwt>0</asrwt>
<pdfrwt beam="1">  1        2 0.97670142E-01 0.67678146E+03</pdfrwt>
<pdfrwt beam="2">  1       -2 0.64448177E-01 0.67678146E+03</pdfrwt>
<totfact> 0.10458035E+02</totfact>
</mgrwt>
</event>
<event>
 4    2  0.2930016E-007  0.9666016E+03  0.7818608E-02  0.9426620E-01
         -2   -1    0    0    0  501 -0.00000000000E+00  0.00000000000E+00  0.19623090166E+04  0.19623090166E+04  0.25500000000E-02 0.  1.
          2   -1    0    0  501    0  0.00000000000E+00 -0.00000000000E+00 -0.12340665066E+04  0.12340665067E+04  0.25500000000E-02 0. -1.
    8880023    1    1    2    0    0 -0.37559559684E+01 -0.70745628887E+03 -0.95827039269E+03  0.13611028101E+04  0.65864270000E+03 0.  0.
    8880022    1    1    2    0    0  0.37559559684E+01  0.70745628887E+03  0.16865129027E+04  0.18352727132E+04  0.15294330000E+03 0.  0.
<mgrwt>
<rscale>  0 0.89916979E+03</rscale>
<asrwt>0</asrwt>
<pdfrwt beam="1">  1        2 0.18985639E+00 0.96660163E+03</pdfrwt>
<pdfrwt beam="2">  1       -2 0.30189369E+00 0.96660163E+03</pdfrwt>
<totfact> 0.56477835E-01</totfact>
</mgrwt>
</event>
<event>
 4    2  0.2930016E-007  0.7821203E+03  0.7818608E-02  0.9750880E-01
          2   -1    0    0  501    0  0.00000000000E+00  0.00000000000E+00  0.80846714451E+03  0.80846714451E+03  0.25500000000E-02 0. -1.
         -2   -1    0    0    0  501 -0.00000000000E+00 -0.00000000000E+00 -0.95000194070E+03  0.95000194070E+03  0.25500000000E-02 0.  1.
    8880023    1    1    2    0    0 -0.28630952481E+03 -0.30972365450E+03  0.53434882353E+03  0.94722793330E+03  0.65864270000E+03 0. -1.
    8880022    1    1    2    0    0  0.28630952481E+03  0.30972365450E+03 -0.67588361971E+03  0.81124115191E+03  0.15294330000E+03 0.  0.
<mgrwt>
<rscale>  0 0.68066572E+03</rscale>
<asrwt>0</asrwt>
<pdfrwt beam="1">  1        2 0.12437956E+00 0.78212025E+03</pdfrwt>
<pdfrwt beam="2">  1       -2 0.14615414E+00 0.78212025E+03</pdfrwt>
<totfact> 0.11035747E+01</totfact>
</mgrwt>
</event>
<event>
 4    2  0.2930016E-007  0.6751044E+03  0.7818608E-02  0.1012241E+00
         -2   -1    0    0    0  501 -0.00000000000E+00  0.00000000000E+00  0.11335144934E+03  0.11335144937E+03  0.25500000000E-02 0.  1.
          2   -1    0    0  501    0  0.00000000000E+00 -0.00000000000E+00 -0.22612543496E+04  0.22612543496E+04  0.25500000000E-02 0. -1.
    8880023    1    1    2    0    0  0.15033484446E+02  0.14740998994E+03 -0.20113740899E+04  0.21216483324E+04  0.65864270000E+03 0. -1.
    8880022    1    1    2    0    0 -0.15033484446E+02 -0.14740998994E+03 -0.13652881033E+03  0.25295746649E+03  0.15294330000E+03 0.  0.
<mgrwt>
<rscale>  0 0.50593788E+03</rscale>
<asrwt>0</asrwt>
<pdfrwt beam="1">  1        2 0.34788525E+00 0.67510437E+03</pdfrwt>
<pdfrwt beam="2">  1       -2 0.17438686E-01 0.67510437E+03</pdfrwt>
<totfact> 0.13430154E+02</totfact>
</mgrwt>
</event>
<event>
 4    2  0.2930016E-007  0.6765174E+03  0.7818608E-02  0.1011366E+00
         -2   -1    0    0    0  501 -0.00000000000E+00  0.00000000000E+00  0.16283233846E+03  0.16283233848E+03  0.25500000000E-02 0.  1.
          2   -1    0    0  501    0  0.00000000000E+00 -0.00000000000E+00 -0.13389801414E+04  0.13389801414E+04  0.25500000000E-02 0. -1.
    8880023    1    1    2    0    0 -0.62603341077E+02 -0.14123197421E+03 -0.10540686944E+04  0.12524921827E+04  0.65864270000E+03 0. -1.
    8880022    1    1    2    0    0  0.62603341077E+02  0.14123197421E+03 -0.12207910853E+03  0.24932029722E+03  0.15294330000E+03 0. -1.
<mgrwt>
<rscale>  0 0.50935182E+03</rscale>
<asrwt>0</asrwt>
<pdfrwt beam="1">  1        2 0.20599694E+00 0.67651745E+03</pdfrwt>
<pdfrwt beam="2">  1       -2 0.25051130E-01 0.67651745E+03</pdfrwt>
<totfact> 0.22798575E+02</totfact>
</mgrwt>
</event>
<event>
 4    2  0.2930016E-007  0.8767834E+03  0.7818608E-02  0.9564379E-01
          2   -1    0    0  501    0  0.00000000000E+00  0.00000000000E+00  0.86748419670E+03  0.86748419670E+03  0.25500000000E-02 0. -1.
         -2   -1    0    0    0  501 -0.00000000000E+00 -0.00000000000E+00 -0.15259803925E+04  0.15259803925E+04  0.25500000000E-02 0.  1.
    8880023    1    1    2    0    0  0.51861980239E+03  0.25685099101E+03  0.55686983831E+03  0.10386785615E+04  0.65864270000E+03 0. -1.
    8880022    1    1    2    0    0 -0.51861980239E+03 -0.25685099101E+03 -0.12153660341E+04  0.13547860277E+04  0.15294330000E+03 0.  0.
<mgrwt>
<rscale>  0 0.79699340E+03</rscale>
<asrwt>0</asrwt>
<pdfrwt beam="1">  1        2 0.13345911E+00 0.87678340E+03</pdfrwt>
<pdfrwt beam="2">  1       -2 0.23476621E+00 0.87678340E+03</pdfrwt>
<totfact> 0.24900272E+00</totfact>
</mgrwt>
</event>
<event>
 4    2  0.2930016E-007  0.7408800E+03  0.7818608E-02  0.9857391E-01
          2   -1    0    0  501    0  0.00000000000E+00  0.00000000000E+00  0.17542744349E+04  0.17542744349E+04  0.25500000000E-02 0. -1.
         -2   -1    0    0    0  501 -0.00000000000E+00 -0.00000000000E+00 -0.18061538004E+03  0.18061538006E+03  0.25500000000E-02 0.  1.
    8880023    1    1    2    0    0  0.31778064955E+03  0.11877895403E+03  0.11789222879E+04  0.13923939630E+04  0.65864270000E+03 0.  0.
    8880022    1    1    2    0    0 -0.31778064955E+03 -0.11877895403E+03  0.39473676697E+03  0.54249585193E+03  0.15294330000E+03 0. -1.
<mgrwt>
<rscale>  0 0.62371488E+03</rscale>
<asrwt>0</asrwt>
<pdfrwt beam="1">  1        2 0.26988836E+00 0.74088001E+03</pdfrwt>
<pdfrwt beam="2">  1       -2 0.27786983E-01 0.74088001E+03</pdfrwt>
<totfact> 0.11050918E+02</totfact>
</mgrwt>
</event>
<event>
 4    2  0.2930016E-007  0.6719915E+03  0.7818608E-02  0.1014274E+00
          2   -1    0    0  501    0  0.00000000000E+00  0.00000000000E+00  0.10792682004E+04  0.10792682004E+04  0.25500000000E-02 0. -1.
         -2   -1    0    0    0  501 -0.00000000000E+00 -0.00000000000E+00 -0.17909115499E+03  0.17909115501E+03  0.25500000000E-02 0.  1.
    8880023    1    1    2    0    0  0.22952428314E+02  0.13128430924E+03  0.63564433939E+03  0.92499530609E+03  0.65864270000E+03 0.  1.
    8880022    1    1    2    0    0 -0.22952428314E+02 -0.13128430924E+03  0.26453270602E+03  0.33336404933E+03  0.15294330000E+03 0. -1.
<mgrwt>
<rscale>  0 0.49810901E+03</rscale>
<asrwt>0</asrwt>
<pdfrwt beam="1">  1        2 0.16604126E+00 0.67199151E+03</pdfrwt>
<pdfrwt beam="2">  1       -2 0.27552485E-01 0.67199151E+03</pdfrwt>
<totfact> 0.27298401E+02</totfact>
</mgrwt>
</event>
<event>
 4    2  0.2930016E-007  0.7326236E+03  0.7818608E-02  0.9881980E-01
          2   -1    0    0  501    0  0.00000000000E+00  0.00000000000E+00  0.14996490662E+04  0.14996490662E+04  0.25500000000E-02 0. -1.
         -2   -1    0    0    0  501 -0.00000000000E+00 -0.00000000000E+00 -0.31608301762E+03  0.31608301763E+03  0.25500000000E-02 0.  1.
    8880023    1    1    2    0    0  0.25303562406E+03  0.19723093639E+03  0.12550194476E+04  0.14532071736E+04  0.65864270000E+03 0.  0.
    8880022    1    1    2    0    0 -0.25303562406E+03 -0.19723093639E+03 -0.71453398988E+02  0.36252491026E+03  0.15294330000E+03 0.  0.
<mgrwt>
<rscale>  0 0.61142631E+03</rscale>
<asrwt>0</asrwt>
<pdfrwt beam="1">  1        2 0.23071524E+00 0.73262356E+03</pdfrwt>
<pdfrwt beam="2">  1       -2 0.48628157E-01 0.73262356E+03</pdfrwt>
<totfact> 0.52052365E+01</totfact>
</mgrwt>
</event>
<event>
 4    2  0.2930016E-007  0.1019486E+04  0.7818608E-02  0.9356496E-01
          2   -1    0    0  501    0  0.00000000000E+00  0.00000000000E+00  0.13024695659E+04  0.13024695659E+04  0.25500000000E-02 0. -1.
         -2   -1    0    0    0  501 -0.00000000000E+00 -0.00000000000E+00 -0.83340106397E+03  0.83340106398E+03  0.25500000000E-02 0.  1.
    8880023    1    1    2    0    0 -0.76206098846E+03 -0.15749539320E+03  0.78040517109E+03  0.12838941492E+04  0.65864270000E+03 0.  0.
    8880022    1    1    2    0    0  0.76206098846E+03  0.15749539320E+03 -0.31133666918E+03  0.85197648066E+03  0.15294330000E+03 0.  0.
<mgrwt>
<rscale>  0 0.95744001E+03</rscale>
<asrwt>0</asrwt>
<pdfrwt beam="1">  1        2 0.20037993E+00 0.10194861E+04</pdfrwt>
<pdfrwt beam="2">  1       -2 0.12821555E+00 0.10194861E+04</pdfrwt>
<totfact> 0.73407729E+00</totfact>
</mgrwt>
</event>
<event>
 4    2  0.2930016E-007  0.8200870E+03  0.7818608E-02  0.9668937E-01
          2   -1    0    0  501    0  0.00000000000E+00  0.00000000000E+00  0.10892074916E+04  0.10892074916E+04  0.25500000000E-02 0. -1.
         -2   -1    0    0    0  501 -0.00000000000E+00 -0.00000000000E+00 -0.64825590196E+03  0.64825590197E+03  0.25500000000E-02 0.  1.
    8880023    1    1    2    0    0  0.40234062342E+03 -0.27722641953E+03  0.77321065112E+03  0.11271190630E+04  0.65864270000E+03 0. -1.
    8880022    1    1    2    0    0 -0.40234062342E+03  0.27722641953E+03 -0.33225906146E+03  0.61034433058E+03  0.15294330000E+03 0.  0.
<mgrwt>
<rscale>  0 0.72896775E+03</rscale>
<asrwt>0</asrwt>
<pdfrwt beam="1">  1        2 0.16757038E+00 0.82008699E+03</pdfrwt>
<pdfrwt beam="2">  1       -2 0.99731678E-01 0.82008699E+03</pdfrwt>
<totfact> 0.18579904E+01</totfact>
</mgrwt>
</event>
<event>
 4    2  0.2930016E-007  0.7235288E+03  0.7818608E-02  0.9910822E-01
          2   -1    0    0  501    0  0.00000000000E+00  0.00000000000E+00  0.28086723073E+04  0.28086723073E+04  0.25500000000E-02 0. -1.
         -2   -1    0    0    0  501 -0.00000000000E+00 -0.00000000000E+00 -0.29556001338E+03  0.29556001339E+03  0.25500000000E-02 0.  1.
    8880023    1    1    2    0    0 -0.14204488885E+03  0.26364164897E+03  0.26456406179E+04  0.27427920364E+04  0.65864270000E+03 0. -1.
    8880022    1    1    2    0    0  0.14204488885E+03 -0.26364164897E+03 -0.13252832391E+03  0.36144028438E+03  0.15294330000E+03 0.  0.
<mgrwt>
<rscale>  0 0.59739672E+03</rscale>
<asrwt>0</asrwt>
<pdfrwt beam="1">  1        2 0.43210341E+00 0.72352877E+03</pdfrwt>
<pdfrwt beam="2">  1       -2 0.45470773E-01 0.72352877E+03</pdfrwt>
<totfact> 0.11126541E+01</totfact>
</mgrwt>
</event>
<event>
 4    2  0.2930016E-007  0.6926369E+03  0.7818608E-02  0.1002924E+00
          2   -1    0    0  501    0  0.00000000000E+00  0.00000000000E+00  0.73150186130E+03  0.73150186130E+03  0.25500000000E-02 0. -1.
         -2   -1    0    0    0  501 -0.00000000000E+00 -0.00000000000E+00 -0.75184434991E+03  0.75184434991E+03  0.25500000000E-02 0.  1.
    8880023    1    1    2    0    0  0.39293363700E+02  0.21069337241E+03  0.53073548265E+03  0.87259728650E+03  0.65864270000E+03 0. -1.
    8880022    1    1    2    0    0 -0.39293363700E+02 -0.21069337241E+03 -0.55107797126E+03  0.61074892471E+03  0.15294330000E+03 0.  0.
<mgrwt>
<rscale>  0 0.54386645E+03</rscale>
<asrwt>0</asrwt>
<pdfrwt beam="1">  1        2 0.11253875E+00 0.69263690E+03</pdfrwt>
<pdfrwt beam="2">  1       -2 0.11566836E+00 0.69263690E+03</pdfrwt>
<totfact> 0.22955585E+01</totfact>
</mgrwt>
</event>
<event>
 4    2  0.2930016E-007  0.1978981E+04  0.7818608E-02  0.8629501E-01
         -2   -1    0    0    0  501 -0.00000000000E+00  0.00000000000E+00  0.19185815817E+04  0.19185815817E+04  0.25500000000E-02 0.  1.
          2   -1    0    0  501    0  0.00000000000E+00 -0.00000000000E+00 -0.20137251656E+04  0.20137251656E+04  0.25500000000E-02 0. -1.
    8880023    1    1    2    0    0  0.91228990968E+03  0.16279689852E+04 -0.44273229138E+03  0.20278998950E+04  0.65864270000E+03 0.  0.
    8880022    1    1    2    0    0 -0.91228990968E+03 -0.16279689852E+04  0.34758870746E+03  0.19044068522E+04  0.15294330000E+03 0.  0.
<mgrwt>
<rscale>  0 0.19517847E+04</rscale>
<asrwt>0</asrwt>
<pdfrwt beam="1">  1        2 0.30980387E+00 0.19789811E+04</pdfrwt>
<pdfrwt beam="2">  1       -2 0.29516640E+00 0.19789811E+04</pdfrwt>
<totfact> 0.19941435E-01</totfact>
</mgrwt>
</event>
<event>
 4    2  0.2930016E-007  0.7645282E+03  0.7818608E-02  0.9793522E-01
         -2   -1    0    0    0  501 -0.00000000000E+00  0.00000000000E+00  0.39540835862E+03  0.39540835863E+03  0.25500000000E-02 0.  1.
          2   -1    0    0  501    0  0.00000000000E+00 -0.00000000000E+00 -0.11641301832E+04  0.11641301832E+04  0.25500000000E-02 0. -1.
    8880023    1    1    2    0    0  0.35786650062E+03 -0.15041542690E+03 -0.84047537761E+03  0.11361788150E+04  0.65864270000E+03 0. -1.
    8880022    1    1    2    0    0 -0.35786650062E+03  0.15041542690E+03  0.71753553074E+02  0.42335972684E+03  0.15294330000E+03 0.  0.
<mgrwt>
<rscale>  0 0.65711334E+03</rscale>
<asrwt>0</asrwt>
<pdfrwt beam="1">  1        2 0.17909695E+00 0.76452825E+03</pdfrwt>
<pdfrwt beam="2">  1       -2 0.60832056E-01 0.76452825E+03</pdfrwt>
<totfact> 0.50866805E+01</totfact>
</mgrwt>
</event>
<event>
 4    2  0.2930016E-007  0.7338535E+03  0.7818608E-02  0.9878227E-01
         -2   -1    0    0    0  501 -0.00000000000E+00  0.00000000000E+00  0.74945437733E+03  0.74945437733E+03  0.25500000000E-02 0.  1.
          2   -1    0    0  501    0  0.00000000000E+00 -0.00000000000E+00 -0.23100178771E+04  0.23100178771E+04  0.25500000000E-02 0. -1.
    8880023    1    1    2    0    0  0.12546583282E+03 -0.29831035223E+03 -0.22041165987E+04  0.23230735951E+04  0.65864270000E+03 0. -1.
    8880022    1    1    2    0    0 -0.12546583282E+03  0.29831035223E+03  0.64355309886E+03  0.73639865937E+03  0.15294330000E+03 0.  0.
<mgrwt>
<rscale>  0 0.61328191E+03</rscale>
<asrwt>0</asrwt>
<pdfrwt beam="1">  1        2 0.35538736E+00 0.73385349E+03</pdfrwt>
<pdfrwt beam="2">  1       -2 0.11530067E+00 0.73385349E+03</pdfrwt>
<totfact> 0.27475977E+00</totfact>
</mgrwt>
</event>
<event>
 4    2  0.2930016E-007  0.7410598E+03  0.7818608E-02  0.9856871E-01
          2   -1    0    0  501    0  0.00000000000E+00  0.00000000000E+00  0.25557806594E+04  0.25557806594E+04  0.25500000000E-02 0. -1.
         -2   -1    0    0    0  501 -0.00000000000E+00 -0.00000000000E+00 -0.19248949781E+03  0.19248949782E+03  0.25500000000E-02 0.  1.
    8880023    1    1    2    0    0 -0.32447813085E+03 -0.10036581362E+03  0.22344378110E+04  0.23541201948E+04  0.65864270000E+03 0. -1.
    8880022    1    1    2    0    0  0.32447813085E+03  0.10036581362E+03  0.12885335062E+03  0.39414996248E+03  0.15294330000E+03 0.  0.
<mgrwt>
<rscale>  0 0.62397823E+03</rscale>
<asrwt>0</asrwt>
<pdfrwt beam="1">  1        2 0.39319700E+00 0.74105975E+03</pdfrwt>
<pdfrwt beam="2">  1       -2 0.29613771E-01 0.74105975E+03</pdfrwt>
<totfact> 0.35459902E+01</totfact>
</mgrwt>
</event>
<event>
 4    2  0.2930016E-007  0.7574600E+03  0.7818608E-02  0.9811728E-01
         -2   -1    0    0    0  501 -0.00000000000E+00  0.00000000000E+00  0.13289212800E+03  0.13289212802E+03  0.25500000000E-02 0.  1.
          2   -1    0    0  501    0  0.00000000000E+00 -0.00000000000E+00 -0.25966155550E+04  0.25966155550E+04  0.25500000000E-02 0. -1.
    8880023    1    1    2    0    0 -0.37120497025E+03 -0.46284611465E+02 -0.14031824090E+04  0.15945740730E+04  0.65864270000E+03 0.  0.
    8880022    1    1    2    0    0  0.37120497025E+03  0.46284611465E+02 -0.10605410180E+04  0.11349336100E+04  0.15294330000E+03 0.  0.
<mgrwt>
<rscale>  0 0.64736919E+03</rscale>
<asrwt>0</asrwt>
<pdfrwt beam="1">  1        2 0.39947928E+00 0.75745997E+03</pdfrwt>
<pdfrwt beam="2">  1       -2 0.20444945E-01 0.75745997E+03</pdfrwt>
<totfact> 0.65353732E+01</totfact>
</mgrwt>
</event>
<event>
 4    2  0.2930016E-007  0.8089804E+03  0.7818608E-02  0.9691705E-01
          2   -1    0    0  501    0  0.00000000000E+00  0.00000000000E+00  0.60395925852E+03  0.60395925852E+03  0.25500000000E-02 0. -1.
         -2   -1    0    0    0  501 -0.00000000000E+00 -0.00000000000E+00 -0.73435075722E+03  0.73435075723E+03  0.25500000000E-02 0.  1.
    8880023    1    1    2    0    0 -0.18972903802E+03  0.42969994293E+03  0.54582135240E+02  0.81081968684E+03  0.65864270000E+03 0.  0.
    8880022    1    1    2    0    0  0.18972903802E+03 -0.42969994293E+03 -0.18497363394E+03  0.52749032891E+03  0.15294330000E+03 0.  0.
<mgrwt>
<rscale>  0 0.71512852E+03</rscale>
<asrwt>0</asrwt>
<pdfrwt beam="1">  1        2 0.92916809E-01 0.80898044E+03</pdfrwt>
<pdfrwt beam="2">  1       -2 0.11297704E+00 0.80898044E+03</pdfrwt>
<totfact> 0.30542416E+01</totfact>
</mgrwt>
</event>
<event>
 4    2  0.2930016E-007  0.8383322E+03  0.7818608E-02  0.9633333E-01
         -2   -1    0    0    0  501 -0.00000000000E+00  0.00000000000E+00  0.14245035726E+03  0.14245035729E+03  0.25500000000E-02 0.  1.
          2   -1    0    0  501    0  0.00000000000E+00 -0.00000000000E+00 -0.49757719025E+04  0.49757719025E+04  0.25500000000E-02 0. -1.
    8880023    1    1    2    0    0  0.51834311963E+03 -0.17638834408E+02 -0.42117342759E+04  0.42943575230E+04  0.65864270000E+03 0.  0.
    8880022    1    1    2    0    0 -0.51834311963E+03  0.17638834408E+02 -0.62158726935E+03  0.82386473682E+03  0.15294330000E+03 0.  0.
<mgrwt>
<rscale>  0 0.75128725E+03</rscale>
<asrwt>0</asrwt>
<pdfrwt beam="1">  1        2 0.76550324E+00 0.83833223E+03</pdfrwt>
<pdfrwt beam="2">  1       -2 0.21915443E-01 0.83833223E+03</pdfrwt>
<totfact> 0.76488448E-01</totfact>
</mgrwt>
</event>
<event>
 4    2  0.2930016E-007  0.8329048E+03  0.7818608E-02  0.9643707E-01
          2   -1    0    0  501    0  0.00000000000E+00  0.00000000000E+00  0.44640975877E+03  0.44640975878E+03  0.25500000000E-02 0. -1.
         -2   -1    0    0    0  501 -0.00000000000E+00 -0.00000000000E+00 -0.34270032720E+04  0.34270032720E+04  0.25500000000E-02 0.  1.
    8880023    1    1    2    0    0 -0.59486700003E+02 -0.50634139068E+03  0.12861728216E+02  0.83300414267E+03  0.65864270000E+03 0. -1.
    8880022    1    1    2    0    0  0.59486700003E+02  0.50634139068E+03 -0.29934552415E+04  0.30404088881E+04  0.15294330000E+03 0.  0.
<mgrwt>
<rscale>  0 0.74469707E+03</rscale>
<asrwt>0</asrwt>
<pdfrwt beam="1">  1        2 0.68678427E-01 0.83290484E+03</pdfrwt>
<pdfrwt beam="2">  1       -2 0.52723125E+00 0.83290484E+03</pdfrwt>
<totfact> 0.82163097E-02</totfact>
</mgrwt>
</event>
<event>
 4    2  0.2930016E-007  0.9161817E+03  0.7818608E-02  0.9500539E-01
          2   -1    0    0  501    0  0.00000000000E+00  0.00000000000E+00  0.85956973117E+03  0.85956973117E+03  0.25500000000E-02 0. -1.
         -2   -1    0    0    0  501 -0.00000000000E+00 -0.00000000000E+00 -0.14797614426E+04  0.14797614426E+04  0.25500000000E-02 0.  1.
    8880023    1    1    2    0    0  0.46636194768E+03  0.43368801248E+03 -0.11687149041E+04  0.14850196941E+04  0.65864270000E+03 0.  0.
    8880022    1    1    2    0    0 -0.46636194768E+03 -0.43368801248E+03  0.54852319269E+03  0.85431147970E+03  0.15294330000E+03 0.  0.
<mgrwt>
<rscale>  0 0.84244128E+03</rscale>
<asrwt>0</asrwt>
<pdfrwt beam="1">  1        2 0.13224150E+00 0.91618173E+03</pdfrwt>
<pdfrwt beam="2">  1       -2 0.22765561E+00 0.91618173E+03</pdfrwt>
<totfact> 0.27768731E+00</totfact>
</mgrwt>
</event>
<event>
 4    2  0.2930016E-007  0.7259143E+03  0.7818608E-02  0.9903059E-01
          2   -1    0    0  501    0  0.00000000000E+00  0.00000000000E+00  0.79176307932E+03  0.79176307933E+03  0.25500000000E-02 0. -1.
         -2   -1    0    0    0  501 -0.00000000000E+00 -0.00000000000E+00 -0.79378354064E+03  0.79378354064E+03  0.25500000000E-02 0.  1.
    8880023    1    1    2    0    0 -0.27069513237E+03  0.14094522853E+03  0.56759327241E+03  0.92147367910E+03  0.65864270000E+03 0. -1.
    8880022    1    1    2    0    0  0.27069513237E+03 -0.14094522853E+03 -0.56961373372E+03  0.66407294087E+03  0.15294330000E+03 0.  0.
<mgrwt>
<rscale>  0 0.60113245E+03</rscale>
<asrwt>0</asrwt>
<pdfrwt beam="1">  1        2 0.12180970E+00 0.72591433E+03</pdfrwt>
<pdfrwt beam="2">  1       -2 0.12212054E+00 0.72591433E+03</pdfrwt>
<totfact> 0.18056109E+01</totfact>
</mgrwt>
</event>
<event>
 4    2  0.2930016E-007  0.7403765E+03  0.7818608E-02  0.9858852E-01
         -2   -1    0    0    0  501 -0.00000000000E+00  0.00000000000E+00  0.62457615548E+03  0.62457615548E+03  0.25500000000E-02 0.  1.
          2   -1    0    0  501    0  0.00000000000E+00 -0.00000000000E+00 -0.49452340648E+03  0.49452340648E+03  0.25500000000E-02 0. -1.
    8880023    1    1    2    0    0  0.23794414117E+03 -0.24027024512E+03  0.88708558650E+02  0.74567192494E+03  0.65864270000E+03 0.  1.
    8880022    1    1    2    0    0 -0.23794414117E+03  0.24027024512E+03  0.41344190348E+02  0.37342763702E+03  0.15294330000E+03 0. -1.
<mgrwt>
<rscale>  0 0.62297633E+03</rscale>
<asrwt>0</asrwt>
<pdfrwt beam="1">  1        2 0.76080524E-01 0.74037653E+03</pdfrwt>
<pdfrwt beam="2">  1       -2 0.96088639E-01 0.74037653E+03</pdfrwt>
<totfact> 0.57292451E+01</totfact>
</mgrwt>
</event>
<event>
 4    2  0.2930016E-007  0.1107729E+04  0.7818608E-02  0.9252500E-01
          2   -1    0    0  501    0  0.00000000000E+00  0.00000000000E+00  0.16136679112E+04  0.16136679112E+04  0.25500000000E-02 0. -1.
         -2   -1    0    0    0  501 -0.00000000000E+00 -0.00000000000E+00 -0.78274601033E+03  0.78274601033E+03  0.25500000000E-02 0.  1.
    8880023    1    1    2    0    0 -0.47072637560E+03 -0.75608818851E+03  0.98182513951E+03  0.14802173760E+04  0.65864270000E+03 0.  0.
    8880022    1    1    2    0    0  0.47072637560E+03  0.75608818851E+03 -0.15090323866E+03  0.91619654548E+03  0.15294330000E+03 0.  0.
<mgrwt>
<rscale>  0 0.10527595E+04</rscale>
<asrwt>0</asrwt>
<pdfrwt beam="1">  1        2 0.24825660E+00 0.11077287E+04</pdfrwt>
<pdfrwt beam="2">  1       -2 0.12042246E+00 0.11077287E+04</pdfrwt>
<totfact> 0.56731051E+00</totfact>
</mgrwt>
</event>
<event>
 4    2  0.2930016E-007  0.1297979E+04  0.7818608E-02  0.9067307E-01
         -2   -1    0    0    0  501 -0.00000000000E+00  0.00000000000E+00  0.10608666981E+04  0.10608666981E+04  0.25500000000E-02 0.  1.
          2   -1    0    0  501    0  0.00000000000E+00 -0.00000000000E+00 -0.15426433373E+04  0.15426433373E+04  0.25500000000E-02 0. -1.
    8880023    1    1    2    0    0  0.20311839188E+03  0.10998552280E+04  0.15538123680E+03  0.13072460130E+04  0.65864270000E+03 0.  1.
    8880022    1    1    2    0    0 -0.20311839188E+03 -0.10998552280E+04 -0.63715787600E+03  0.12962640223E+04  0.15294330000E+03 0.  0.
<mgrwt>
<rscale>  0 0.12534613E+04</rscale>
<asrwt>0</asrwt>
<pdfrwt beam="1">  1        2 0.23732974E+00 0.12979787E+04</pdfrwt>
<pdfrwt beam="2">  1       -2 0.16321026E+00 0.12979787E+04</pdfrwt>
<totfact> 0.27562243E+00</totfact>
</mgrwt>
</event>
<event>
 4    2  0.2930016E-007  0.7175920E+03  0.7818608E-02  0.9930820E-01
          2   -1    0    0  501    0  0.00000000000E+00  0.00000000000E+00  0.16180678852E+04  0.16180678853E+04  0.25500000000E-02 0. -1.
         -2   -1    0    0    0  501 -0.00000000000E+00 -0.00000000000E+00 -0.18608070422E+03  0.18608070423E+03  0.25500000000E-02 0.  1.
    8880023    1    1    2    0    0  0.23238123951E+03  0.16470282371E+03  0.69324131655E+03  0.99775838250E+03  0.65864270000E+03 0.  1.
    8880022    1    1    2    0    0 -0.23238123951E+03 -0.16470282371E+03  0.73874586449E+03  0.80639020699E+03  0.15294330000E+03 0.  1.
<mgrwt>
<rscale>  0 0.58790610E+03</rscale>
<asrwt>0</asrwt>
<pdfrwt beam="1">  1        2 0.24893352E+00 0.71759199E+03</pdfrwt>
<pdfrwt beam="2">  1       -2 0.28627801E-01 0.71759199E+03</pdfrwt>
<totfact> 0.12448794E+02</totfact>
</mgrwt>
</event>
<event>
 4    2  0.2930016E-007  0.6827945E+03  0.7818608E-02  0.1007785E+00
          2   -1    0    0  501    0  0.00000000000E+00  0.00000000000E+00  0.15563095553E+04  0.15563095553E+04  0.25500000000E-02 0. -1.
         -2   -1    0    0    0  501 -0.00000000000E+00 -0.00000000000E+00 -0.15913409655E+03  0.15913409657E+03  0.25500000000E-02 0.  1.
    8880023    1    1    2    0    0 -0.14252201600E+03  0.10993454224E+03  0.12823784409E+04  0.14528257985E+04  0.65864270000E+03 0. -1.
    8880022    1    1    2    0    0  0.14252201600E+03 -0.10993454224E+03  0.11479701782E+03  0.26261785342E+03  0.15294330000E+03 0.  0.
<mgrwt>
<rscale>  0 0.52364486E+03</rscale>
<asrwt>0</asrwt>
<pdfrwt beam="1">  1        2 0.23943224E+00 0.68279450E+03</pdfrwt>
<pdfrwt beam="2">  1       -2 0.24482169E-01 0.68279450E+03</pdfrwt>
<totfact> 0.17947742E+02</totfact>
</mgrwt>
</event>
<event>
 4    2  0.2930016E-007  0.8133163E+03  0.7818608E-02  0.9682710E-01
         -2   -1    0    0    0  501 -0.00000000000E+00  0.00000000000E+00  0.17105620770E+04  0.17105620770E+04  0.25500000000E-02 0.  1.
          2   -1    0    0  501    0  0.00000000000E+00 -0.00000000000E+00 -0.52940583014E+03  0.52940583015E+03  0.25500000000E-02 0. -1.
    8880023    1    1    2    0    0  0.26917400822E+03  0.39397777464E+03 -0.14154482185E+03  0.82554120216E+03  0.65864270000E+03 0.  0.
    8880022    1    1    2    0    0 -0.26917400822E+03 -0.39397777464E+03  0.13227010687E+04  0.14144267050E+04  0.15294330000E+03 0.  0.
<mgrwt>
<rscale>  0 0.72055613E+03</rscale>
<asrwt>0</asrwt>
<pdfrwt beam="1">  1        2 0.81447051E-01 0.81331626E+03</pdfrwt>
<pdfrwt beam="2">  1       -2 0.26316340E+00 0.81331626E+03</pdfrwt>
<totfact> 0.31457991E+00</totfact>
</mgrwt>
</event>
<event>
 4    2  0.3779727E-007  0.7354120E+03  0.7818608E-02  0.9873519E-01
          2   -1    0    0  501    0  0.00000000000E+00  0.00000000000E+00  0.15932483190E+04  0.15932483191E+04  0.25500000000E-02 0. -1.
         -2   -1    0    0    0  501 -0.00000000000E+00 -0.00000000000E+00 -0.90630176306E+03  0.90630176307E+03  0.25500000000E-02 0.  1.
    8880023    1    1    2    0    0 -0.30246878128E+03 -0.12463235827E+03  0.14664159248E+04  0.16404897010E+04  0.65864270000E+03 0. -1.
    8880022    1    1    2    0    0  0.30246878128E+03  0.12463235827E+03 -0.77946936883E+03  0.85906038108E+03  0.15294330000E+03 0.  0.
<mgrwt>
<rscale>  0 0.61562015E+03</rscale>
<asrwt>0</asrwt>
<pdfrwt beam="1">  1        2 0.24511512E+00 0.73541199E+03</pdfrwt>
<pdfrwt beam="2">  1       -2 0.13943104E+00 0.73541199E+03</pdfrwt>
<totfact> 0.42065580E+00</totfact>
</mgrwt>
</event>
<event>
 4    2  0.2930016E-007  0.7124813E+03  0.7818608E-02  0.9948900E-01
         -2   -1    0    0    0  501 -0.00000000000E+00  0.00000000000E+00  0.28502910766E+03  0.28502910767E+03  0.25500000000E-02 0.  1.
          2   -1    0    0  501    0  0.00000000000E+00 -0.00000000000E+00 -0.15053176803E+04  0.15053176803E+04  0.25500000000E-02 0. -1.
    8880023    1    1    2    0    0  0.15220671257E+03 -0.22506100274E+03 -0.12874142650E+04  0.14714159963E+04  0.65864270000E+03 0. -1.
    8880022    1    1    2    0    0 -0.15220671257E+03  0.22506100274E+03  0.67125692304E+02  0.31893079169E+03  0.15294330000E+03 0.  0.
<mgrwt>
<rscale>  0 0.57948808E+03</rscale>
<asrwt>0</asrwt>
<pdfrwt beam="1">  1        2 0.23158733E+00 0.71248126E+03</pdfrwt>
<pdfrwt beam="2">  1       -2 0.43850633E-01 0.71248126E+03</pdfrwt>
<totfact> 0.63703860E+01</totfact>
</mgrwt>
</event>
<event>
 4    2  0.2930016E-007  0.6607800E+03  0.7818608E-02  0.1023371E+00
         -2   -1    0    0    0  501 -0.00000000000E+00  0.00000000000E+00  0.37850042499E+03  0.37850042500E+03  0.25500000000E-02 0.  1.
          2   -1    0    0  501    0  0.00000000000E+00 -0.00000000000E+00 -0.90976807811E+03  0.90976807811E+03  0.25500000000E-02 0. -1.
    8880023    1    1    2    0    0  0.48099006484E+02 -0.22505030007E+02 -0.76060219106E+03  0.10075444854E+04  0.65864270000E+03 0. -1.
    8880022    1    1    2    0    0 -0.48099006484E+02  0.22505030007E+02  0.22933453794E+03  0.28072401769E+03  0.15294330000E+03 0.  0.
<mgrwt>
<rscale>  0 0.46489454E+03</rscale>
<asrwt>0</asrwt>
<pdfrwt beam="1">  1        2 0.13996432E+00 0.66077999E+03</pdfrwt>
<pdfrwt beam="2">  1       -2 0.58230835E-01 0.66077999E+03</pdfrwt>
<totfact> 0.81327542E+01</totfact>
</mgrwt>
</event>
<event>
 4    2  0.2930016E-007  0.7489027E+03  0.7818608E-02  0.9834734E-01
         -2   -1    0    0    0  501 -0.00000000000E+00  0.00000000000E+00  0.38629713338E+03  0.38629713338E+03  0.25500000000E-02 0.  1.
          2   -1    0    0  501    0  0.00000000000E+00 -0.00000000000E+00 -0.41924857695E+04  0.41924857695E+04  0.25500000000E-02 0. -1.
    8880023    1    1    2    0    0  0.20749487574E+03 -0.28981184525E+03 -0.40513162477E+04  0.41199537102E+04  0.65864270000E+03 0. -1.
    8880022    1    1    2    0    0 -0.20749487574E+03  0.28981184525E+03  0.24512761156E+03  0.45882919270E+03  0.15294330000E+03 0.  0.
<mgrwt>
<rscale>  0 0.63531376E+03</rscale>
<asrwt>0</asrwt>
<pdfrwt beam="1">  1        2 0.64499778E+00 0.74890269E+03</pdfrwt>
<pdfrwt beam="2">  1       -2 0.59430331E-01 0.74890269E+03</pdfrwt>
<totfact> 0.70113512E-01</totfact>
</mgrwt>
</event>
<event>
 4    2  0.2930016E-007  0.1289398E+04  0.7818608E-02  0.9074769E-01
         -2   -1    0    0    0  501 -0.00000000000E+00  0.00000000000E+00  0.48242387885E+03  0.48242387885E+03  0.25500000000E-02 0.  1.
          2   -1    0    0  501    0  0.00000000000E+00 -0.00000000000E+00 -0.35647047317E+04  0.35647047317E+04  0.25500000000E-02 0. -1.
    8880023    1    1    2    0    0 -0.73025967297E+03 -0.83394175227E+03 -0.24326459805E+04  0.27532371327E+04  0.65864270000E+03 0.  0.
    8880022    1    1    2    0    0  0.73025967297E+03  0.83394175227E+03 -0.64963487241E+03  0.12938914779E+04  0.15294330000E+03 0.  0.
<mgrwt>
<rscale>  0 0.12445046E+04</rscale>
<asrwt>0</asrwt>
<pdfrwt beam="1">  1        2 0.54841609E+00 0.12893984E+04</pdfrwt>
<pdfrwt beam="2">  1       -2 0.74219061E-01 0.12893984E+04</pdfrwt>
<totfact> 0.11882705E+00</totfact>
</mgrwt>
</event>
<event>
 4    2  0.2930016E-007  0.8238235E+03  0.7818608E-02  0.9661472E-01
          2   -1    0    0  501    0  0.00000000000E+00  0.00000000000E+00  0.10147729137E+04  0.10147729137E+04  0.25500000000E-02 0. -1.
         -2   -1    0    0    0  501 -0.00000000000E+00 -0.00000000000E+00 -0.88513629982E+03  0.88513629982E+03  0.25500000000E-02 0.  1.
    8880023    1    1    2    0    0 -0.75304539516E+02 -0.48908503497E+03  0.73441501365E+03  0.11036532805E+04  0.65864270000E+03 0.  0.
    8880022    1    1    2    0    0  0.75304539516E+02  0.48908503497E+03 -0.60477839972E+03  0.79625593303E+03  0.15294330000E+03 0.  0.
<mgrwt>
<rscale>  0 0.73357827E+03</rscale>
<asrwt>0</asrwt>
<pdfrwt beam="1">  1        2 0.15611891E+00 0.82382350E+03</pdfrwt>
<pdfrwt beam="2">  1       -2 0.13617482E+00 0.82382350E+03</pdfrwt>
<totfact> 0.95966519E+00</totfact>
</mgrwt>
</event>
<event>
 4    2  0.2930016E-007  0.7085009E+03  0.7818608E-02  0.9963611E-01
         -2   -1    0    0    0  501 -0.00000000000E+00  0.00000000000E+00  0.36085840306E+03  0.36085840307E+03  0.25500000000E-02 0.  1.
          2   -1    0    0  501    0  0.00000000000E+00 -0.00000000000E+00 -0.88964594976E+03  0.88964594976E+03  0.25500000000E-02 0. -1.
    8880023    1    1    2    0    0 -0.18518305059E+03  0.18403936968E+03 -0.61250584746E+03  0.93655585592E+03  0.65864270000E+03 0.  0.
    8880022    1    1    2    0    0  0.18518305059E+03 -0.18403936968E+03  0.83718300765E+02  0.31394849692E+03  0.15294330000E+03 0.  0.
<mgrwt>
<rscale>  0 0.57275051E+03</rscale>
<asrwt>0</asrwt>
<pdfrwt beam="1">  1        2 0.13686861E+00 0.70850085E+03</pdfrwt>
<pdfrwt beam="2">  1       -2 0.55516677E-01 0.70850085E+03</pdfrwt>
<totfact> 0.92329802E+01</totfact>
</mgrwt>
</event>
<event>
 4    2  0.4852245E-007  0.6628353E+03  0.7818608E-02  0.1021423E+00
          2   -1    0    0  501    0  0.00000000000E+00  0.00000000000E+00  0.94687525746E+03  0.94687525746E+03  0.25500000000E-02 0. -1.
         -2   -1    0    0    0  501 -0.00000000000E+00 -0.00000000000E+00 -0.15842656070E+04  0.15842656070E+04  0.25500000000E-02 0.  1.
    8880023    1    1    2    0    0  0.39488580922E+01 -0.74328998576E+02  0.82533995221E+03  0.10585540310E+04  0.65864270000E+03 0. -1.
    8880022    1    1    2    0    0 -0.39488580922E+01  0.74328998576E+02 -0.14627303017E+04  0.14725868335E+04  0.15294330000E+03 0.  0.
<mgrwt>
<rscale>  0 0.47176596E+03</rscale>
<asrwt>0</asrwt>
<pdfrwt beam="1">  1        2 0.14567312E+00 0.66283527E+03</pdfrwt>
<pdfrwt beam="2">  1       -2 0.24373317E+00 0.66283527E+03</pdfrwt>
<totfact> 0.20078216E+00</totfact>
</mgrwt>
</event>
<event>
 4    2  0.2930016E-007  0.1109173E+04  0.7818608E-02  0.9250911E-01
          2   -1    0    0  501    0  0.00000000000E+00  0.00000000000E+00  0.14380802766E+04  0.14380802766E+04  0.25500000000E-02 0. -1.
         -2   -1    0    0    0  501 -0.00000000000E+00 -0.00000000000E+00 -0.10290565130E+04  0.10290565130E+04  0.25500000000E-02 0.  1.
    8880023    1    1    2    0    0  0.85528006825E+03  0.25485522272E+03  0.90787863897E+03  0.14333558557E+04  0.65864270000E+03 0.  0.
    8880022    1    1    2    0    0 -0.85528006825E+03 -0.25485522272E+03 -0.49885487540E+03  0.10337809340E+04  0.15294330000E+03 0.  0.
<mgrwt>
<rscale>  0 0.10543047E+04</rscale>
<asrwt>0</asrwt>
<pdfrwt beam="1">  1        2 0.22124312E+00 0.11091733E+04</pdfrwt>
<pdfrwt beam="2">  1       -2 0.15831639E+00 0.11091733E+04</pdfrwt>
<totfact> 0.34981452E+00</totfact>
</mgrwt>
</event>
<event>
 4    2  0.2930016E-007  0.8561264E+03  0.7818608E-02  0.9600491E-01
         -2   -1    0    0    0  501 -0.00000000000E+00  0.00000000000E+00  0.23442923885E+03  0.23442923886E+03  0.25500000000E-02 0.  1.
          2   -1    0    0  501    0  0.00000000000E+00 -0.00000000000E+00 -0.31050006760E+04  0.31050006760E+04  0.25500000000E-02 0. -1.
    8880023    1    1    2    0    0  0.80834766139E+02 -0.54093253521E+03 -0.25442605900E+04  0.26844393126E+04  0.65864270000E+03 0.  0.
    8880022    1    1    2    0    0 -0.80834766139E+02  0.54093253521E+03 -0.32631084720E+03  0.65499060228E+03  0.15294330000E+03 0.  0.
<mgrwt>
<rscale>  0 0.77263674E+03</rscale>
<asrwt>0</asrwt>
<pdfrwt beam="1">  1        2 0.47769238E+00 0.85612644E+03</pdfrwt>
<pdfrwt beam="2">  1       -2 0.36066039E-01 0.85612644E+03</pdfrwt>
<totfact> 0.11308860E+01</totfact>
</mgrwt>
</event>
<event>
 4    2  0.2930016E-007  0.6859747E+03  0.7818608E-02  0.1006128E+00
         -2   -1    0    0    0  501 -0.00000000000E+00  0.00000000000E+00  0.71375991937E+03  0.71375991938E+03  0.25500000000E-02 0.  1.
          2   -1    0    0  501    0  0.00000000000E+00 -0.00000000000E+00 -0.12456903034E+04  0.12456903034E+04  0.25500000000E-02 0. -1.
    8880023    1    1    2    0    0 -0.17254312637E+03  0.83545936204E+02 -0.11250178274E+04  0.13176594295E+04  0.65864270000E+03 0. -1.
    8880022    1    1    2    0    0  0.17254312637E+03 -0.83545936204E+02  0.59308744335E+03  0.64179079331E+03  0.15294330000E+03 0.  0.
<mgrwt>
<rscale>  0 0.53043105E+03</rscale>
<asrwt>0</asrwt>
<pdfrwt beam="1">  1        2 0.19164466E+00 0.68597468E+03</pdfrwt>
<pdfrwt beam="2">  1       -2 0.10980922E+00 0.68597468E+03</pdfrwt>
<totfact> 0.12076644E+01</totfact>
</mgrwt>
</event>
<event>
 4    2  0.2930016E-007  0.7029049E+03  0.7818608E-02  0.9985357E-01
         -2   -1    0    0    0  501 -0.00000000000E+00  0.00000000000E+00  0.22890597219E+03  0.22890597220E+03  0.25500000000E-02 0.  1.
          2   -1    0    0  501    0  0.00000000000E+00 -0.00000000000E+00 -0.28002487379E+04  0.28002487379E+04  0.25500000000E-02 0. -1.
    8880023    1    1    2    0    0  0.24548565276E+03  0.13655386968E+01 -0.26399249079E+04  0.27319002171E+04  0.65864270000E+03 0. -1.
    8880022    1    1    2    0    0 -0.24548565276E+03 -0.13655386968E+01  0.68582142154E+02  0.29725449306E+03  0.15294330000E+03 0.  0.
<mgrwt>
<rscale>  0 0.56296971E+03</rscale>
<asrwt>0</asrwt>
<pdfrwt beam="1">  1        2 0.43080747E+00 0.70290488E+03</pdfrwt>
<pdfrwt beam="2">  1       -2 0.35216305E-01 0.70290488E+03</pdfrwt>
<totfact> 0.18590901E+01</totfact>
</mgrwt>
</event>
<event>
 4    2  0.2930016E-007  0.6686642E+03  0.7818608E-02  0.1016639E+00
         -2   -1    0    0    0  501 -0.00000000000E+00  0.00000000000E+00  0.22379747952E+03  0.22379747954E+03  0.25500000000E-02 0.  1.
          2   -1    0    0  501    0  0.00000000000E+00 -0.00000000000E+00 -0.19468088263E+04  0.19468088263E+04  0.25500000000E-02 0. -1.
    8880023    1    1    2    0    0 -0.19550956453E+02  0.11366337670E+03 -0.18320013517E+04  0.19502155681E+04  0.65864270000E+03 0. -1.
    8880022    1    1    2    0    0  0.19550956453E+02 -0.11366337670E+03  0.10899000492E+03  0.22039073776E+03  0.15294330000E+03 0.  0.
<mgrwt>
<rscale>  0 0.48919199E+03</rscale>
<asrwt>0</asrwt>
<pdfrwt beam="1">  1        2 0.29950904E+00 0.66866420E+03</pdfrwt>
<pdfrwt beam="2">  1       -2 0.34430383E-01 0.66866420E+03</pdfrwt>
<totfact> 0.58703188E+01</totfact>
</mgrwt>
</event>
<event>
 4    2  0.2930016E-007  0.7841516E+03  0.7818608E-02  0.9746174E-01
         -2   -1    0    0    0  501 -0.00000000000E+00  0.00000000000E+00  0.64405385277E+03  0.64405385278E+03  0.25500000000E-02 0.  1.
          2   -1    0    0  501    0  0.00000000000E+00 -0.00000000000E+00 -0.63079776329E+03  0.63079776329E+03  0.25500000000E-02 0. -1.
    8880023    1    1    2    0    0 -0.26929352917E+03 -0.32949122497E+03  0.15829864274E+03  0.79997008616E+03  0.65864270000E+03 0.  0.
    8880022    1    1    2    0    0  0.26929352917E+03  0.32949122497E+03 -0.14504255326E+03  0.47488152992E+03  0.15294330000E+03 0.  0.
<mgrwt>
<rscale>  0 0.68332934E+03</rscale>
<asrwt>0</asrwt>
<pdfrwt beam="1">  1        2 0.97045810E-01 0.78415157E+03</pdfrwt>
<pdfrwt beam="2">  1       -2 0.99085207E-01 0.78415157E+03</pdfrwt>
<totfact> 0.39784084E+01</totfact>
</mgrwt>
</event>
<event>
 4    2  0.3451629E-007  0.9485580E+03  0.7818608E-02  0.9452192E-01
          2   -1    0    0  501    0  0.00000000000E+00  0.00000000000E+00  0.14812741542E+04  0.14812741542E+04  0.25500000000E-02 0. -1.
         -2   -1    0    0    0  501 -0.00000000000E+00 -0.00000000000E+00 -0.18729434954E+04  0.18729434954E+04  0.25500000000E-02 0.  1.
    8880023    1    1    2    0    0  0.30071412941E+02  0.68194407214E+03  0.12503280162E+04  0.15694210275E+04  0.65864270000E+03 0.  0.
    8880022    1    1    2    0    0 -0.30071412941E+02 -0.68194407214E+03 -0.16419973574E+04  0.17847966221E+04  0.15294330000E+03 0.  1.
<mgrwt>
<rscale>  0 0.87902181E+03</rscale>
<asrwt>0</asrwt>
<pdfrwt beam="1">  1        2 0.22788833E+00 0.94855797E+03</pdfrwt>
<pdfrwt beam="2">  1       -2 0.28814515E+00 0.94855797E+03</pdfrwt>
<totfact> 0.49437623E-01</totfact>
</mgrwt>
</event>
<event>
 4    2  0.2930016E-007  0.7339970E+03  0.7818608E-02  0.9877791E-01
         -2   -1    0    0    0  501 -0.00000000000E+00  0.00000000000E+00  0.20616620982E+03  0.20616620984E+03  0.25500000000E-02 0.  1.
          2   -1    0    0  501    0  0.00000000000E+00 -0.00000000000E+00 -0.15832002468E+04  0.15832002468E+04  0.25500000000E-02 0. -1.
    8880023    1    1    2    0    0  0.14097207658E+03 -0.29166459210E+03 -0.11531226168E+04  0.13669101420E+04  0.65864270000E+03 0.  0.
    8880022    1    1    2    0    0 -0.14097207658E+03  0.29166459210E+03 -0.22391142012E+03  0.42245631458E+03  0.15294330000E+03 0.  0.
<mgrwt>
<rscale>  0 0.61349779E+03</rscale>
<asrwt>0</asrwt>
<pdfrwt beam="1">  1        2 0.24356926E+00 0.73399698E+03</pdfrwt>
<pdfrwt beam="2">  1       -2 0.31717879E-01 0.73399698E+03</pdfrwt>
<totfact> 0.10740127E+02</totfact>
</mgrwt>
</event>
<event>
 4    2  0.2930016E-007  0.7903917E+03  0.7818608E-02  0.9731970E-01
         -2   -1    0    0    0  501 -0.00000000000E+00  0.00000000000E+00  0.42077763670E+03  0.42077763671E+03  0.25500000000E-02 0.  1.
          2   -1    0    0  501    0  0.00000000000E+00 -0.00000000000E+00 -0.24550978833E+04  0.24550978833E+04  0.25500000000E-02 0. -1.
    8880023    1    1    2    0    0  0.21906540251E+03  0.37804646253E+03 -0.22355081019E+04  0.23711211396E+04  0.65864270000E+03 0.  0.
    8880022    1    1    2    0    0 -0.21906540251E+03 -0.37804646253E+03  0.20118785534E+03  0.50475438043E+03  0.15294330000E+03 0.  0.
<mgrwt>
<rscale>  0 0.69144819E+03</rscale>
<asrwt>0</asrwt>
<pdfrwt beam="1">  1        2 0.37770736E+00 0.79039167E+03</pdfrwt>
<pdfrwt beam="2">  1       -2 0.64735022E-01 0.79039167E+03</pdfrwt>
<totfact> 0.84715538E+00</totfact>
</mgrwt>
</event>
<event>
 4    2  0.2930016E-007  0.1442001E+04  0.7818608E-02  0.8951716E-01
          2   -1    0    0  501    0  0.00000000000E+00  0.00000000000E+00  0.45940322633E+04  0.45940322633E+04  0.25500000000E-02 0. -1.
         -2   -1    0    0    0  501 -0.00000000000E+00 -0.00000000000E+00 -0.10800544020E+04  0.10800544020E+04  0.25500000000E-02 0.  1.
    8880023    1    1    2    0    0  0.96741694956E+03 -0.84241375008E+03 -0.44544676845E+03  0.15092347433E+04  0.65864270000E+03 0.  0.
    8880022    1    1    2    0    0 -0.96741694956E+03  0.84241375008E+03  0.39594246297E+04  0.41648519220E+04  0.15294330000E+03 0.  0.
<mgrwt>
<rscale>  0 0.14029090E+04</rscale>
<asrwt>0</asrwt>
<pdfrwt beam="1">  1        2 0.70677418E+00 0.14420009E+04</pdfrwt>
<pdfrwt beam="2">  1       -2 0.16616222E+00 0.14420009E+04</pdfrwt>
<totfact> 0.22080182E-02</totfact>
</mgrwt>
</event>
<event>
 4    2  0.2930016E-007  0.8547456E+03  0.7818608E-02  0.9602979E-01
          2   -1    0    0  501    0  0.00000000000E+00  0.00000000000E+00  0.81576887828E+03  0.81576887829E+03  0.25500000000E-02 0. -1.
         -2   -1    0    0    0  501 -0.00000000000E+00 -0.00000000000E+00 -0.20826249652E+04  0.20826249652E+04  0.25500000000E-02 0.  1.
    8880023    1    1    2    0    0  0.54430187488E+03  0.22701711205E+02  0.53594877309E+03  0.10088762027E+04  0.65864270000E+03 0.  0.
    8880022    1    1    2    0    0 -0.54430187488E+03 -0.22701711205E+02 -0.18028048600E+04  0.18895176409E+04  0.15294330000E+03 0.  0.
<mgrwt>
<rscale>  0 0.77099314E+03</rscale>
<asrwt>0</asrwt>
<pdfrwt beam="1">  1        2 0.12550290E+00 0.85474564E+03</pdfrwt>
<pdfrwt beam="2">  1       -2 0.32040384E+00 0.85474564E+03</pdfrwt>
<totfact> 0.82297595E-01</totfact>
</mgrwt>
</event>
<event>
 4    2  0.2930016E-007  0.6613424E+03  0.7818608E-02  0.1022821E+00
          2   -1    0    0  501    0  0.00000000000E+00  0.00000000000E+00  0.12143949174E+04  0.12143949174E+04  0.25500000000E-02 0. -1.
         -2   -1    0    0    0  501 -0.00000000000E+00 -0.00000000000E+00 -0.16673076216E+03  0.16673076218E+03  0.25500000000E-02 0.  1.
    8880023    1    1    2    0    0 -0.27241750237E+02 -0.53117557619E+02  0.10184941685E+04  0.12143739809E+04  0.65864270000E+03 0.  0.
    8880022    1    1    2    0    0  0.27241750237E+02  0.53117557619E+02  0.29169986751E+02  0.16675169872E+03  0.15294330000E+03 0.  1.
<mgrwt>
<rscale>  0 0.46682079E+03</rscale>
<asrwt>0</asrwt>
<pdfrwt beam="1">  1        2 0.18682999E+00 0.66134242E+03</pdfrwt>
<pdfrwt beam="2">  1       -2 0.25650886E-01 0.66134242E+03</pdfrwt>
<totfact> 0.25812463E+02</totfact>
</mgrwt>
</event>
<event>
 4    2  0.2930016E-007  0.8723151E+03  0.7818608E-02  0.9572022E-01
          2   -1    0    0  501    0  0.00000000000E+00  0.00000000000E+00  0.11900962276E+04  0.11900962276E+04  0.25500000000E-02 0. -1.
         -2   -1    0    0    0  501 -0.00000000000E+00 -0.00000000000E+00 -0.61136703539E+03  0.61136703539E+03  0.25500000000E-02 0.  1.
    8880023    1    1    2    0    0 -0.29779741377E+03  0.48830330240E+03  0.78599322586E+03  0.11741886442E+04  0.65864270000E+03 0.  0.
    8880022    1    1    2    0    0  0.29779741377E+03 -0.48830330240E+03 -0.20726403363E+03  0.62727461883E+03  0.15294330000E+03 0.  0.
<mgrwt>
<rscale>  0 0.79175967E+03</rscale>
<asrwt>0</asrwt>
<pdfrwt beam="1">  1        2 0.18309173E+00 0.87231509E+03</pdfrwt>
<pdfrwt beam="2">  1       -2 0.94056468E-01 0.87231509E+03</pdfrwt>
<totfact> 0.18429778E+01</totfact>
</mgrwt>
</event>
<event>
 4    2  0.2930016E-007  0.7367240E+03  0.7818608E-02  0.9869595E-01
         -2   -1    0    0    0  501 -0.00000000000E+00  0.00000000000E+00  0.63669200011E+03  0.63669200012E+03  0.25500000000E-02 0.  1.
          2   -1    0    0  501    0  0.00000000000E+00 -0.00000000000E+00 -0.10406026319E+04  0.10406026319E+04  0.25500000000E-02 0. -1.
    8880023    1    1    2    0    0 -0.32782252990E+03  0.38528988061E+02 -0.83478296286E+03  0.11133844329E+04  0.65864270000E+03 0. -1.
    8880022    1    1    2    0    0  0.32782252990E+03 -0.38528988061E+02  0.43087233106E+03  0.56391019916E+03  0.15294330000E+03 0.  0.
<mgrwt>
<rscale>  0 0.61757763E+03</rscale>
<asrwt>0</asrwt>
<pdfrwt beam="1">  1        2 0.16009271E+00 0.73672403E+03</pdfrwt>
<pdfrwt beam="2">  1       -2 0.97952616E-01 0.73672403E+03</pdfrwt>
<totfact> 0.20961606E+01</totfact>
</mgrwt>
</event>
<event>
 4    2  0.2930016E-007  0.1067540E+04  0.7818608E-02  0.9298087E-01
          2   -1    0    0  501    0  0.00000000000E+00  0.00000000000E+00  0.13580017996E+04  0.13580017996E+04  0.25500000000E-02 0. -1.
         -2   -1    0    0    0  501 -0.00000000000E+00 -0.00000000000E+00 -0.21145745073E+04  0.21145745073E+04  0.25500000000E-02 0.  1.
    8880023    1    1    2    0    0  0.30675770758E+03  0.78213306916E+03  0.10356236111E+04  0.14873328138E+04  0.65864270000E+03 0. -1.
    8880022    1    1    2    0    0 -0.30675770758E+03 -0.78213306916E+03 -0.17921963188E+04  0.19852434931E+04  0.15294330000E+03 0.  0.
<mgrwt>
<rscale>  0 0.10095920E+04</rscale>
<asrwt>0</asrwt>
<pdfrwt beam="1">  1        2 0.20892335E+00 0.10675405E+04</pdfrwt>
<pdfrwt beam="2">  1       -2 0.32531916E+00 0.10675405E+04</pdfrwt>
<totfact> 0.33866617E-01</totfact>
</mgrwt>
</event>
<event>
 4    2  0.2930016E-007  0.7422753E+03  0.7818608E-02  0.9853368E-01
         -2   -1    0    0    0  501 -0.00000000000E+00  0.00000000000E+00  0.18499837039E+04  0.18499837039E+04  0.25500000000E-02 0.  1.
          2   -1    0    0  501    0  0.00000000000E+00 -0.00000000000E+00 -0.40261159488E+03  0.40261159489E+03  0.25500000000E-02 0. -1.
    8880023    1    1    2    0    0  0.10896218808E+03 -0.32448366463E+03 -0.15509664564E+02  0.74243731251E+03  0.65864270000E+03 0. -1.
    8880022    1    1    2    0    0 -0.10896218808E+03  0.32448366463E+03  0.14628817736E+04  0.15101579863E+04  0.15294330000E+03 0.  0.
<mgrwt>
<rscale>  0 0.62575478E+03</rscale>
<asrwt>0</asrwt>
<pdfrwt beam="1">  1        2 0.61940244E-01 0.74227529E+03</pdfrwt>
<pdfrwt beam="2">  1       -2 0.28461288E+00 0.74227529E+03</pdfrwt>
<totfact> 0.32336749E+00</totfact>
</mgrwt>
</event>
<event>
 4    2  0.2930016E-007  0.6637257E+03  0.7818608E-02  0.1020627E+00
         -2   -1    0    0    0  501 -0.00000000000E+00  0.00000000000E+00  0.33010050458E+03  0.33010050459E+03  0.25500000000E-02 0.  1.
          2   -1    0    0  501    0  0.00000000000E+00 -0.00000000000E+00 -0.20809120109E+04  0.20809120109E+04  0.25500000000E-02 0. -1.
    8880023    1    1    2    0    0 -0.59074050980E+02 -0.56848999022E+02 -0.20000552076E+04  0.21073093252E+04  0.65864270000E+03 0. -1.
    8880022    1    1    2    0    0  0.59074050980E+02  0.56848999022E+02  0.24924370127E+03  0.30370319035E+03  0.15294330000E+03 0.  0.
<mgrwt>
<rscale>  0 0.47460912E+03</rscale>
<asrwt>0</asrwt>
<pdfrwt beam="1">  1        2 0.32014030E+00 0.66372567E+03</pdfrwt>
<pdfrwt beam="2">  1       -2 0.50784694E-01 0.66372567E+03</pdfrwt>
<totfact> 0.23146628E+01</totfact>
</mgrwt>
</event>
<event>
 4    2  0.2930016E-007  0.9524886E+03  0.7818608E-02  0.9446543E-01
          2   -1    0    0  501    0  0.00000000000E+00  0.00000000000E+00  0.82076352345E+03  0.82076352346E+03  0.25500000000E-02 0. -1.
         -2   -1    0    0    0  501 -0.00000000000E+00 -0.00000000000E+00 -0.10252917953E+04  0.10252917953E+04  0.25500000000E-02 0.  1.
    8880023    1    1    2    0    0 -0.81095005284E+02 -0.68326271952E+03 -0.50702901729E+03  0.10790333519E+04  0.65864270000E+03 0.  1.
    8880022    1    1    2    0    0  0.81095005284E+02  0.68326271952E+03  0.30250074542E+03  0.76702196694E+03  0.15294330000E+03 0.  0.
<mgrwt>
<rscale>  0 0.88342419E+03</rscale>
<asrwt>0</asrwt>
<pdfrwt beam="1">  1        2 0.12627131E+00 0.95248861E+03</pdfrwt>
<pdfrwt beam="2">  1       -2 0.15773720E+00 0.95248861E+03</pdfrwt>
<totfact> 0.86796192E+00</totfact>
</mgrwt>
</event>
<event>
 4    2  0.2930016E-007  0.8559303E+03  0.7818608E-02  0.9600844E-01
         -2   -1    0    0    0  501 -0.00000000000E+00  0.00000000000E+00  0.11897440717E+04  0.11897440717E+04  0.25500000000E-02 0.  1.
          2   -1    0    0  501    0  0.00000000000E+00 -0.00000000000E+00 -0.10075779344E+04  0.10075779344E+04  0.25500000000E-02 0. -1.
    8880023    1    1    2    0    0  0.31437581667E+03 -0.44718479393E+03 -0.72867252166E+03  0.11240908522E+04  0.65864270000E+03 0.  0.
    8880022    1    1    2    0    0 -0.31437581667E+03  0.44718479393E+03  0.91083865890E+03  0.10732311538E+04  0.15294330000E+03 0.  0.
<mgrwt>
<rscale>  0 0.77240335E+03</rscale>
<asrwt>0</asrwt>
<pdfrwt beam="1">  1        2 0.15501199E+00 0.85593025E+03</pdfrwt>
<pdfrwt beam="2">  1       -2 0.18303755E+00 0.85593025E+03</pdfrwt>
<totfact> 0.43373403E+00</totfact>
</mgrwt>
</event>
<event>
 4    2  0.2930016E-007  0.6875215E+03  0.7818608E-02  0.1005354E+00
         -2   -1    0    0    0  501 -0.00000000000E+00  0.00000000000E+00  0.32025508046E+03  0.32025508047E+03  0.25500000000E-02 0.  1.
          2   -1    0    0  501    0  0.00000000000E+00 -0.00000000000E+00 -0.73063243120E+03  0.73063243120E+03  0.25500000000E-02 0. -1.
    8880023    1    1    2    0    0  0.10259885208E+03  0.16837201330E+03 -0.41167447844E+03  0.80134994963E+03  0.65864270000E+03 0. -1.
    8880022    1    1    2    0    0 -0.10259885208E+03 -0.16837201330E+03  0.12971277028E+01  0.24953756204E+03  0.15294330000E+03 0.  0.
<mgrwt>
<rscale>  0 0.53363861E+03</rscale>
<asrwt>0</asrwt>
<pdfrwt beam="1">  1        2 0.11240499E+00 0.68752154E+03</pdfrwt>
<pdfrwt beam="2">  1       -2 0.49270013E-01 0.68752154E+03</pdfrwt>
<totfact> 0.15341969E+02</totfact>
</mgrwt>
</event>
<event>
 4    2  0.2930016E-007  0.8691718E+03  0.7818608E-02  0.9577452E-01
          2   -1    0    0  501    0  0.00000000000E+00  0.00000000000E+00  0.14160440067E+04  0.14160440067E+04  0.25500000000E-02 0. -1.
         -2   -1    0    0    0  501 -0.00000000000E+00 -0.00000000000E+00 -0.66450252684E+03  0.66450252685E+03  0.25500000000E-02 0.  1.
    8880023    1    1    2    0    0  0.96777448284E+02  0.55882336684E+03 -0.26311714855E+03  0.90812458944E+03  0.65864270000E+03 0.  0.
    8880022    1    1    2    0    0 -0.96777448284E+02 -0.55882336684E+03  0.10146586284E+04  0.11724219441E+04  0.15294330000E+03 0.  0.
<mgrwt>
<rscale>  0 0.78806688E+03</rscale>
<asrwt>0</asrwt>
<pdfrwt beam="1">  1        2 0.21785292E+00 0.86917181E+03</pdfrwt>
<pdfrwt beam="2">  1       -2 0.10223116E+00 0.86917181E+03</pdfrwt>
<totfact> 0.11196643E+01</totfact>
</mgrwt>
</event>
<event>
 4    2  0.2930016E-007  0.6595875E+03  0.7818608E-02  0.1024583E+00
         -2   -1    0    0    0  501 -0.00000000000E+00  0.00000000000E+00  0.55431957690E+03  0.55431957691E+03  0.25500000000E-02 0.  1.
          2   -1    0    0  501    0  0.00000000000E+00 -0.00000000000E+00 -0.42758448890E+03  0.42758448891E+03  0.25500000000E-02 0. -1.
    8880023    1    1    2    0    0  0.17754077074E+02  0.30499496904E+02 -0.13824964443E+03  0.67392031948E+03  0.65864270000E+03 0. -1.
    8880022    1    1    2    0    0 -0.17754077074E+02 -0.30499496904E+02  0.26498473244E+03  0.30798374633E+03  0.15294330000E+03 0.  0.
<mgrwt>
<rscale>  0 0.46068381E+03</rscale>
<asrwt>0</asrwt>
<pdfrwt beam="1">  1        2 0.65782229E-01 0.65958747E+03</pdfrwt>
<pdfrwt beam="2">  1       -2 0.85279935E-01 0.65958747E+03</pdfrwt>
<totfact> 0.89568992E+01</totfact>
</mgrwt>
</event>
<event>
 4    2  0.2930016E-007  0.1809081E+04  0.7818608E-02  0.8717530E-01
         -2   -1    0    0    0  501 -0.00000000000E+00  0.00000000000E+00  0.18098420700E+04  0.18098420700E+04  0.25500000000E-02 0.  1.
          2   -1    0    0  501    0  0.00000000000E+00 -0.00000000000E+00 -0.17591930576E+04  0.17591930576E+04  0.25500000000E-02 0. -1.
    8880023    1    1    2    0    0  0.32639649726E+03  0.16530057753E+04  0.37201428307E+03  0.18469346495E+04  0.65864270000E+03 0.  0.
    8880022    1    1    2    0    0 -0.32639649726E+03 -0.16530057753E+04 -0.32136527067E+03  0.17221004781E+04  0.15294330000E+03 0.  0.
<mgrwt>
<rscale>  0 0.17790325E+04</rscale>
<asrwt>0</asrwt>
<pdfrwt beam="1">  1        2 0.27064509E+00 0.18090807E+04</pdfrwt>
<pdfrwt beam="2">  1       -2 0.27843724E+00 0.18090807E+04</pdfrwt>
<totfact> 0.35622074E-01</totfact>
</mgrwt>
</event>
<event>
 4    2  0.2930016E-007  0.1071062E+04  0.7818608E-02  0.9293981E-01
          2   -1    0    0  501    0  0.00000000000E+00  0.00000000000E+00  0.26746443829E+04  0.26746443829E+04  0.25500000000E-02 0. -1.
         -2   -1    0    0    0  501 -0.00000000000E+00 -0.00000000000E+00 -0.48135407217E+03  0.48135407218E+03  0.25500000000E-02 0.  1.
    8880023    1    1    2    0    0  0.84110474669E+03  0.76848897322E+02  0.20111033593E+04  0.22785323952E+04  0.65864270000E+03 0. -1.
    8880022    1    1    2    0    0 -0.84110474669E+03 -0.76848897322E+02  0.18218695140E+03  0.87746605985E+03  0.15294330000E+03 0.  0.
<mgrwt>
<rscale>  0 0.10133891E+04</rscale>
<asrwt>0</asrwt>
<pdfrwt beam="1">  1        2 0.41148375E+00 0.10710617E+04</pdfrwt>
<pdfrwt beam="2">  1       -2 0.74054474E-01 0.10710617E+04</pdfrwt>
<totfact> 0.45370339E+00</totfact>
</mgrwt>
</event>
<event>
 4    2  0.2930016E-007  0.8362666E+03  0.7818608E-02  0.9637260E-01
         -2   -1    0    0    0  501 -0.00000000000E+00  0.00000000000E+00  0.60397648937E+03  0.60397648938E+03  0.25500000000E-02 0.  1.
          2   -1    0    0  501    0  0.00000000000E+00 -0.00000000000E+00 -0.16438964066E+04  0.16438964066E+04  0.25500000000E-02 0. -1.
    8880023    1    1    2    0    0 -0.34899510118E+03 -0.37912270180E+03 -0.13787021606E+04  0.16125016147E+04  0.65864270000E+03 0.  0.
    8880022    1    1    2    0    0  0.34899510118E+03  0.37912270180E+03  0.33878224332E+03  0.63537128128E+03  0.15294330000E+03 0.  1.
<mgrwt>
<rscale>  0 0.74878368E+03</rscale>
<asrwt>0</asrwt>
<pdfrwt beam="1">  1        2 0.25290714E+00 0.83626659E+03</pdfrwt>
<pdfrwt beam="2">  1       -2 0.92919461E-01 0.83626659E+03</pdfrwt>
<totfact> 0.10506865E+01</totfact>
</mgrwt>
</event>
<event>
 4    2  0.2930016E-007  0.9103541E+03  0.7818608E-02  0.9509610E-01
         -2   -1    0    0    0  501 -0.00000000000E+00  0.00000000000E+00  0.70907819248E+03  0.70907819248E+03  0.25500000000E-02 0.  1.
          2   -1    0    0  501    0  0.00000000000E+00 -0.00000000000E+00 -0.12653865271E+04  0.12653865271E+04  0.25500000000E-02 0. -1.
    8880023    1    1    2    0    0 -0.27327312488E+03  0.56591179015E+03 -0.86680184161E+03  0.12570163061E+04  0.65864270000E+03 0. -1.
    8880022    1    1    2    0    0  0.27327312488E+03 -0.56591179015E+03  0.31049350701E+03  0.71744841343E+03  0.15294330000E+03 0.  1.
<mgrwt>
<rscale>  0 0.83578990E+03</rscale>
<asrwt>0</asrwt>
<pdfrwt beam="1">  1        2 0.19467485E+00 0.91035409E+03</pdfrwt>
<pdfrwt beam="2">  1       -2 0.10908895E+00 0.91035409E+03</pdfrwt>
<totfact> 0.11639530E+01</totfact>
</mgrwt>
</event>
<event>
 4    2  0.2930016E-007  0.8786496E+03  0.7818608E-02  0.9561214E-01
         -2   -1    0    0    0  501 -0.00000000000E+00  0.00000000000E+00  0.67895527495E+03  0.67895527495E+03  0.25500000000E-02 0.  1.
          2   -1    0    0  501    0  0.00000000000E+00 -0.00000000000E+00 -0.15206756737E+04  0.15206756737E+04  0.25500000000E-02 0. -1.
    8880023    1    1    2    0    0 -0.47685348847E+03 -0.33290477340E+03 -0.12093337457E+04  0.14948288037E+04  0.65864270000E+03 0. -1.
    8880022    1    1    2    0    0  0.47685348847E+03  0.33290477340E+03  0.36761334697E+03  0.70480214494E+03  0.15294330000E+03 0.  0.
<mgrwt>
<rscale>  0 0.79917391E+03</rscale>
<asrwt>0</asrwt>
<pdfrwt beam="1">  1        2 0.23395010E+00 0.87864956E+03</pdfrwt>
<pdfrwt beam="2">  1       -2 0.10445466E+00 0.87864956E+03</pdfrwt>
<totfact> 0.92762818E+00</totfact>
</mgrwt>
</event>
<event>
 4    2  0.2930016E-007  0.6737284E+03  0.7818608E-02  0.1013120E+00
          2   -1    0    0  501    0  0.00000000000E+00  0.00000000000E+00  0.15683077238E+04  0.15683077238E+04  0.25500000000E-02 0. -1.
         -2   -1    0    0    0  501 -0.00000000000E+00 -0.00000000000E+00 -0.68042423404E+03  0.68042423404E+03  0.25500000000E-02 0.  1.
    8880023    1    1    2    0    0 -0.10799477115E+03 -0.91852437601E+02  0.14772098371E+04  0.16235944229E+04  0.65864270000E+03 0. -1.
    8880022    1    1    2    0    0  0.10799477115E+03  0.91852437601E+02 -0.58932634736E+03  0.62513753495E+03  0.15294330000E+03 0.  0.
<mgrwt>
<rscale>  0 0.50253238E+03</rscale>
<asrwt>0</asrwt>
<pdfrwt beam="1">  1        2 0.24127811E+00 0.67372839E+03</pdfrwt>
<pdfrwt beam="2">  1       -2 0.10468065E+00 0.67372839E+03</pdfrwt>
<totfact> 0.89277822E+00</totfact>
</mgrwt>
</event>
<event>
 4    2  0.2930016E-007  0.7263499E+03  0.7818608E-02  0.9901658E-01
          2   -1    0    0  501    0  0.00000000000E+00  0.00000000000E+00  0.16633282416E+04  0.16633282416E+04  0.25500000000E-02 0. -1.
         -2   -1    0    0    0  501 -0.00000000000E+00 -0.00000000000E+00 -0.25695239116E+03  0.25695239117E+03  0.25500000000E-02 0.  1.
    8880023    1    1    2    0    0 -0.10857554996E+03 -0.28633087008E+03  0.14008259555E+04  0.15779409308E+04  0.65864270000E+03 0. -1.
    8880022    1    1    2    0    0  0.10857554996E+03  0.28633087008E+03  0.55498949424E+01  0.34233970199E+03  0.15294330000E+03 0.  0.
<mgrwt>
<rscale>  0 0.60181010E+03</rscale>
<asrwt>0</asrwt>
<pdfrwt beam="1">  1        2 0.25589665E+00 0.72634993E+03</pdfrwt>
<pdfrwt beam="2">  1       -2 0.39531138E-01 0.72634993E+03</pdfrwt>
<totfact> 0.63803215E+01</totfact>
</mgrwt>
</event>
<event>
 4    2  0.2930016E-007  0.7375548E+03  0.7818608E-02  0.9867128E-01
          2   -1    0    0  501    0  0.00000000000E+00  0.00000000000E+00  0.20557535176E+04  0.20557535176E+04  0.25500000000E-02 0. -1.
         -2   -1    0    0    0  501 -0.00000000000E+00 -0.00000000000E+00 -0.21289123726E+03  0.21289123728E+03  0.25500000000E-02 0.  1.
    8880023    1    1    2    0    0  0.59606504397E+02  0.32653328979E+03  0.17386274882E+04  0.18886007185E+04  0.65864270000E+03 0. -1.
    8880022    1    1    2    0    0 -0.59606504397E+02 -0.32653328979E+03  0.10423479210E+03  0.38004403640E+03  0.15294330000E+03 0.  0.
<mgrwt>
<rscale>  0 0.61881206E+03</rscale>
<asrwt>0</asrwt>
<pdfrwt beam="1">  1        2 0.31626976E+00 0.73755483E+03</pdfrwt>
<pdfrwt beam="2">  1       -2 0.32752499E-01 0.73755483E+03</pdfrwt>
<totfact> 0.55788533E+01</totfact>
</mgrwt>
</event>
<event>
 4    2  0.2930016E-007  0.6607475E+03  0.7818608E-02  0.1023403E+00
          2   -1    0    0  501    0  0.00000000000E+00  0.00000000000E+00  0.95281680349E+03  0.95281680350E+03  0.25500000000E-02 0. -1.
         -2   -1    0    0    0  501 -0.00000000000E+00 -0.00000000000E+00 -0.11055969967E+04  0.11055969967E+04  0.25500000000E-02 0.  1.
    8880023    1    1    2    0    0  0.35537640729E+02 -0.38912595260E+02  0.83085859494E+03  0.10615617387E+04  0.65864270000E+03 0. -1.
    8880022    1    1    2    0    0 -0.35537640729E+02  0.38912595260E+02 -0.98363878812E+03  0.99685206149E+03  0.15294330000E+03 0.  0.
<mgrwt>
<rscale>  0 0.46478230E+03</rscale>
<asrwt>0</asrwt>
<pdfrwt beam="1">  1        2 0.14658720E+00 0.66074755E+03</pdfrwt>
<pdfrwt beam="2">  1       -2 0.17009184E+00 0.66074755E+03</pdfrwt>
<totfact> 0.59401873E+00</totfact>
</mgrwt>
</event>
<event>
 4    2  0.2930016E-007  0.7034368E+03  0.7818608E-02  0.9983232E-01
          2   -1    0    0  501    0  0.00000000000E+00  0.00000000000E+00  0.27685519707E+04  0.27685519707E+04  0.25500000000E-02 0. -1.
         -2   -1    0    0    0  501 -0.00000000000E+00 -0.00000000000E+00 -0.95770599923E+02  0.95770599957E+02  0.25500000000E-02 0.  1.
    8880023    1    1    2    0    0 -0.22573205274E+03  0.10029036860E+03  0.15102172560E+04  0.16660070481E+04  0.65864270000E+03 0.  0.
    8880022    1    1    2    0    0  0.22573205274E+03 -0.10029036860E+03  0.11625641148E+04  0.11983155226E+04  0.15294330000E+03 0.  0.
<mgrwt>
<rscale>  0 0.56391635E+03</rscale>
<asrwt>0</asrwt>
<pdfrwt beam="1">  1        2 0.42593101E+00 0.70343679E+03</pdfrwt>
<pdfrwt beam="2">  1       -2 0.14733941E-01 0.70343679E+03</pdfrwt>
<totfact> 0.91871588E+01</totfact>
</mgrwt>
</event>
<event>
 4    2  0.2930016E-007  0.6606310E+03  0.7818608E-02  0.1023519E+00
          2   -1    0    0  501    0  0.00000000000E+00  0.00000000000E+00  0.20742607685E+04  0.20742607685E+04  0.25500000000E-02 0. -1.
         -2   -1    0    0    0  501 -0.00000000000E+00 -0.00000000000E+00 -0.99107233909E+02  0.99107233942E+02  0.25500000000E-02 0.  1.
    8880023    1    1    2    0    0  0.49635767921E+02  0.12625542514E+02  0.18636762253E+04  0.19773017961E+04  0.65864270000E+03 0.  0.
    8880022    1    1    2    0    0 -0.49635767921E+02 -0.12625542514E+02  0.11147730933E+03  0.19606620640E+03  0.15294330000E+03 0.  0.
<mgrwt>
<rscale>  0 0.46437807E+03</rscale>
<asrwt>0</asrwt>
<pdfrwt beam="1">  1        2 0.31911702E+00 0.66063100E+03</pdfrwt>
<pdfrwt beam="2">  1       -2 0.15247268E-01 0.66063100E+03</pdfrwt>
<totfact> 0.21410963E+02</totfact>
</mgrwt>
</event>
<event>
 4    2  0.2930016E-007  0.1276507E+04  0.7818608E-02  0.9086118E-01
          2   -1    0    0  501    0  0.00000000000E+00  0.00000000000E+00  0.24577237586E+04  0.24577237586E+04  0.25500000000E-02 0. -1.
         -2   -1    0    0    0  501 -0.00000000000E+00 -0.00000000000E+00 -0.96180116545E+03  0.96180116546E+03  0.25500000000E-02 0.  1.
    8880023    1    1    2    0    0  0.10849953529E+04  0.13580786905E+03  0.18609172897E+04  0.22566528440E+04  0.65864270000E+03 0.  0.
    8880022    1    1    2    0    0 -0.10849953529E+04 -0.13580786905E+03 -0.36499469651E+03  0.11628720801E+04  0.15294330000E+03 0.  0.
<mgrwt>
<rscale>  0 0.12310338E+04</rscale>
<asrwt>0</asrwt>
<pdfrwt beam="1">  1        2 0.37811135E+00 0.12765065E+04</pdfrwt>
<pdfrwt beam="2">  1       -2 0.14796941E+00 0.12765065E+04</pdfrwt>
<totfact> 0.11076955E+00</totfact>
</mgrwt>
</event>
<event>
 4    2  0.2930016E-007  0.1007582E+04  0.7818608E-02  0.9371704E-01
         -2   -1    0    0    0  501 -0.00000000000E+00  0.00000000000E+00  0.55363689611E+03  0.55363689611E+03  0.25500000000E-02 0.  1.
          2   -1    0    0  501    0  0.00000000000E+00 -0.00000000000E+00 -0.19890763634E+04  0.19890763635E+04  0.25500000000E-02 0. -1.
    8880023    1    1    2    0    0 -0.24374016475E+02  0.76211423131E+03 -0.14490208185E+04  0.17649033211E+04  0.65864270000E+03 0.  0.
    8880022    1    1    2    0    0  0.24374016475E+02 -0.76211423131E+03  0.13581351131E+02  0.77780993845E+03  0.15294330000E+03 0.  0.
<mgrwt>
<rscale>  0 0.94441367E+03</rscale>
<asrwt>0</asrwt>
<pdfrwt beam="1">  1        2 0.30601175E+00 0.10075825E+04</pdfrwt>
<pdfrwt beam="2">  1       -2 0.85174908E-01 0.10075825E+04</pdfrwt>
<totfact> 0.81313328E+00</totfact>
</mgrwt>
</event>
<event>
 4    2  0.2930016E-007  0.6888329E+03  0.7818608E-02  0.1004712E+00
         -2   -1    0    0    0  501 -0.00000000000E+00  0.00000000000E+00  0.31347932335E+03  0.31347932336E+03  0.25500000000E-02 0.  1.
          2   -1    0    0  501    0  0.00000000000E+00 -0.00000000000E+00 -0.15257359747E+04  0.15257359747E+04  0.25500000000E-02 0. -1.
    8880023    1    1    2    0    0  0.13178800773E+03  0.15268410057E+03 -0.13752746509E+04  0.15381388381E+04  0.65864270000E+03 0. -1.
    8880022    1    1    2    0    0 -0.13178800773E+03 -0.15268410057E+03  0.16301799956E+03  0.30107645996E+03  0.15294330000E+03 0.  0.
<mgrwt>
<rscale>  0 0.53631392E+03</rscale>
<asrwt>0</asrwt>
<pdfrwt beam="1">  1        2 0.23472861E+00 0.68883287E+03</pdfrwt>
<pdfrwt beam="2">  1       -2 0.48227589E-01 0.68883287E+03</pdfrwt>
<totfact> 0.51442468E+01</totfact>
</mgrwt>
</event>
<event>
 4    2  0.2930016E-007  0.6601000E+03  0.7818608E-02  0.1024054E+00
         -2   -1    0    0    0  501 -0.00000000000E+00  0.00000000000E+00  0.21202291871E+03  0.21202291873E+03  0.25500000000E-02 0.  1.
          2   -1    0    0  501    0  0.00000000000E+00 -0.00000000000E+00 -0.83742837548E+03  0.83742837548E+03  0.25500000000E-02 0. -1.
    8880023    1    1    2    0    0 -0.23228842016E+02  0.37178954553E+02 -0.59243788510E+03  0.88696939504E+03  0.65864270000E+03 0. -1.
    8880022    1    1    2    0    0  0.23228842016E+02 -0.37178954553E+02 -0.32967571660E+02  0.16248189917E+03  0.15294330000E+03 0.  0.
<mgrwt>
<rscale>  0 0.46251557E+03</rscale>
<asrwt>0</asrwt>
<pdfrwt beam="1">  1        2 0.12883513E+00 0.66010004E+03</pdfrwt>
<pdfrwt beam="2">  1       -2 0.32618911E-01 0.66010004E+03</pdfrwt>
<totfact> 0.28713868E+02</totfact>
</mgrwt>
</event>
<event>
 4    2  0.2930016E-007  0.7141730E+03  0.7818608E-02  0.9942820E-01
         -2   -1    0    0    0  501 -0.00000000000E+00  0.00000000000E+00  0.77946241634E+03  0.77946241635E+03  0.25500000000E-02 0.  1.
          2   -1    0    0  501    0  0.00000000000E+00 -0.00000000000E+00 -0.63350662162E+03  0.63350662163E+03  0.25500000000E-02 0. -1.
    8880023    1    1    2    0    0  0.11020186609E+03 -0.25315683998E+03 -0.37288833845E+03  0.80566044717E+03  0.65864270000E+03 0. -1.
    8880022    1    1    2    0    0 -0.11020186609E+03  0.25315683998E+03  0.51884413317E+03  0.60730859080E+03  0.15294330000E+03 0.  0.
<mgrwt>
<rscale>  0 0.58230206E+03</rscale>
<asrwt>0</asrwt>
<pdfrwt beam="1">  1        2 0.97462558E-01 0.71417298E+03</pdfrwt>
<pdfrwt beam="2">  1       -2 0.11991729E+00 0.71417298E+03</pdfrwt>
<totfact> 0.25092267E+01</totfact>
</mgrwt>
</event>
<event>
 4    2  0.2930016E-007  0.7216299E+03  0.7818608E-02  0.9917109E-01
          2   -1    0    0  501    0  0.00000000000E+00  0.00000000000E+00  0.78950099847E+03  0.78950099848E+03  0.25500000000E-02 0. -1.
         -2   -1    0    0    0  501 -0.00000000000E+00 -0.00000000000E+00 -0.20172832367E+04  0.20172832367E+04  0.25500000000E-02 0.  1.
    8880023    1    1    2    0    0 -0.47150757728E+02 -0.29106055756E+03  0.60651126275E+03  0.94265877189E+03  0.65864270000E+03 0. -1.
    8880022    1    1    2    0    0  0.47150757728E+02  0.29106055756E+03 -0.18342935009E+04  0.18641254633E+04  0.15294330000E+03 0.  0.
<mgrwt>
<rscale>  0 0.59439221E+03</rscale>
<asrwt>0</asrwt>
<pdfrwt beam="1">  1        2 0.12146169E+00 0.72162986E+03</pdfrwt>
<pdfrwt beam="2">  1       -2 0.31035126E+00 0.72162986E+03</pdfrwt>
<totfact> 0.10128349E+00</totfact>
</mgrwt>
</event>
<event>
 4    2  0.2930016E-007  0.6690837E+03  0.7818608E-02  0.1016328E+00
         -2   -1    0    0    0  501 -0.00000000000E+00  0.00000000000E+00  0.12534198555E+04  0.12534198555E+04  0.25500000000E-02 0.  1.
          2   -1    0    0  501    0  0.00000000000E+00 -0.00000000000E+00 -0.42932738399E+03  0.42932738400E+03  0.25500000000E-02 0. -1.
    8880023    1    1    2    0    0 -0.10348264771E+03  0.56161826684E+02 -0.15334804383E+03  0.68643181596E+03  0.65864270000E+03 0. -1.
    8880022    1    1    2    0    0  0.10348264771E+03 -0.56161826684E+02  0.97744051529E+03  0.99631542349E+03  0.15294330000E+03 0.  0.
<mgrwt>
<rscale>  0 0.49035164E+03</rscale>
<asrwt>0</asrwt>
<pdfrwt beam="1">  1        2 0.66050368E-01 0.66908371E+03</pdfrwt>
<pdfrwt beam="2">  1       -2 0.19283382E+00 0.66908371E+03</pdfrwt>
<totfact> 0.11177838E+01</totfact>
</mgrwt>
</event>
<event>
 4    2  0.2930016E-007  0.6587782E+03  0.7818608E-02  0.1025445E+00
         -2   -1    0    0    0  501 -0.00000000000E+00  0.00000000000E+00  0.21226198640E+03  0.21226198642E+03  0.25500000000E-02 0.  1.
          2   -1    0    0  501    0  0.00000000000E+00 -0.00000000000E+00 -0.10666022702E+04  0.10666022702E+04  0.25500000000E-02 0. -1.
    8880023    1    1    2    0    0 -0.70928995182E+01 -0.11322562820E+02 -0.90304240861E+03  0.11177988673E+04  0.65864270000E+03 0. -1.
    8880022    1    1    2    0    0  0.70928995182E+01  0.11322562820E+02  0.48702124854E+02  0.16106538931E+03  0.15294330000E+03 0.  0.
<mgrwt>
<rscale>  0 0.45771984E+03</rscale>
<asrwt>0</asrwt>
<pdfrwt beam="1">  1        2 0.16409265E+00 0.65877820E+03</pdfrwt>
<pdfrwt beam="2">  1       -2 0.32655691E-01 0.65877820E+03</pdfrwt>
<totfact> 0.20303873E+02</totfact>
</mgrwt>
</event>
<event>
 4    2  0.2930016E-007  0.6980159E+03  0.7818608E-02  0.1000553E+00
          2   -1    0    0  501    0  0.00000000000E+00  0.00000000000E+00  0.43556330346E+04  0.43556330346E+04  0.25500000000E-02 0. -1.
         -2   -1    0    0    0  501 -0.00000000000E+00 -0.00000000000E+00 -0.59677716308E+02  0.59677716362E+02  0.25500000000E-02 0.  1.
    8880023    1    1    2    0    0  0.11883809897E+02 -0.23081327952E+03  0.35835202325E+04  0.36508688634E+04  0.65864270000E+03 0.  0.
    8880022    1    1    2    0    0 -0.11883809897E+02  0.23081327952E+03  0.71243508582E+03  0.76444188757E+03  0.15294330000E+03 0.  0.
<mgrwt>
<rscale>  0 0.55408264E+03</rscale>
<asrwt>0</asrwt>
<pdfrwt beam="1">  1        2 0.67009740E+00 0.69801590E+03</pdfrwt>
<pdfrwt beam="2">  1       -2 0.91811870E-02 0.69801590E+03</pdfrwt>
<totfact> 0.15093252E+01</totfact>
</mgrwt>
</event>
<event>
 4    2  0.2930016E-007  0.7205838E+03  0.7818608E-02  0.9920616E-01
          2   -1    0    0  501    0  0.00000000000E+00  0.00000000000E+00  0.42012601510E+04  0.42012601510E+04  0.25500000000E-02 0. -1.
         -2   -1    0    0    0  501 -0.00000000000E+00 -0.00000000000E+00 -0.80005224603E+02  0.80005224643E+02  0.25500000000E-02 0.  1.
    8880023    1    1    2    0    0 -0.22594080290E+03  0.18542257197E+03  0.35429754517E+04  0.36155104804E+04  0.65864270000E+03 0. -1.
    8880022    1    1    2    0    0  0.22594080290E+03 -0.18542257197E+03  0.57827947471E+03  0.66575489521E+03  0.15294330000E+03 0.  0.
<mgrwt>
<rscale>  0 0.59272489E+03</rscale>
<asrwt>0</asrwt>
<pdfrwt beam="1">  1        2 0.64634757E+00 0.72058378E+03</pdfrwt>
<pdfrwt beam="2">  1       -2 0.12308499E-01 0.72058378E+03</pdfrwt>
<totfact> 0.12666593E+01</totfact>
</mgrwt>
</event>
<event>
 4    2  0.2930016E-007  0.1666773E+04  0.7818608E-02  0.8800049E-01
         -2   -1    0    0    0  501 -0.00000000000E+00  0.00000000000E+00  0.10233561539E+04  0.10233561539E+04  0.25500000000E-02 0.  1.
          2   -1    0    0  501    0  0.00000000000E+00 -0.00000000000E+00 -0.29716826449E+04  0.29716826449E+04  0.25500000000E-02 0. -1.
    8880023    1    1    2    0    0 -0.12226948979E+04  0.92159588391E+03 -0.17936719276E+04  0.24485487491E+04  0.65864270000E+03 0. -1.
    8880022    1    1    2    0    0  0.12226948979E+04 -0.92159588391E+03 -0.15465456335E+03  0.15464900497E+04  0.15294330000E+03 0.  0.
<mgrwt>
<rscale>  0 0.16337984E+04</rscale>
<asrwt>0</asrwt>
<pdfrwt beam="1">  1        2 0.45718194E+00 0.16667729E+04</pdfrwt>
<pdfrwt beam="2">  1       -2 0.15743941E+00 0.16667729E+04</pdfrwt>
<totfact> 0.44374485E-01</totfact>
</mgrwt>
</event>
<event>
 4    2  0.2930016E-007  0.7539492E+03  0.7818608E-02  0.9821032E-01
          2   -1    0    0  501    0  0.00000000000E+00  0.00000000000E+00  0.13815741605E+04  0.13815741605E+04  0.25500000000E-02 0. -1.
         -2   -1    0    0    0  501 -0.00000000000E+00 -0.00000000000E+00 -0.36814509779E+03  0.36814509780E+03  0.25500000000E-02 0.  1.
    8880023    1    1    2    0    0 -0.36685209958E+03 -0.69784192332E+01  0.11088671569E+04  0.13409048211E+04  0.65864270000E+03 0. -1.
    8880022    1    1    2    0    0  0.36685209958E+03  0.69784192332E+01 -0.95438094125E+02  0.40881443728E+03  0.15294330000E+03 0.  0.
<mgrwt>
<rscale>  0 0.64245963E+03</rscale>
<asrwt>0</asrwt>
<pdfrwt beam="1">  1        2 0.21254987E+00 0.75394918E+03</pdfrwt>
<pdfrwt beam="2">  1       -2 0.56637707E-01 0.75394918E+03</pdfrwt>
<totfact> 0.44226684E+01</totfact>
</mgrwt>
</event>
<event>
 4    2  0.2930016E-007  0.1152942E+04  0.7818608E-02  0.9204281E-01
         -2   -1    0    0    0  501 -0.00000000000E+00  0.00000000000E+00  0.12173482076E+04  0.12173482076E+04  0.25500000000E-02 0.  1.
          2   -1    0    0  501    0  0.00000000000E+00 -0.00000000000E+00 -0.12959525148E+04  0.12959525148E+04  0.25500000000E-02 0. -1.
    8880023    1    1    2    0    0 -0.94628081349E+03 -0.42043470548E+01 -0.72059476559E+03  0.13596073246E+04  0.65864270000E+03 0. -1.
    8880022    1    1    2    0    0  0.94628081349E+03  0.42043470548E+01  0.64199045838E+03  0.11536933978E+04  0.15294330000E+03 0.  0.
<mgrwt>
<rscale>  0 0.11009347E+04</rscale>
<asrwt>0</asrwt>
<pdfrwt beam="1">  1        2 0.19937731E+00 0.11529420E+04</pdfrwt>
<pdfrwt beam="2">  1       -2 0.18728434E+00 0.11529420E+04</pdfrwt>
<totfact> 0.26210453E+00</totfact>
</mgrwt>
</event>
<event>
 4    2  0.2930016E-007  0.7067141E+03  0.7818608E-02  0.9970412E-01
         -2   -1    0    0    0  501 -0.00000000000E+00  0.00000000000E+00  0.46237923480E+03  0.46237923480E+03  0.25500000000E-02 0.  1.
          2   -1    0    0  501    0  0.00000000000E+00 -0.00000000000E+00 -0.21733146421E+04  0.21733146421E+04  0.25500000000E-02 0. -1.
    8880023    1    1    2    0    0 -0.16780192152E+03  0.19358994212E+03 -0.20591981307E+04  0.21770947839E+04  0.65864270000E+03 0. -1.
    8880022    1    1    2    0    0  0.16780192152E+03 -0.19358994212E+03  0.34826272338E+03  0.45859909297E+03  0.15294330000E+03 0.  0.
<mgrwt>
<rscale>  0 0.56966892E+03</rscale>
<asrwt>0</asrwt>
<pdfrwt beam="1">  1        2 0.33435609E+00 0.70671406E+03</pdfrwt>
<pdfrwt beam="2">  1       -2 0.71135268E-01 0.70671406E+03</pdfrwt>
<totfact> 0.10043641E+01</totfact>
</mgrwt>
</event>
<event>
 4    2  0.2930016E-007  0.7532275E+03  0.7818608E-02  0.9822967E-01
         -2   -1    0    0    0  501 -0.00000000000E+00  0.00000000000E+00  0.31094844809E+03  0.31094844810E+03  0.25500000000E-02 0.  1.
          2   -1    0    0  501    0  0.00000000000E+00 -0.00000000000E+00 -0.30292110107E+04  0.30292110107E+04  0.25500000000E-02 0. -1.
    8880023    1    1    2    0    0 -0.29136246248E+02 -0.36426984102E+03 -0.28300250921E+04  0.29285480474E+04  0.65864270000E+03 0. -1.
    8880022    1    1    2    0    0  0.29136246248E+02  0.36426984102E+03  0.11176252953E+03  0.41161141134E+03  0.15294330000E+03 0.  0.
<mgrwt>
<rscale>  0 0.64144428E+03</rscale>
<asrwt>0</asrwt>
<pdfrwt beam="1">  1        2 0.46603244E+00 0.75322749E+03</pdfrwt>
<pdfrwt beam="2">  1       -2 0.47838225E-01 0.75322749E+03</pdfrwt>
<totfact> 0.73591888E+00</totfact>
</mgrwt>
</event>
<event>
 4    2  0.2930016E-007  0.9562686E+03  0.7818608E-02  0.9441152E-01
         -2   -1    0    0    0  501 -0.00000000000E+00  0.00000000000E+00  0.50300870595E+03  0.50300870596E+03  0.25500000000E-02 0.  1.
          2   -1    0    0  501    0  0.00000000000E+00 -0.00000000000E+00 -0.33486514311E+04  0.33486514311E+04  0.25500000000E-02 0. -1.
    8880023    1    1    2    0    0 -0.43295960877E+03 -0.54146598253E+03 -0.29795030703E+04  0.31291992882E+04  0.65864270000E+03 0. -1.
    8880022    1    1    2    0    0  0.43295960877E+03  0.54146598253E+03  0.13386034519E+03  0.72246084883E+03  0.15294330000E+03 0.  0.
<mgrwt>
<rscale>  0 0.88765067E+03</rscale>
<asrwt>0</asrwt>
<pdfrwt beam="1">  1        2 0.51517713E+00 0.95626860E+03</pdfrwt>
<pdfrwt beam="2">  1       -2 0.77385957E-01 0.95626860E+03</pdfrwt>
<totfact> 0.15978688E+00</totfact>
</mgrwt>
</event>
<event>
 4    2  0.2930016E-007  0.8891441E+03  0.7818608E-02  0.9543688E-01
         -2   -1    0    0    0  501 -0.00000000000E+00  0.00000000000E+00  0.36869558593E+03  0.36869558594E+03  0.25500000000E-02 0.  1.
          2   -1    0    0  501    0  0.00000000000E+00 -0.00000000000E+00 -0.16143437489E+04  0.16143437489E+04  0.25500000000E-02 0. -1.
    8880023    1    1    2    0    0 -0.59552980394E+03  0.45948097417E+02 -0.51698288902E+03  0.10285176172E+04  0.65864270000E+03 0.  1.
    8880022    1    1    2    0    0  0.59552980394E+03 -0.45948097417E+02 -0.72866527399E+03  0.95452171770E+03  0.15294330000E+03 0.  0.
<mgrwt>
<rscale>  0 0.81138077E+03</rscale>
<asrwt>0</asrwt>
<pdfrwt beam="1">  1        2 0.24836057E+00 0.88914407E+03</pdfrwt>
<pdfrwt beam="2">  1       -2 0.56722399E-01 0.88914407E+03</pdfrwt>
<totfact> 0.32228487E+01</totfact>
</mgrwt>
</event>
<event>
 4    2  0.2930016E-007  0.7209202E+03  0.7818608E-02  0.9919485E-01
          2   -1    0    0  501    0  0.00000000000E+00  0.00000000000E+00  0.16426805701E+04  0.16426805701E+04  0.25500000000E-02 0. -1.
         -2   -1    0    0    0  501 -0.00000000000E+00 -0.00000000000E+00 -0.54065044083E+03  0.54065044084E+03  0.25500000000E-02 0.  1.
    8880023    1    1    2    0    0  0.28392768947E+03 -0.72806560664E+02  0.15010152820E+04  0.16651644998E+04  0.65864270000E+03 0. -1.
    8880022    1    1    2    0    0 -0.28392768947E+03  0.72806560664E+02 -0.39898515278E+03  0.51816651115E+03  0.15294330000E+03 0.  0.
<mgrwt>
<rscale>  0 0.59326207E+03</rscale>
<asrwt>0</asrwt>
<pdfrwt beam="1">  1        2 0.25272008E+00 0.72092020E+03</pdfrwt>
<pdfrwt beam="2">  1       -2 0.83176993E-01 0.72092020E+03</pdfrwt>
<totfact> 0.13778109E+01</totfact>
</mgrwt>
</event>
<event>
 4    2  0.2930016E-007  0.8859900E+03  0.7818608E-02  0.9548907E-01
         -2   -1    0    0    0  501 -0.00000000000E+00  0.00000000000E+00  0.52959957595E+03  0.52959957595E+03  0.25500000000E-02 0.  1.
          2   -1    0    0  501    0  0.00000000000E+00 -0.00000000000E+00 -0.15172659524E+04  0.15172659524E+04  0.25500000000E-02 0. -1.
    8880023    1    1    2    0    0 -0.12257553375E+03  0.57977869519E+03 -0.11125585750E+04  0.14222393912E+04  0.65864270000E+03 0.  0.
    8880022    1    1    2    0    0  0.12257553375E+03 -0.57977869519E+03  0.12489219858E+03  0.62462613710E+03  0.15294330000E+03 0. -1.
<mgrwt>
<rscale>  0 0.80772171E+03</rscale>
<asrwt>0</asrwt>
<pdfrwt beam="1">  1        2 0.23342553E+00 0.88599001E+03</pdfrwt>
<pdfrwt beam="2">  1       -2 0.81476858E-01 0.88599001E+03</pdfrwt>
<totfact> 0.16603391E+01</totfact>
</mgrwt>
</event>
<event>
 4    2  0.2930016E-007  0.1292726E+04  0.7818608E-02  0.9071867E-01
         -2   -1    0    0    0  501 -0.00000000000E+00  0.00000000000E+00  0.69685937802E+03  0.69685937803E+03  0.25500000000E-02 0.  1.
          2   -1    0    0  501    0  0.00000000000E+00 -0.00000000000E+00 -0.20932688668E+04  0.20932688668E+04  0.25500000000E-02 0. -1.
    8880023    1    1    2    0    0  0.70658263802E+03 -0.85911056593E+03 -0.74674951085E+03  0.14929082447E+04  0.65864270000E+03 0. -1.
    8880022    1    1    2    0    0 -0.70658263802E+03  0.85911056593E+03 -0.64965997793E+03  0.12972200001E+04  0.15294330000E+03 0.  1.
<mgrwt>
<rscale>  0 0.12479789E+04</rscale>
<asrwt>0</asrwt>
<pdfrwt beam="1">  1        2 0.32204136E+00 0.12927259E+04</pdfrwt>
<pdfrwt beam="2">  1       -2 0.10720914E+00 0.12927259E+04</pdfrwt>
<totfact> 0.40173507E+00</totfact>
</mgrwt>
</event>
<event>
 4    2  0.2930016E-007  0.1098422E+04  0.7818608E-02  0.9262815E-01
          2   -1    0    0  501    0  0.00000000000E+00  0.00000000000E+00  0.21445174048E+04  0.21445174048E+04  0.25500000000E-02 0. -1.
         -2   -1    0    0    0  501 -0.00000000000E+00 -0.00000000000E+00 -0.14073618401E+04  0.14073618401E+04  0.25500000000E-02 0.  1.
    8880023    1    1    2    0    0 -0.22644493391E+03 -0.84937863391E+03  0.18341095988E+04  0.21378703418E+04  0.65864270000E+03 0. -1.
    8880022    1    1    2    0    0  0.22644493391E+03  0.84937863391E+03 -0.10969540341E+04  0.14140089030E+04  0.15294330000E+03 0.  0.
<mgrwt>
<rscale>  0 0.10427948E+04</rscale>
<asrwt>0</asrwt>
<pdfrwt beam="1">  1        2 0.32992575E+00 0.10984223E+04</pdfrwt>
<pdfrwt beam="2">  1       -2 0.21651721E+00 0.10984223E+04</pdfrwt>
<totfact> 0.56929252E-01</totfact>
</mgrwt>
</event>
<event>
 4    2  0.2930016E-007  0.1146916E+04  0.7818608E-02  0.9210535E-01
          2   -1    0    0  501    0  0.00000000000E+00  0.00000000000E+00  0.21647222615E+04  0.21647222615E+04  0.25500000000E-02 0. -1.
         -2   -1    0    0    0  501 -0.00000000000E+00 -0.00000000000E+00 -0.56616761021E+03  0.56616761022E+03  0.25500000000E-02 0.  1.
    8880023    1    1    2    0    0  0.74663176137E+03 -0.56933911805E+03  0.43190732481E+03  0.12255448429E+04  0.65864270000E+03 0.  0.
    8880022    1    1    2    0    0 -0.74663176137E+03  0.56933911805E+03  0.11666473265E+04  0.15053450288E+04  0.15294330000E+03 0.  0.
<mgrwt>
<rscale>  0 0.10945349E+04</rscale>
<asrwt>0</asrwt>
<pdfrwt beam="1">  1        2 0.33303419E+00 0.11469160E+04</pdfrwt>
<pdfrwt beam="2">  1       -2 0.87102710E-01 0.11469160E+04</pdfrwt>
<totfact> 0.60807960E+00</totfact>
</mgrwt>
</event>
<event>
 4    2  0.2930016E-007  0.9025020E+03  0.7818608E-02  0.9522027E-01
         -2   -1    0    0    0  501 -0.00000000000E+00  0.00000000000E+00  0.24739832272E+04  0.24739832272E+04  0.25500000000E-02 0.  1.
          2   -1    0    0  501    0  0.00000000000E+00 -0.00000000000E+00 -0.11378156721E+04  0.11378156722E+04  0.25500000000E-02 0. -1.
    8880023    1    1    2    0    0 -0.42328608221E+03 -0.44891922515E+03 -0.90746910761E+03  0.12798476338E+04  0.65864270000E+03 0. -1.
    8880022    1    1    2    0    0  0.42328608221E+03  0.44891922515E+03  0.22436366627E+04  0.23319512656E+04  0.15294330000E+03 0.  0.
<mgrwt>
<rscale>  0 0.82679158E+03</rscale>
<asrwt>0</asrwt>
<pdfrwt beam="1">  1        2 0.17504857E+00 0.90250196E+03</pdfrwt>
<pdfrwt beam="2">  1       -2 0.38061280E+00 0.90250196E+03</pdfrwt>
<totfact> 0.21174600E-01</totfact>
</mgrwt>
</event>
<event>
 4    2  0.2930016E-007  0.7751763E+03  0.7818608E-02  0.9767292E-01
          2   -1    0    0  501    0  0.00000000000E+00  0.00000000000E+00  0.67211090237E+03  0.67211090237E+03  0.25500000000E-02 0. -1.
         -2   -1    0    0    0  501 -0.00000000000E+00 -0.00000000000E+00 -0.61838877170E+03  0.61838877170E+03  0.25500000000E-02 0.  1.
    8880023    1    1    2    0    0  0.28920275003E+03 -0.28887702346E+03 -0.17945170122E+03  0.79567662065E+03  0.65864270000E+03 0.  0.
    8880022    1    1    2    0    0 -0.28920275003E+03  0.28887702346E+03  0.23317383189E+03  0.49482305343E+03  0.15294330000E+03 0.  0.
<mgrwt>
<rscale>  0 0.67147756E+03</rscale>
<asrwt>0</asrwt>
<pdfrwt beam="1">  1        2 0.10340168E+00 0.77517635E+03</pdfrwt>
<pdfrwt beam="2">  1       -2 0.95136734E-01 0.77517635E+03</pdfrwt>
<totfact> 0.40499585E+01</totfact>
</mgrwt>
</event>
<event>
 4    2  0.2930016E-007  0.6822444E+03  0.7818608E-02  0.1008082E+00
         -2   -1    0    0    0  501 -0.00000000000E+00  0.00000000000E+00  0.12823212117E+03  0.12823212120E+03  0.25500000000E-02 0.  1.
          2   -1    0    0  501    0  0.00000000000E+00 -0.00000000000E+00 -0.21108337626E+04  0.21108337626E+04  0.25500000000E-02 0. -1.
    8880023    1    1    2    0    0  0.14719156626E+03 -0.99909377652E+02 -0.18449673613E+04  0.19670693967E+04  0.65864270000E+03 0.  0.
    8880022    1    1    2    0    0 -0.14719156626E+03  0.99909377652E+02 -0.13763428016E+03  0.27199648713E+03  0.15294330000E+03 0.  0.
<mgrwt>
<rscale>  0 0.52244275E+03</rscale>
<asrwt>0</asrwt>
<pdfrwt beam="1">  1        2 0.32474363E+00 0.68224442E+03</pdfrwt>
<pdfrwt beam="2">  1       -2 0.19728020E-01 0.68224442E+03</pdfrwt>
<totfact> 0.13110187E+02</totfact>
</mgrwt>
</event>
<event>
 4    2  0.2930016E-007  0.9221480E+03  0.7818608E-02  0.9491373E-01
         -2   -1    0    0    0  501 -0.00000000000E+00  0.00000000000E+00  0.70228466625E+03  0.70228466625E+03  0.25500000000E-02 0.  1.
          2   -1    0    0  501    0  0.00000000000E+00 -0.00000000000E+00 -0.10327939732E+04  0.10327939732E+04  0.25500000000E-02 0. -1.
    8880023    1    1    2    0    0 -0.54422791325E+03 -0.34693325083E+03  0.12481237233E+03  0.93055630493E+03  0.65864270000E+03 0.  1.
    8880022    1    1    2    0    0  0.54422791325E+03  0.34693325083E+03 -0.45532167925E+03  0.80452233449E+03  0.15294330000E+03 0.  0.
<mgrwt>
<rscale>  0 0.84922827E+03</rscale>
<asrwt>0</asrwt>
<pdfrwt beam="1">  1        2 0.15889138E+00 0.92214799E+03</pdfrwt>
<pdfrwt beam="2">  1       -2 0.10804379E+00 0.92214799E+03</pdfrwt>
<totfact> 0.16469937E+01</totfact>
</mgrwt>
</event>
<event>
 4    2  0.2930016E-007  0.8254513E+03  0.7818608E-02  0.9658248E-01
          2   -1    0    0  501    0  0.00000000000E+00  0.00000000000E+00  0.44868048287E+03  0.44868048288E+03  0.25500000000E-02 0. -1.
         -2   -1    0    0    0  501 -0.00000000000E+00 -0.00000000000E+00 -0.10915467004E+04  0.10915467004E+04  0.25500000000E-02 0.  1.
    8880023    1    1    2    0    0 -0.49692881725E+03 -0.24929372174E+02 -0.18263389865E+03  0.84541414124E+03  0.65864270000E+03 0. -1.
    8880022    1    1    2    0    0  0.49692881725E+03  0.24929372174E+02 -0.46023231885E+03  0.69481304200E+03  0.15294330000E+03 0. -1.
<mgrwt>
<rscale>  0 0.73558020E+03</rscale>
<asrwt>0</asrwt>
<pdfrwt beam="1">  1        2 0.69027767E-01 0.82545135E+03</pdfrwt>
<pdfrwt beam="2">  1       -2 0.16793026E+00 0.82545135E+03</pdfrwt>
<totfact> 0.15513988E+01</totfact>
</mgrwt>
</event>
<event>
 4    2  0.2930016E-007  0.6619013E+03  0.7818608E-02  0.1022288E+00
         -2   -1    0    0    0  501 -0.00000000000E+00  0.00000000000E+00  0.24904835707E+03  0.24904835708E+03  0.25500000000E-02 0.  1.
          2   -1    0    0  501    0  0.00000000000E+00 -0.00000000000E+00 -0.20397120990E+04  0.20397120990E+04  0.25500000000E-02 0. -1.
    8880023    1    1    2    0    0  0.61166045142E+02 -0.23703175116E+02 -0.19494434254E+04  0.20587479206E+04  0.65864270000E+03 0. -1.
    8880022    1    1    2    0    0 -0.61166045142E+02  0.23703175116E+02  0.15877968345E+03  0.23001253548E+03  0.15294330000E+03 0.  0.
<mgrwt>
<rscale>  0 0.46869969E+03</rscale>
<asrwt>0</asrwt>
<pdfrwt beam="1">  1        2 0.31380185E+00 0.66190130E+03</pdfrwt>
<pdfrwt beam="2">  1       -2 0.38315133E-01 0.66190130E+03</pdfrwt>
<totfact> 0.42631642E+01</totfact>
</mgrwt>
</event>
<event>
 4    2  0.2930016E-007  0.6826132E+03  0.7818608E-02  0.1007882E+00
         -2   -1    0    0    0  501 -0.00000000000E+00  0.00000000000E+00  0.67703659760E+03  0.67703659760E+03  0.25500000000E-02 0.  1.
          2   -1    0    0  501    0  0.00000000000E+00 -0.00000000000E+00 -0.25643196565E+04  0.25643196565E+04  0.25500000000E-02 0. -1.
    8880023    1    1    2    0    0 -0.76314108162E+02 -0.16225496181E+03 -0.24965011846E+04  0.25881419758E+04  0.65864270000E+03 0.  0.
    8880022    1    1    2    0    0  0.76314108162E+02  0.16225496181E+03  0.60921812569E+03  0.65321427834E+03  0.15294330000E+03 0.  1.
<mgrwt>
<rscale>  0 0.52324953E+03</rscale>
<asrwt>0</asrwt>
<pdfrwt beam="1">  1        2 0.39451071E+00 0.68261316E+03</pdfrwt>
<pdfrwt beam="2">  1       -2 0.10415948E+00 0.68261316E+03</pdfrwt>
<totfact> 0.25539007E+00</totfact>
</mgrwt>
</event>
<event>
 4    2  0.3024087E-007  0.8147308E+03  0.7818608E-02  0.9679806E-01
          2   -1    0    0  501    0  0.00000000000E+00  0.00000000000E+00  0.26487034999E+04  0.26487034999E+04  0.25500000000E-02 0. -1.
         -2   -1    0    0    0  501 -0.00000000000E+00 -0.00000000000E+00 -0.78724738519E+03  0.78724738519E+03  0.25500000000E-02 0.  1.
    8880023    1    1    2    0    0 -0.32433084251E+03 -0.35325002327E+03  0.24962301149E+04  0.26258238835E+04  0.65864270000E+03 0.  0.
    8880022    1    1    2    0    0  0.32433084251E+03  0.35325002327E+03 -0.63477400020E+03  0.81012700158E+03  0.15294330000E+03 0.  0.
<mgrwt>
<rscale>  0 0.72231979E+03</rscale>
<asrwt>0</asrwt>
<pdfrwt beam="1">  1        2 0.40749285E+00 0.81473080E+03</pdfrwt>
<pdfrwt beam="2">  1       -2 0.12111498E+00 0.81473080E+03</pdfrwt>
<totfact> 0.15406497E+00</totfact>
</mgrwt>
</event>
<event>
 4    2  0.2930016E-007  0.6749955E+03  0.7818608E-02  0.1012309E+00
          2   -1    0    0  501    0  0.00000000000E+00  0.00000000000E+00  0.95876573615E+03  0.95876573615E+03  0.25500000000E-02 0. -1.
         -2   -1    0    0    0  501 -0.00000000000E+00 -0.00000000000E+00 -0.21301911978E+03  0.21301911980E+03  0.25500000000E-02 0.  1.
    8880023    1    1    2    0    0  0.13613141181E+03 -0.57244436763E+02  0.65522680025E+03  0.94071305553E+03  0.65864270000E+03 0.  0.
    8880022    1    1    2    0    0 -0.13613141181E+03  0.57244436763E+02  0.90519816118E+02  0.23107180042E+03  0.15294330000E+03 0. -1.
<mgrwt>
<rscale>  0 0.50567136E+03</rscale>
<asrwt>0</asrwt>
<pdfrwt beam="1">  1        2 0.14750242E+00 0.67499548E+03</pdfrwt>
<pdfrwt beam="2">  1       -2 0.32772172E-01 0.67499548E+03</pdfrwt>
<totfact> 0.23572166E+02</totfact>
</mgrwt>
</event>
<event>
 4    2  0.2930016E-007  0.8962056E+03  0.7818608E-02  0.9532150E-01
         -2   -1    0    0    0  501 -0.00000000000E+00  0.00000000000E+00  0.65590953311E+03  0.65590953311E+03  0.25500000000E-02 0.  1.
          2   -1    0    0  501    0  0.00000000000E+00 -0.00000000000E+00 -0.31055604974E+04  0.31055604974E+04  0.25500000000E-02 0. -1.
    8880023    1    1    2    0    0 -0.60285587738E+03 -0.77065780003E+02 -0.28701133996E+04  0.30067815810E+04  0.65864270000E+03 0.  0.
    8880022    1    1    2    0    0  0.60285587738E+03  0.77065780003E+02  0.42046243526E+03  0.75468844950E+03  0.15294330000E+03 0.  0.
<mgrwt>
<rscale>  0 0.81954441E+03</rscale>
<asrwt>0</asrwt>
<pdfrwt beam="1">  1        2 0.47777853E+00 0.89620564E+03</pdfrwt>
<pdfrwt beam="2">  1       -2 0.10090916E+00 0.89620564E+03</pdfrwt>
<totfact> 0.12557292E+00</totfact>
</mgrwt>
</event>
<event>
 4    2  0.2930016E-007  0.7379823E+03  0.7818608E-02  0.9865864E-01
         -2   -1    0    0    0  501 -0.00000000000E+00  0.00000000000E+00  0.50279488455E+03  0.50279488455E+03  0.25500000000E-02 0.  1.
          2   -1    0    0  501    0  0.00000000000E+00 -0.00000000000E+00 -0.15052546194E+04  0.15052546194E+04  0.25500000000E-02 0. -1.
    8880023    1    1    2    0    0 -0.27191487592E+03  0.19201556507E+03 -0.13271516562E+04  0.15185352817E+04  0.65864270000E+03 0. -1.
    8880022    1    1    2    0    0  0.27191487592E+03 -0.19201556507E+03  0.32469192135E+03  0.48951422224E+03  0.15294330000E+03 0.  0.
<mgrwt>
<rscale>  0 0.61944572E+03</rscale>
<asrwt>0</asrwt>
<pdfrwt beam="1">  1        2 0.23157763E+00 0.73798231E+03</pdfrwt>
<pdfrwt beam="2">  1       -2 0.77353060E-01 0.73798231E+03</pdfrwt>
<totfact> 0.19274799E+01</totfact>
</mgrwt>
</event>
<event>
 4    2  0.2930016E-007  0.7027774E+03  0.7818608E-02  0.9985869E-01
          2   -1    0    0  501    0  0.00000000000E+00  0.00000000000E+00  0.20990005115E+04  0.20990005115E+04  0.25500000000E-02 0. -1.
         -2   -1    0    0    0  501 -0.00000000000E+00 -0.00000000000E+00 -0.43272963395E+03  0.43272963395E+03  0.25500000000E-02 0.  1.
    8880023    1    1    2    0    0  0.80655741866E+02  0.23147473434E+03  0.19825044910E+04  0.21033830284E+04  0.65864270000E+03 0. -1.
    8880022    1    1    2    0    0 -0.80655741866E+02 -0.23147473434E+03 -0.31623361345E+03  0.42834711698E+03  0.15294330000E+03 0.  0.
<mgrwt>
<rscale>  0 0.56274231E+03</rscale>
<asrwt>0</asrwt>
<pdfrwt beam="1">  1        2 0.32292315E+00 0.70277742E+03</pdfrwt>
<pdfrwt beam="2">  1       -2 0.66573790E-01 0.70277742E+03</pdfrwt>
<totfact> 0.12747846E+01</totfact>
</mgrwt>
</event>
<event>
 4    2  0.2930016E-007  0.7387104E+03  0.7818608E-02  0.9863720E-01
         -2   -1    0    0    0  501 -0.00000000000E+00  0.00000000000E+00  0.58978765516E+03  0.58978765516E+03  0.25500000000E-02 0.  1.
          2   -1    0    0  501    0  0.00000000000E+00 -0.00000000000E+00 -0.75559804025E+03  0.75559804025E+03  0.25500000000E-02 0. -1.
    8880023    1    1    2    0    0 -0.33448127388E+03  0.22512073870E+01 -0.46361268486E+03  0.87214088216E+03  0.65864270000E+03 0.  0.
    8880022    1    1    2    0    0  0.33448127388E+03 -0.22512073870E+01  0.29780229977E+03  0.47324481326E+03  0.15294330000E+03 0.  0.
<mgrwt>
<rscale>  0 0.62052261E+03</rscale>
<asrwt>0</asrwt>
<pdfrwt beam="1">  1        2 0.11624585E+00 0.73871036E+03</pdfrwt>
<pdfrwt beam="2">  1       -2 0.90736562E-01 0.73871036E+03</pdfrwt>
<totfact> 0.39074992E+01</totfact>
</mgrwt>
</event>
<event>
 4    2  0.2930016E-007  0.7169533E+03  0.7818608E-02  0.9933033E-01
         -2   -1    0    0    0  501 -0.00000000000E+00  0.00000000000E+00  0.81817348071E+03  0.81817348072E+03  0.25500000000E-02 0.  1.
          2   -1    0    0  501    0  0.00000000000E+00 -0.00000000000E+00 -0.34647582967E+03  0.34647582968E+03  0.25500000000E-02 0. -1.
    8880023    1    1    2    0    0 -0.28321206787E+03 -0.16412423608E+01  0.20239391918E+03  0.74497333768E+03  0.65864270000E+03 0. -1.
    8880022    1    1    2    0    0  0.28321206787E+03  0.16412423608E+01  0.26930373186E+03  0.41967597272E+03  0.15294330000E+03 0.  0.
<mgrwt>
<rscale>  0 0.58686728E+03</rscale>
<asrwt>0</asrwt>
<pdfrwt beam="1">  1        2 0.53303975E-01 0.71695326E+03</pdfrwt>
<pdfrwt beam="2">  1       -2 0.12587284E+00 0.71695326E+03</pdfrwt>
<totfact> 0.44618437E+01</totfact>
</mgrwt>
</event>
<event>
 4    2  0.2930016E-007  0.1133674E+04  0.7818608E-02  0.9224459E-01
          2   -1    0    0  501    0  0.00000000000E+00  0.00000000000E+00  0.17615010259E+04  0.17615010259E+04  0.25500000000E-02 0. -1.
         -2   -1    0    0    0  501 -0.00000000000E+00 -0.00000000000E+00 -0.16753031209E+04  0.16753031209E+04  0.25500000000E-02 0.  1.
    8880023    1    1    2    0    0  0.92185429714E+03 -0.39877255793E+02  0.14141919589E+04  0.18124995568E+04  0.65864270000E+03 0.  0.
    8880022    1    1    2    0    0 -0.92185429714E+03  0.39877255793E+02 -0.13279940539E+04  0.16243045899E+04  0.15294330000E+03 0.  0.
<mgrwt>
<rscale>  0 0.10804494E+04</rscale>
<asrwt>0</asrwt>
<pdfrwt beam="1">  1        2 0.27100016E+00 0.11336736E+04</pdfrwt>
<pdfrwt beam="2">  1       -2 0.25773894E+00 0.11336736E+04</pdfrwt>
<totfact> 0.51238783E-01</totfact>
</mgrwt>
</event>
<event>
 4    2  0.2930016E-007  0.6815697E+03  0.7818608E-02  0.1008449E+00
          2   -1    0    0  501    0  0.00000000000E+00  0.00000000000E+00  0.10031934852E+04  0.10031934852E+04  0.25500000000E-02 0. -1.
         -2   -1    0    0    0  501 -0.00000000000E+00 -0.00000000000E+00 -0.25654524039E+03  0.25654524040E+03  0.25500000000E-02 0.  1.
    8880023    1    1    2    0    0 -0.13919420769E+03  0.10654585059E+03  0.76717090683E+03  0.10262009805E+04  0.65864270000E+03 0. -1.
    8880022    1    1    2    0    0  0.13919420769E+03 -0.10654585059E+03 -0.20522662029E+02  0.23353774514E+03  0.15294330000E+03 0.  0.
<mgrwt>
<rscale>  0 0.52095609E+03</rscale>
<asrwt>0</asrwt>
<pdfrwt beam="1">  1        2 0.15433746E+00 0.68156970E+03</pdfrwt>
<pdfrwt beam="2">  1       -2 0.39468499E-01 0.68156970E+03</pdfrwt>
<totfact> 0.15467426E+02</totfact>
</mgrwt>
</event>
<event>
 4    2  0.2930016E-007  0.7942424E+03  0.7818608E-02  0.9723386E-01
         -2   -1    0    0    0  501 -0.00000000000E+00  0.00000000000E+00  0.76621753576E+03  0.76621753577E+03  0.25500000000E-02 0.  1.
          2   -1    0    0  501    0  0.00000000000E+00 -0.00000000000E+00 -0.56384742083E+03  0.56384742083E+03  0.25500000000E-02 0. -1.
    8880023    1    1    2    0    0  0.22966349426E+03 -0.37982285603E+03 -0.52310778356E+02  0.79596315640E+03  0.65864270000E+03 0.  0.
    8880022    1    1    2    0    0 -0.22966349426E+03  0.37982285603E+03  0.25468089329E+03  0.53410180020E+03  0.15294330000E+03 0.  0.
<mgrwt>
<rscale>  0 0.69641292E+03</rscale>
<asrwt>0</asrwt>
<pdfrwt beam="1">  1        2 0.86745758E-01 0.79424236E+03</pdfrwt>
<pdfrwt beam="2">  1       -2 0.11787962E+00 0.79424236E+03</pdfrwt>
<totfact> 0.29931606E+01</totfact>
</mgrwt>
</event>
<event>
 4    2  0.2930016E-007  0.7788573E+03  0.7818608E-02  0.9758528E-01
          2   -1    0    0  501    0  0.00000000000E+00  0.00000000000E+00  0.12327567269E+04  0.12327567269E+04  0.25500000000E-02 0. -1.
         -2   -1    0    0    0  501 -0.00000000000E+00 -0.00000000000E+00 -0.38648186139E+03  0.38648186139E+03  0.25500000000E-02 0.  1.
    8880023    1    1    2    0    0 -0.81168974553E+02  0.40770103246E+03  0.87981093243E+03  0.11750259646E+04  0.65864270000E+03 0. -1.
    8880022    1    1    2    0    0  0.81168974553E+02 -0.40770103246E+03 -0.33536066904E+02  0.44421262375E+03  0.15294330000E+03 0.  0.
<mgrwt>
<rscale>  0 0.67636459E+03</rscale>
<asrwt>0</asrwt>
<pdfrwt beam="1">  1        2 0.18965488E+00 0.77885733E+03</pdfrwt>
<pdfrwt beam="2">  1       -2 0.59458747E-01 0.77885733E+03</pdfrwt>
<totfact> 0.48544763E+01</totfact>
</mgrwt>
</event>
<event>
 4    2  0.2930016E-007  0.1108142E+04  0.7818608E-02  0.9252045E-01
         -2   -1    0    0    0  501 -0.00000000000E+00  0.00000000000E+00  0.16543535164E+04  0.16543535164E+04  0.25500000000E-02 0.  1.
          2   -1    0    0  501    0  0.00000000000E+00 -0.00000000000E+00 -0.99005626223E+03  0.99005626223E+03  0.25500000000E-02 0. -1.
    8880023    1    1    2    0    0  0.52609829432E+03 -0.71929725246E+03 -0.46155499032E+03  0.12004212461E+04  0.65864270000E+03 0.  0.
    8880022    1    1    2    0    0 -0.52609829432E+03  0.71929725246E+03  0.11258522445E+04  0.14439885325E+04  0.15294330000E+03 0.  0.
<mgrwt>
<rscale>  0 0.10532014E+04</rscale>
<asrwt>0</asrwt>
<pdfrwt beam="1">  1        2 0.15231635E+00 0.11081418E+04</pdfrwt>
<pdfrwt beam="2">  1       -2 0.25451593E+00 0.11081418E+04</pdfrwt>
<totfact> 0.15171157E+00</totfact>
</mgrwt>
</event>
<event>
 4    2  0.2930016E-007  0.1155916E+04  0.7818608E-02  0.9201214E-01
         -2   -1    0    0    0  501 -0.00000000000E+00  0.00000000000E+00  0.19723548872E+04  0.19723548872E+04  0.25500000000E-02 0.  1.
          2   -1    0    0  501    0  0.00000000000E+00 -0.00000000000E+00 -0.11278541029E+04  0.11278541029E+04  0.25500000000E-02 0. -1.
    8880023    1    1    2    0    0  0.41828609129E+02 -0.94898979698E+03  0.15309277632E+04  0.19183016681E+04  0.65864270000E+03 0. -1.
    8880022    1    1    2    0    0 -0.41828609129E+02  0.94898979698E+03 -0.68642697891E+03  0.11819073220E+04  0.15294330000E+03 0.  0.
<mgrwt>
<rscale>  0 0.11040908E+04</rscale>
<asrwt>0</asrwt>
<pdfrwt beam="1">  1        2 0.17351601E+00 0.11559159E+04</pdfrwt>
<pdfrwt beam="2">  1       -2 0.30343922E+00 0.11559159E+04</pdfrwt>
<totfact> 0.62327835E-01</totfact>
</mgrwt>
</event>
<event>
 4    2  0.4770140E-007  0.6953310E+03  0.7818608E-02  0.1001715E+00
         -2   -1    0    0    0  501 -0.00000000000E+00  0.00000000000E+00  0.92527958692E+03  0.92527958692E+03  0.25500000000E-02 0.  1.
          2   -1    0    0  501    0  0.00000000000E+00 -0.00000000000E+00 -0.16821284035E+04  0.16821284035E+04  0.25500000000E-02 0. -1.
    8880023    1    1    2    0    0  0.21146027104E+03  0.70424073445E+02 -0.15879178456E+04  0.17334844351E+04  0.65864270000E+03 0. -1.
    8880022    1    1    2    0    0 -0.21146027104E+03 -0.70424073445E+02  0.83106902904E+03  0.87392355523E+03  0.15294330000E+03 0.  0.
<mgrwt>
<rscale>  0 0.54904583E+03</rscale>
<asrwt>0</asrwt>
<pdfrwt beam="1">  1        2 0.25878898E+00 0.69533100E+03</pdfrwt>
<pdfrwt beam="2">  1       -2 0.14235071E+00 0.69533100E+03</pdfrwt>
<totfact> 0.35871330E+00</totfact>
</mgrwt>
</event>
<event>
 4    2  0.2930016E-007  0.7598225E+03  0.7818608E-02  0.9805567E-01
          2   -1    0    0  501    0  0.00000000000E+00  0.00000000000E+00  0.16501176097E+04  0.16501176097E+04  0.25500000000E-02 0. -1.
         -2   -1    0    0    0  501 -0.00000000000E+00 -0.00000000000E+00 -0.20963010927E+03  0.20963010929E+03  0.25500000000E-02 0.  1.
    8880023    1    1    2    0    0  0.23667742866E+03  0.29581050285E+03  0.83108062470E+03  0.11260662813E+04  0.65864270000E+03 0.  1.
    8880022    1    1    2    0    0 -0.23667742866E+03 -0.29581050285E+03  0.60940687570E+03  0.73368143768E+03  0.15294330000E+03 0. -1.
<mgrwt>
<rscale>  0 0.65064631E+03</rscale>
<asrwt>0</asrwt>
<pdfrwt beam="1">  1        2 0.25386425E+00 0.75982252E+03</pdfrwt>
<pdfrwt beam="2">  1       -2 0.32250786E-01 0.75982252E+03</pdfrwt>
<totfact> 0.95402945E+01</totfact>
</mgrwt>
</event>
<event>
 4    2  0.2930016E-007  0.6622233E+03  0.7818608E-02  0.1021986E+00
         -2   -1    0    0    0  501 -0.00000000000E+00  0.00000000000E+00  0.28308198467E+03  0.28308198468E+03  0.25500000000E-02 0.  1.
          2   -1    0    0  501    0  0.00000000000E+00 -0.00000000000E+00 -0.63354109470E+03  0.63354109471E+03  0.25500000000E-02 0. -1.
    8880023    1    1    2    0    0  0.24812276558E+02  0.64139724622E+02 -0.20117006584E+03  0.69210487283E+03  0.65864270000E+03 0.  1.
    8880022    1    1    2    0    0 -0.24812276558E+02 -0.64139724622E+02 -0.14928904420E+03  0.22451820656E+03  0.15294330000E+03 0. -1.
<mgrwt>
<rscale>  0 0.46976711E+03</rscale>
<asrwt>0</asrwt>
<pdfrwt beam="1">  1        2 0.97467861E-01 0.66222335E+03</pdfrwt>
<pdfrwt beam="2">  1       -2 0.43551075E-01 0.66222335E+03</pdfrwt>
<totfact> 0.23496786E+02</totfact>
</mgrwt>
</event>
<event>
 4    2  0.2930016E-007  0.6914723E+03  0.7818608E-02  0.1003461E+00
          2   -1    0    0  501    0  0.00000000000E+00  0.00000000000E+00  0.13419677443E+04  0.13419677443E+04  0.25500000000E-02 0. -1.
         -2   -1    0    0    0  501 -0.00000000000E+00 -0.00000000000E+00 -0.28831040128E+03  0.28831040129E+03  0.25500000000E-02 0.  1.
    8880023    1    1    2    0    0 -0.15028023466E+03  0.14744364758E+03  0.11589549496E+04  0.13495593946E+04  0.65864270000E+03 0.  0.
    8880022    1    1    2    0    0  0.15028023466E+03 -0.14744364758E+03 -0.10529760663E+03  0.28071875092E+03  0.15294330000E+03 0.  0.
<mgrwt>
<rscale>  0 0.54158554E+03</rscale>
<asrwt>0</asrwt>
<pdfrwt beam="1">  1        2 0.20645658E+00 0.69147233E+03</pdfrwt>
<pdfrwt beam="2">  1       -2 0.44355446E-01 0.69147233E+03</pdfrwt>
<totfact> 0.77101026E+01</totfact>
</mgrwt>
</event>
<event>
 4    2  0.2930016E-007  0.1137710E+04  0.7818608E-02  0.9220188E-01
         -2   -1    0    0    0  501 -0.00000000000E+00  0.00000000000E+00  0.10857273557E+04  0.10857273557E+04  0.25500000000E-02 0.  1.
          2   -1    0    0  501    0  0.00000000000E+00 -0.00000000000E+00 -0.17642537166E+04  0.17642537166E+04  0.25500000000E-02 0. -1.
    8880023    1    1    2    0    0  0.80275113666E+03  0.46493584266E+03 -0.12964789638E+04  0.17248891660E+04  0.65864270000E+03 0.  0.
    8880022    1    1    2    0    0 -0.80275113666E+03 -0.46493584266E+03  0.61795260285E+03  0.11250919063E+04  0.15294330000E+03 0.  0.
<mgrwt>
<rscale>  0 0.10847465E+04</rscale>
<asrwt>0</asrwt>
<pdfrwt beam="1">  1        2 0.27142365E+00 0.11377104E+04</pdfrwt>
<pdfrwt beam="2">  1       -2 0.16703498E+00 0.11377104E+04</pdfrwt>
<totfact> 0.19771596E+00</totfact>
</mgrwt>
</event>
<event>
 4    2  0.2930016E-007  0.7860188E+03  0.7818608E-02  0.9741884E-01
         -2   -1    0    0    0  501 -0.00000000000E+00  0.00000000000E+00  0.95561617826E+03  0.95561617827E+03  0.25500000000E-02 0.  1.
          2   -1    0    0  501    0  0.00000000000E+00 -0.00000000000E+00 -0.78670541552E+03  0.78670541553E+03  0.25500000000E-02 0. -1.
    8880023    1    1    2    0    0 -0.24489221840E+03  0.35219765823E+03 -0.50111646176E+03  0.93217128448E+03  0.65864270000E+03 0.  0.
    8880022    1    1    2    0    0  0.24489221840E+03 -0.35219765823E+03  0.67002722450E+03  0.81015030931E+03  0.15294330000E+03 0.  0.
<mgrwt>
<rscale>  0 0.68576868E+03</rscale>
<asrwt>0</asrwt>
<pdfrwt beam="1">  1        2 0.12103160E+00 0.78601883E+03</pdfrwt>
<pdfrwt beam="2">  1       -2 0.14701787E+00 0.78601883E+03</pdfrwt>
<totfact> 0.11261768E+01</totfact>
</mgrwt>
</event>
<event>
 4    2  0.2930016E-007  0.7042404E+03  0.7818608E-02  0.9980045E-01
          2   -1    0    0  501    0  0.00000000000E+00  0.00000000000E+00  0.26662644574E+04  0.26662644574E+04  0.25500000000E-02 0. -1.
         -2   -1    0    0    0  501 -0.00000000000E+00 -0.00000000000E+00 -0.13718854733E+03  0.13718854735E+03  0.25500000000E-02 0.  1.
    8880023    1    1    2    0    0  0.91508695094E+02  0.23188455032E+03  0.23660224239E+04  0.24686062065E+04  0.65864270000E+03 0. -1.
    8880022    1    1    2    0    0 -0.91508695094E+02 -0.23188455032E+03  0.16305348617E+03  0.33484679829E+03  0.15294330000E+03 0.  0.
<mgrwt>
<rscale>  0 0.56533941E+03</rscale>
<asrwt>0</asrwt>
<pdfrwt beam="1">  1        2 0.41019450E+00 0.70424037E+03</pdfrwt>
<pdfrwt beam="2">  1       -2 0.21105932E-01 0.70424037E+03</pdfrwt>
<totfact> 0.56750632E+01</totfact>
</mgrwt>
</event>
<event>
 4    2  0.2930016E-007  0.9153485E+03  0.7818608E-02  0.9501828E-01
         -2   -1    0    0    0  501 -0.00000000000E+00  0.00000000000E+00  0.53105773103E+03  0.53105773104E+03  0.25500000000E-02 0.  1.
          2   -1    0    0  501    0  0.00000000000E+00 -0.00000000000E+00 -0.25097650833E+04  0.25097650833E+04  0.25500000000E-02 0. -1.
    8880023    1    1    2    0    0 -0.63534658398E+03 -0.19680335068E+02 -0.21737046810E+04  0.23585705086E+04  0.65864270000E+03 0. -1.
    8880022    1    1    2    0    0  0.63534658398E+03  0.19680335068E+02  0.19499732883E+03  0.68225230570E+03  0.15294330000E+03 0.  0.
<mgrwt>
<rscale>  0 0.84149158E+03</rscale>
<asrwt>0</asrwt>
<pdfrwt beam="1">  1        2 0.38611770E+00 0.91534846E+03</pdfrwt>
<pdfrwt beam="2">  1       -2 0.81701191E-01 0.91534846E+03</pdfrwt>
<totfact> 0.46305381E+00</totfact>
</mgrwt>
</event>
<event>
 4    2  0.2930016E-007  0.7355851E+03  0.7818608E-02  0.9872999E-01
          2   -1    0    0  501    0  0.00000000000E+00  0.00000000000E+00  0.92479679808E+03  0.92479679808E+03  0.25500000000E-02 0. -1.
         -2   -1    0    0    0  501 -0.00000000000E+00 -0.00000000000E+00 -0.10884050176E+04  0.10884050176E+04  0.25500000000E-02 0.  1.
    8880023    1    1    2    0    0  0.21583664582E+03 -0.24635293738E+03  0.73790591767E+03  0.10419167803E+04  0.65864270000E+03 0. -1.
    8880022    1    1    2    0    0 -0.21583664582E+03  0.24635293738E+03 -0.90151413721E+03  0.97128503542E+03  0.15294330000E+03 0.  0.
<mgrwt>
<rscale>  0 0.61587898E+03</rscale>
<asrwt>0</asrwt>
<pdfrwt beam="1">  1        2 0.14227643E+00 0.73558510E+03</pdfrwt>
<pdfrwt beam="2">  1       -2 0.16744693E+00 0.73558510E+03</pdfrwt>
<totfact> 0.64034515E+00</totfact>
</mgrwt>
</event>
<event>
 4    2  0.2930016E-007  0.9713236E+03  0.7818608E-02  0.9420076E-01
          2   -1    0    0  501    0  0.00000000000E+00  0.00000000000E+00  0.79507997492E+03  0.79507997492E+03  0.25500000000E-02 0. -1.
         -2   -1    0    0    0  501 -0.00000000000E+00 -0.00000000000E+00 -0.95641262927E+03  0.95641262928E+03  0.25500000000E-02 0.  1.
    8880023    1    1    2    0    0  0.50966471884E+03  0.49990120331E+03 -0.28212065974E+03  0.10114650818E+04  0.65864270000E+03 0.  1.
    8880022    1    1    2    0    0 -0.50966471884E+03 -0.49990120331E+03  0.12078800539E+03  0.74002752244E+03  0.15294330000E+03 0.  0.
<mgrwt>
<rscale>  0 0.90441770E+03</rscale>
<asrwt>0</asrwt>
<pdfrwt beam="1">  1        2 0.12232000E+00 0.97132360E+03</pdfrwt>
<pdfrwt beam="2">  1       -2 0.14714040E+00 0.97132360E+03</pdfrwt>
<totfact> 0.10888851E+01</totfact>
</mgrwt>
</event>
<event>
 4    2  0.2930016E-007  0.7571286E+03  0.7818608E-02  0.9812599E-01
         -2   -1    0    0    0  501 -0.00000000000E+00  0.00000000000E+00  0.50394782197E+03  0.50394782198E+03  0.25500000000E-02 0.  1.
          2   -1    0    0  501    0  0.00000000000E+00 -0.00000000000E+00 -0.77156903919E+03  0.77156903920E+03  0.25500000000E-02 0. -1.
    8880023    1    1    2    0    0  0.37335104634E+03  0.65249300641E+01 -0.39289674876E+03  0.85300154745E+03  0.65864270000E+03 0. -1.
    8880022    1    1    2    0    0 -0.37335104634E+03 -0.65249300641E+01  0.12527553154E+03  0.42251531372E+03  0.15294330000E+03 0.  0.
<mgrwt>
<rscale>  0 0.64690792E+03</rscale>
<asrwt>0</asrwt>
<pdfrwt beam="1">  1        2 0.11870293E+00 0.75712864E+03</pdfrwt>
<pdfrwt beam="2">  1       -2 0.77530434E-01 0.75712864E+03</pdfrwt>
<totfact> 0.54276566E+01</totfact>
</mgrwt>
</event>
<event>
 4    2  0.2930016E-007  0.1044057E+04  0.7818608E-02  0.9326060E-01
         -2   -1    0    0    0  501 -0.00000000000E+00  0.00000000000E+00  0.56022697763E+03  0.56022697764E+03  0.25500000000E-02 0.  1.
          2   -1    0    0  501    0  0.00000000000E+00 -0.00000000000E+00 -0.29006263506E+04  0.29006263506E+04  0.25500000000E-02 0. -1.
    8880023    1    1    2    0    0 -0.26831377042E+03 -0.76436387053E+03 -0.24170429089E+04  0.26328978400E+04  0.65864270000E+03 0. -1.
    8880022    1    1    2    0    0  0.26831377042E+03  0.76436387053E+03  0.76643535924E+02  0.82795548828E+03  0.15294330000E+03 0.  0.
<mgrwt>
<rscale>  0 0.98418705E+03</rscale>
<asrwt>0</asrwt>
<pdfrwt beam="1">  1        2 0.44625020E+00 0.10440568E+04</pdfrwt>
<pdfrwt beam="2">  1       -2 0.86188767E-01 0.10440568E+04</pdfrwt>
<totfact> 0.23704113E+00</totfact>
</mgrwt>
</event>
<event>
 4    2  0.2930016E-007  0.7927557E+03  0.7818608E-02  0.9726684E-01
         -2   -1    0    0    0  501 -0.00000000000E+00  0.00000000000E+00  0.20278308392E+03  0.20278308394E+03  0.25500000000E-02 0.  1.
          2   -1    0    0  501    0  0.00000000000E+00 -0.00000000000E+00 -0.29599385771E+04  0.29599385771E+04  0.25500000000E-02 0. -1.
    8880023    1    1    2    0    0  0.43953348533E+03  0.38232478595E+02 -0.25144548265E+04  0.26364644294E+04  0.65864270000E+03 0.  0.
    8880022    1    1    2    0    0 -0.43953348533E+03 -0.38232478595E+02 -0.24270066670E+03  0.52625723157E+03  0.15294330000E+03 0.  0.
<mgrwt>
<rscale>  0 0.69450011E+03</rscale>
<asrwt>0</asrwt>
<pdfrwt beam="1">  1        2 0.45537513E+00 0.79275571E+03</pdfrwt>
<pdfrwt beam="2">  1       -2 0.31197400E-01 0.79275571E+03</pdfrwt>
<totfact> 0.18473752E+01</totfact>
</mgrwt>
</event>
<event>
 4    2  0.2930016E-007  0.8394137E+03  0.7818608E-02  0.9631287E-01
          2   -1    0    0  501    0  0.00000000000E+00  0.00000000000E+00  0.10991886575E+04  0.10991886575E+04  0.25500000000E-02 0. -1.
         -2   -1    0    0    0  501 -0.00000000000E+00 -0.00000000000E+00 -0.57221346064E+03  0.57221346065E+03  0.25500000000E-02 0.  1.
    8880023    1    1    2    0    0  0.46520979303E+03 -0.23320602716E+03  0.70952304824E+03  0.10991079860E+04  0.65864270000E+03 0.  0.
    8880022    1    1    2    0    0 -0.46520979303E+03  0.23320602716E+03 -0.18254785138E+03  0.57229413215E+03  0.15294330000E+03 0.  0.
<mgrwt>
<rscale>  0 0.75259582E+03</rscale>
<asrwt>0</asrwt>
<pdfrwt beam="1">  1        2 0.16910595E+00 0.83941373E+03</pdfrwt>
<pdfrwt beam="2">  1       -2 0.88032841E-01 0.83941373E+03</pdfrwt>
<totfact> 0.24463690E+01</totfact>
</mgrwt>
</event>
<event>
 4    2  0.2930016E-007  0.8846558E+03  0.7818608E-02  0.9551127E-01
         -2   -1    0    0    0  501 -0.00000000000E+00  0.00000000000E+00  0.43421752714E+03  0.43421752715E+03  0.25500000000E-02 0.  1.
          2   -1    0    0  501    0  0.00000000000E+00 -0.00000000000E+00 -0.18015798768E+04  0.18015798768E+04  0.25500000000E-02 0. -1.
    8880023    1    1    2    0    0  0.28680665928E+03 -0.51628250489E+03 -0.13639320168E+04  0.16257079803E+04  0.65864270000E+03 0.  0.
    8880022    1    1    2    0    0 -0.28680665928E+03  0.51628250489E+03 -0.34303329170E+01  0.61008942366E+03  0.15294330000E+03 0.  0.
<mgrwt>
<rscale>  0 0.80617144E+03</rscale>
<asrwt>0</asrwt>
<pdfrwt beam="1">  1        2 0.27716613E+00 0.88465580E+03</pdfrwt>
<pdfrwt beam="2">  1       -2 0.66802697E-01 0.88465580E+03</pdfrwt>
<totfact> 0.17953617E+01</totfact>
</mgrwt>
</event>
<event>
 4    2  0.2989029E-007  0.7584426E+03  0.7818608E-02  0.9809156E-01
          2   -1    0    0  501    0  0.00000000000E+00  0.00000000000E+00  0.16833571044E+04  0.16833571044E+04  0.25500000000E-02 0. -1.
         -2   -1    0    0    0  501 -0.00000000000E+00 -0.00000000000E+00 -0.80774869777E+03  0.80774869777E+03  0.25500000000E-02 0.  1.
    8880023    1    1    2    0    0  0.31497707367E+03  0.20546128467E+03  0.15376349502E+04  0.17145134420E+04  0.65864270000E+03 0.  0.
    8880022    1    1    2    0    0 -0.31497707367E+03 -0.20546128467E+03 -0.66202654359E+03  0.77659236017E+03  0.15294330000E+03 0.  1.
<mgrwt>
<rscale>  0 0.64873469E+03</rscale>
<asrwt>0</asrwt>
<pdfrwt beam="1">  1        2 0.25897801E+00 0.75844255E+03</pdfrwt>
<pdfrwt beam="2">  1       -2 0.12426903E+00 0.75844255E+03</pdfrwt>
<totfact> 0.50099802E+00</totfact>
</mgrwt>
</event>
<event>
 4    2  0.2930016E-007  0.7278067E+03  0.7818608E-02  0.9897005E-01
          2   -1    0    0  501    0  0.00000000000E+00  0.00000000000E+00  0.77055497763E+03  0.77055497764E+03  0.25500000000E-02 0. -1.
         -2   -1    0    0    0  501 -0.00000000000E+00 -0.00000000000E+00 -0.51934472726E+03  0.51934472727E+03  0.25500000000E-02 0.  1.
    8880023    1    1    2    0    0 -0.26905776593E+03  0.15329794381E+03  0.48341463547E+03  0.87372321535E+03  0.65864270000E+03 0. -1.
    8880022    1    1    2    0    0  0.26905776593E+03 -0.15329794381E+03 -0.23220438510E+03  0.41617648956E+03  0.15294330000E+03 0.  1.
<mgrwt>
<rscale>  0 0.60406656E+03</rscale>
<asrwt>0</asrwt>
<pdfrwt beam="1">  1        2 0.11854692E+00 0.72780667E+03</pdfrwt>
<pdfrwt beam="2">  1       -2 0.79899188E-01 0.72780667E+03</pdfrwt>
<totfact> 0.50941147E+01</totfact>
</mgrwt>
</event>
<event>
 4    2  0.2930016E-007  0.8566937E+03  0.7818608E-02  0.9599472E-01
         -2   -1    0    0    0  501 -0.00000000000E+00  0.00000000000E+00  0.80445928207E+03  0.80445928207E+03  0.25500000000E-02 0.  1.
          2   -1    0    0  501    0  0.00000000000E+00 -0.00000000000E+00 -0.10456419214E+04  0.10456419214E+04  0.25500000000E-02 0. -1.
    8880023    1    1    2    0    0  0.45576222736E+03 -0.30396481695E+03  0.43967339490E+03  0.96293131545E+03  0.65864270000E+03 0.  0.
    8880022    1    1    2    0    0 -0.45576222736E+03  0.30396481695E+03 -0.68085603420E+03  0.88716988799E+03  0.15294330000E+03 0.  0.
<mgrwt>
<rscale>  0 0.77331132E+03</rscale>
<asrwt>0</asrwt>
<pdfrwt beam="1">  1        2 0.16086799E+00 0.85669366E+03</pdfrwt>
<pdfrwt beam="2">  1       -2 0.12376297E+00 0.85669366E+03</pdfrwt>
<totfact> 0.11648197E+01</totfact>
</mgrwt>
</event>
<event>
 4    2  0.2930016E-007  0.9577191E+03  0.7818608E-02  0.9439094E-01
          2   -1    0    0  501    0  0.00000000000E+00  0.00000000000E+00  0.18385367456E+04  0.18385367457E+04  0.25500000000E-02 0. -1.
         -2   -1    0    0    0  501 -0.00000000000E+00 -0.00000000000E+00 -0.42365356924E+03  0.42365356924E+03  0.25500000000E-02 0.  1.
    8880023    1    1    2    0    0  0.61517475478E+03  0.32399941705E+03  0.11640382090E+04  0.15073854051E+04  0.65864270000E+03 0.  0.
    8880022    1    1    2    0    0 -0.61517475478E+03 -0.32399941705E+03  0.25084496738E+03  0.75480490979E+03  0.15294330000E+03 0.  0.
<mgrwt>
<rscale>  0 0.88927064E+03</rscale>
<asrwt>0</asrwt>
<pdfrwt beam="1">  1        2 0.28285180E+00 0.95771906E+03</pdfrwt>
<pdfrwt beam="2">  1       -2 0.65177473E-01 0.95771906E+03</pdfrwt>
<totfact> 0.17928853E+01</totfact>
</mgrwt>
</event>
<event>
 4    2  0.2930016E-007  0.1316475E+04  0.7818608E-02  0.9051462E-01
          2   -1    0    0  501    0  0.00000000000E+00  0.00000000000E+00  0.33244804875E+04  0.33244804875E+04  0.25500000000E-02 0. -1.
         -2   -1    0    0    0  501 -0.00000000000E+00 -0.00000000000E+00 -0.56045060824E+03  0.56045060824E+03  0.25500000000E-02 0.  1.
    8880023    1    1    2    0    0  0.11369296664E+04  0.81777286275E+02  0.22890699763E+04  0.26406340439E+04  0.65864270000E+03 0. -1.
    8880022    1    1    2    0    0 -0.11369296664E+04 -0.81777286275E+02  0.47495990293E+03  0.12442970519E+04  0.15294330000E+03 0.  0.
<mgrwt>
<rscale>  0 0.12727458E+04</rscale>
<asrwt>0</asrwt>
<pdfrwt beam="1">  1        2 0.51145853E+00 0.13164751E+04</pdfrwt>
<pdfrwt beam="2">  1       -2 0.86223171E-01 0.13164751E+04</pdfrwt>
<totfact> 0.12303346E+00</totfact>
</mgrwt>
</event>
<event>
 4    2  0.2930016E-007  0.7939872E+03  0.7818608E-02  0.9723951E-01
          2   -1    0    0  501    0  0.00000000000E+00  0.00000000000E+00  0.30349710330E+03  0.30349710331E+03  0.25500000000E-02 0. -1.
         -2   -1    0    0    0  501 -0.00000000000E+00 -0.00000000000E+00 -0.15224453661E+04  0.15224453661E+04  0.25500000000E-02 0.  1.
    8880023    1    1    2    0    0 -0.20970287951E+03 -0.39067914514E+03 -0.41682281295E+03  0.89674798900E+03  0.65864270000E+03 0.  0.
    8880022    1    1    2    0    0  0.20970287951E+03  0.39067914514E+03 -0.80212544983E+03  0.92919448040E+03  0.15294330000E+03 0. -1.
<mgrwt>
<rscale>  0 0.69608498E+03</rscale>
<asrwt>0</asrwt>
<pdfrwt beam="1">  1        2 0.46691863E-01 0.79398722E+03</pdfrwt>
<pdfrwt beam="2">  1       -2 0.23422236E+00 0.79398722E+03</pdfrwt>
<totfact> 0.88876866E+00</totfact>
</mgrwt>
</event>
<event>
 4    2  0.2930016E-007  0.7362764E+03  0.7818608E-02  0.9870929E-01
         -2   -1    0    0    0  501 -0.00000000000E+00  0.00000000000E+00  0.15225860434E+03  0.15225860436E+03  0.25500000000E-02 0.  1.
          2   -1    0    0  501    0  0.00000000000E+00 -0.00000000000E+00 -0.35424343742E+04  0.35424343742E+04  0.25500000000E-02 0. -1.
    8880023    1    1    2    0    0  0.31877348378E+03 -0.81708327563E+02 -0.32027003032E+04  0.32862428735E+04  0.65864270000E+03 0.  0.
    8880022    1    1    2    0    0 -0.31877348378E+03  0.81708327563E+02 -0.18747546663E+03  0.40845010510E+03  0.15294330000E+03 0.  0.
<mgrwt>
<rscale>  0 0.61691096E+03</rscale>
<asrwt>0</asrwt>
<pdfrwt beam="1">  1        2 0.54498984E+00 0.73627644E+03</pdfrwt>
<pdfrwt beam="2">  1       -2 0.23424403E-01 0.73627644E+03</pdfrwt>
<totfact> 0.13246571E+01</totfact>
</mgrwt>
</event>
<event>
 4    2  0.2930016E-007  0.6656489E+03  0.7818608E-02  0.1018995E+00
          2   -1    0    0  501    0  0.00000000000E+00  0.00000000000E+00  0.20312469614E+04  0.20312469614E+04  0.25500000000E-02 0. -1.
         -2   -1    0    0    0  501 -0.00000000000E+00 -0.00000000000E+00 -0.17865977931E+03  0.17865977933E+03  0.25500000000E-02 0.  1.
    8880023    1    1    2    0    0 -0.65333462091E+02  0.70779693271E+02  0.19080606998E+04  0.20208374666E+04  0.65864270000E+03 0. -1.
    8880022    1    1    2    0    0  0.65333462091E+02 -0.70779693271E+02 -0.55473517645E+02  0.18906927414E+03  0.15294330000E+03 0.  0.
<mgrwt>
<rscale>  0 0.48050991E+03</rscale>
<asrwt>0</asrwt>
<pdfrwt beam="1">  1        2 0.31249953E+00 0.66564888E+03</pdfrwt>
<pdfrwt beam="2">  1       -2 0.27486120E-01 0.66564888E+03</pdfrwt>
<totfact> 0.80343162E+01</totfact>
</mgrwt>
</event>
<event>
 4    2  0.2930016E-007  0.9533122E+03  0.7818608E-02  0.9445365E-01
          2   -1    0    0  501    0  0.00000000000E+00  0.00000000000E+00  0.46587876954E+04  0.46587876954E+04  0.25500000000E-02 0. -1.
         -2   -1    0    0    0  501 -0.00000000000E+00 -0.00000000000E+00 -0.33356995597E+03  0.33356995598E+03  0.25500000000E-02 0.  1.
    8880023    1    1    2    0    0 -0.14580746090E+03  0.67359783959E+03  0.41593092235E+04  0.42671603308E+04  0.65864270000E+03 0.  0.
    8880022    1    1    2    0    0  0.14580746090E+03 -0.67359783959E+03  0.16590851587E+03  0.72519732060E+03  0.15294330000E+03 0.  0.
<mgrwt>
<rscale>  0 0.88434561E+03</rscale>
<asrwt>0</asrwt>
<pdfrwt beam="1">  1        2 0.71673658E+00 0.95331216E+03</pdfrwt>
<pdfrwt beam="2">  1       -2 0.51318454E-01 0.95331216E+03</pdfrwt>
<totfact> 0.33376855E-01</totfact>
</mgrwt>
</event>
<event>
 4    2  0.2930016E-007  0.7220779E+03  0.7818608E-02  0.9915617E-01
          2   -1    0    0  501    0  0.00000000000E+00  0.00000000000E+00  0.33127014295E+03  0.33127014296E+03  0.25500000000E-02 0. -1.
         -2   -1    0    0    0  501 -0.00000000000E+00 -0.00000000000E+00 -0.11272284143E+04  0.11272284143E+04  0.25500000000E-02 0.  1.
    8880023    1    1    2    0    0 -0.92003602466E+02  0.28128576281E+03 -0.15854141948E+03  0.73927797964E+03  0.65864270000E+03 0. -1.
    8880022    1    1    2    0    0  0.92003602466E+02 -0.28128576281E+03 -0.63741685184E+03  0.71922057761E+03  0.15294330000E+03 0.  0.
<mgrwt>
<rscale>  0 0.59510372E+03</rscale>
<asrwt>0</asrwt>
<pdfrwt beam="1">  1        2 0.50964638E-01 0.72207794E+03</pdfrwt>
<pdfrwt beam="2">  1       -2 0.17341975E+00 0.72207794E+03</pdfrwt>
<totfact> 0.20141200E+01</totfact>
</mgrwt>
</event>
<event>
 4    2  0.2930016E-007  0.7353579E+03  0.7818608E-02  0.9873681E-01
         -2   -1    0    0    0  501 -0.00000000000E+00  0.00000000000E+00  0.52627318903E+03  0.52627318903E+03  0.25500000000E-02 0.  1.
          2   -1    0    0  501    0  0.00000000000E+00 -0.00000000000E+00 -0.18196086791E+04  0.18196086791E+04  0.25500000000E-02 0. -1.
    8880023    1    1    2    0    0 -0.86538437558E+00 -0.32701734830E+03 -0.16696409366E+04  0.18244046038E+04  0.65864270000E+03 0. -1.
    8880022    1    1    2    0    0  0.86538437558E+00  0.32701734830E+03  0.37630544660E+03  0.52147726426E+03  0.15294330000E+03 0.  0.
<mgrwt>
<rscale>  0 0.61553930E+03</rscale>
<asrwt>0</asrwt>
<pdfrwt beam="1">  1        2 0.27993979E+00 0.73535794E+03</pdfrwt>
<pdfrwt beam="2">  1       -2 0.80965107E-01 0.73535794E+03</pdfrwt>
<totfact> 0.11697990E+01</totfact>
</mgrwt>
</event>
<event>
 4    2  0.2930016E-007  0.7068462E+03  0.7818608E-02  0.9969904E-01
         -2   -1    0    0    0  501 -0.00000000000E+00  0.00000000000E+00  0.12336812186E+03  0.12336812189E+03  0.25500000000E-02 0.  1.
          2   -1    0    0  501    0  0.00000000000E+00 -0.00000000000E+00 -0.23330551600E+04  0.23330551600E+04  0.25500000000E-02 0. -1.
    8880023    1    1    2    0    0  0.58371357942E+02 -0.24982812699E+03 -0.18950886476E+04  0.20226202058E+04  0.65864270000E+03 0.  0.
    8880022    1    1    2    0    0 -0.58371357942E+02  0.24982812699E+03 -0.31459839056E+03  0.43380307608E+03  0.15294330000E+03 0.  0.
<mgrwt>
<rscale>  0 0.56989806E+03</rscale>
<asrwt>0</asrwt>
<pdfrwt beam="1">  1        2 0.35893153E+00 0.70684617E+03</pdfrwt>
<pdfrwt beam="2">  1       -2 0.18979713E-01 0.70684617E+03</pdfrwt>
<totfact> 0.10547907E+02</totfact>
</mgrwt>
</event>
<event>
 4    2  0.2930016E-007  0.7306481E+03  0.7818608E-02  0.9888077E-01
          2   -1    0    0  501    0  0.00000000000E+00  0.00000000000E+00  0.23082811970E+04  0.23082811970E+04  0.25500000000E-02 0. -1.
         -2   -1    0    0    0  501 -0.00000000000E+00 -0.00000000000E+00 -0.17997863628E+03  0.17997863630E+03  0.25500000000E-02 0.  1.
    8880023    1    1    2    0    0  0.64205853469E+02  0.30969990306E+03  0.19733718838E+04  0.21042916194E+04  0.65864270000E+03 0.  0.
    8880022    1    1    2    0    0 -0.64205853469E+02 -0.30969990306E+03  0.15493067687E+03  0.38396821382E+03  0.15294330000E+03 0.  0.
<mgrwt>
<rscale>  0 0.60842624E+03</rscale>
<asrwt>0</asrwt>
<pdfrwt beam="1">  1        2 0.35512015E+00 0.73064809E+03</pdfrwt>
<pdfrwt beam="2">  1       -2 0.27689024E-01 0.73064809E+03</pdfrwt>
<totfact> 0.55379306E+01</totfact>
</mgrwt>
</event>
<event>
 4    2  0.2930016E-007  0.7439284E+03  0.7818608E-02  0.9848648E-01
         -2   -1    0    0    0  501 -0.00000000000E+00  0.00000000000E+00  0.22816880647E+03  0.22816880648E+03  0.25500000000E-02 0.  1.
          2   -1    0    0  501    0  0.00000000000E+00 -0.00000000000E+00 -0.17073898760E+04  0.17073898760E+04  0.25500000000E-02 0. -1.
    8880023    1    1    2    0    0  0.29839645583E+03  0.17486783957E+03 -0.13398556946E+04  0.15325282036E+04  0.65864270000E+03 0. -1.
    8880022    1    1    2    0    0 -0.29839645583E+03 -0.17486783957E+03 -0.13936537492E+03  0.40303047889E+03  0.15294330000E+03 0.  0.
<mgrwt>
<rscale>  0 0.62815883E+03</rscale>
<asrwt>0</asrwt>
<pdfrwt beam="1">  1        2 0.26267536E+00 0.74392837E+03</pdfrwt>
<pdfrwt beam="2">  1       -2 0.35102894E-01 0.74392837E+03</pdfrwt>
<totfact> 0.75723410E+01</totfact>
</mgrwt>
</event>
<event>
 4    2  0.2930016E-007  0.6986359E+03  0.7818608E-02  0.1000291E+00
         -2   -1    0    0    0  501 -0.00000000000E+00  0.00000000000E+00  0.50668308815E+03  0.50668308816E+03  0.25500000000E-02 0.  1.
          2   -1    0    0  501    0  0.00000000000E+00 -0.00000000000E+00 -0.53632773338E+03  0.53632773338E+03  0.25500000000E-02 0. -1.
    8880023    1    1    2    0    0 -0.18933776326E+03 -0.13576840832E+03 -0.18663681195E+03  0.72313577918E+03  0.65864270000E+03 0. -1.
    8880022    1    1    2    0    0  0.18933776326E+03  0.13576840832E+03  0.15699216673E+03  0.31987504236E+03  0.15294330000E+03 0.  0.
<mgrwt>
<rscale>  0 0.55522916E+03</rscale>
<asrwt>0</asrwt>
<pdfrwt beam="1">  1        2 0.82511959E-01 0.69863585E+03</pdfrwt>
<pdfrwt beam="2">  1       -2 0.77951244E-01 0.69863585E+03</pdfrwt>
<totfact> 0.84308259E+01</totfact>
</mgrwt>
</event>
<event>
 4    2  0.2930016E-007  0.6637164E+03  0.7818608E-02  0.1020635E+00
         -2   -1    0    0    0  501 -0.00000000000E+00  0.00000000000E+00  0.19511235873E+03  0.19511235875E+03  0.25500000000E-02 0.  1.
          2   -1    0    0  501    0  0.00000000000E+00 -0.00000000000E+00 -0.29319897451E+04  0.29319897451E+04  0.25500000000E-02 0. -1.
    8880023    1    1    2    0    0 -0.71171597720E+02 -0.40544371199E+02 -0.28458498594E+04  0.29222219065E+04  0.65864270000E+03 0. -1.
    8880022    1    1    2    0    0  0.71171597720E+02  0.40544371199E+02  0.10897247305E+03  0.20488019732E+03  0.15294330000E+03 0.  0.
<mgrwt>
<rscale>  0 0.47457989E+03</rscale>
<asrwt>0</asrwt>
<pdfrwt beam="1">  1        2 0.45107531E+00 0.66371639E+03</pdfrwt>
<pdfrwt beam="2">  1       -2 0.30017288E-01 0.66371639E+03</pdfrwt>
<totfact> 0.21093802E+01</totfact>
</mgrwt>
</event>
<event>
 4    2  0.2930016E-007  0.7283657E+03  0.7818608E-02  0.9895233E-01
         -2   -1    0    0    0  501 -0.00000000000E+00  0.00000000000E+00  0.63788626460E+03  0.63788626461E+03  0.25500000000E-02 0.  1.
          2   -1    0    0  501    0  0.00000000000E+00 -0.00000000000E+00 -0.15082543479E+04  0.15082543479E+04  0.25500000000E-02 0. -1.
    8880023    1    1    2    0    0  0.23533498920E+03  0.20328262641E+03 -0.13620685579E+04  0.15445864644E+04  0.65864270000E+03 0. -1.
    8880022    1    1    2    0    0 -0.23533498920E+03 -0.20328262641E+03  0.49170047461E+03  0.60155414810E+03  0.15294330000E+03 0.  0.
<mgrwt>
<rscale>  0 0.60492858E+03</rscale>
<asrwt>0</asrwt>
<pdfrwt beam="1">  1        2 0.23203913E+00 0.72836570E+03</pdfrwt>
<pdfrwt beam="2">  1       -2 0.98136349E-01 0.72836570E+03</pdfrwt>
<totfact> 0.11145483E+01</totfact>
</mgrwt>
</event>
<event>
 4    2  0.2930016E-007  0.7621563E+03  0.7818608E-02  0.9799557E-01
         -2   -1    0    0    0  501 -0.00000000000E+00  0.00000000000E+00  0.21851613788E+04  0.21851613788E+04  0.25500000000E-02 0.  1.
          2   -1    0    0  501    0  0.00000000000E+00 -0.00000000000E+00 -0.69921930407E+03  0.69921930408E+03  0.25500000000E-02 0. -1.
    8880023    1    1    2    0    0 -0.20664105210E+03  0.32306586095E+03 -0.46327881580E+03  0.89191341640E+03  0.65864270000E+03 0. -1.
    8880022    1    1    2    0    0  0.20664105210E+03 -0.32306586095E+03  0.19492208905E+04  0.19924672664E+04  0.15294330000E+03 0.  0.
<mgrwt>
<rscale>  0 0.65386343E+03</rscale>
<asrwt>0</asrwt>
<pdfrwt beam="1">  1        2 0.10757220E+00 0.76215634E+03</pdfrwt>
<pdfrwt beam="2">  1       -2 0.33617867E+00 0.76215634E+03</pdfrwt>
<totfact> 0.81846102E-01</totfact>
</mgrwt>
</event>
<event>
 4    2  0.2930016E-007  0.8419299E+03  0.7818608E-02  0.9626552E-01
          2   -1    0    0  501    0  0.00000000000E+00  0.00000000000E+00  0.20599919014E+04  0.20599919014E+04  0.25500000000E-02 0. -1.
         -2   -1    0    0    0  501 -0.00000000000E+00 -0.00000000000E+00 -0.28376461242E+03  0.28376461243E+03  0.25500000000E-02 0.  1.
    8880023    1    1    2    0    0  0.51402722907E+03 -0.10397983952E+03  0.15260886270E+04  0.17429264193E+04  0.65864270000E+03 0.  0.
    8880022    1    1    2    0    0 -0.51402722907E+03  0.10397983952E+03  0.25013866191E+03  0.60083009449E+03  0.15294330000E+03 0.  0.
<mgrwt>
<rscale>  0 0.75563455E+03</rscale>
<asrwt>0</asrwt>
<pdfrwt beam="1">  1        2 0.31692184E+00 0.84192993E+03</pdfrwt>
<pdfrwt beam="2">  1       -2 0.43656093E-01 0.84192993E+03</pdfrwt>
<totfact> 0.31451526E+01</totfact>
</mgrwt>
</event>
<event>
 4    2  0.2930016E-007  0.1008671E+04  0.7818608E-02  0.9370300E-01
         -2   -1    0    0    0  501 -0.00000000000E+00  0.00000000000E+00  0.91394359375E+03  0.91394359376E+03  0.25500000000E-02 0.  1.
          2   -1    0    0  501    0  0.00000000000E+00 -0.00000000000E+00 -0.12361925353E+04  0.12361925353E+04  0.25500000000E-02 0. -1.
    8880023    1    1    2    0    0 -0.75760280073E+03 -0.98208147040E+02 -0.75405866103E+03  0.12593734610E+04  0.65864270000E+03 0.  0.
    8880022    1    1    2    0    0  0.75760280073E+03  0.98208147040E+02  0.43180971951E+03  0.89076266800E+03  0.15294330000E+03 0.  0.
<mgrwt>
<rscale>  0 0.94560679E+03</rscale>
<asrwt>0</asrwt>
<pdfrwt beam="1">  1        2 0.19018347E+00 0.10086709E+04</pdfrwt>
<pdfrwt beam="2">  1       -2 0.14060671E+00 0.10086709E+04</pdfrwt>
<totfact> 0.63424581E+00</totfact>
</mgrwt>
</event>
<event>
 4    2  0.2930016E-007  0.1340866E+04  0.7818608E-02  0.9031049E-01
         -2   -1    0    0    0  501 -0.00000000000E+00  0.00000000000E+00  0.20211174403E+04  0.20211174403E+04  0.25500000000E-02 0.  1.
          2   -1    0    0  501    0  0.00000000000E+00 -0.00000000000E+00 -0.20078927837E+04  0.20078927837E+04  0.25500000000E-02 0. -1.
    8880023    1    1    2    0    0  0.11539585639E+04  0.18025514558E+03 -0.15642375778E+04  0.20602819445E+04  0.65864270000E+03 0.  0.
    8880022    1    1    2    0    0 -0.11539585639E+04 -0.18025514558E+03  0.15774622343E+04  0.19687282795E+04  0.15294330000E+03 0.  0.
<mgrwt>
<rscale>  0 0.12981306E+04</rscale>
<asrwt>0</asrwt>
<pdfrwt beam="1">  1        2 0.30890658E+00 0.13408663E+04</pdfrwt>
<pdfrwt beam="2">  1       -2 0.31094114E+00 0.13408663E+04</pdfrwt>
<totfact> 0.17252747E-01</totfact>
</mgrwt>
</event>
<event>
 4    2  0.2930016E-007  0.6688656E+03  0.7818608E-02  0.1016489E+00
         -2   -1    0    0    0  501 -0.00000000000E+00  0.00000000000E+00  0.43876581575E+03  0.43876581575E+03  0.25500000000E-02 0.  1.
          2   -1    0    0  501    0  0.00000000000E+00 -0.00000000000E+00 -0.78175973816E+03  0.78175973817E+03  0.25500000000E-02 0. -1.
    8880023    1    1    2    0    0  0.95490831382E+02  0.66726673100E+02 -0.60069605899E+03  0.89900884830E+03  0.65864270000E+03 0. -1.
    8880022    1    1    2    0    0 -0.95490831382E+02 -0.66726673100E+02  0.25770213657E+03  0.32151670562E+03  0.15294330000E+03 0.  0.
<mgrwt>
<rscale>  0 0.48975000E+03</rscale>
<asrwt>0</asrwt>
<pdfrwt beam="1">  1        2 0.12027073E+00 0.66886557E+03</pdfrwt>
<pdfrwt beam="2">  1       -2 0.67502433E-01 0.66886557E+03</pdfrwt>
<totfact> 0.72831040E+01</totfact>
</mgrwt>
</event>
<event>
 4    2  0.2930016E-007  0.1042472E+04  0.7818608E-02  0.9327986E-01
          2   -1    0    0  501    0  0.00000000000E+00  0.00000000000E+00  0.38272250199E+04  0.38272250199E+04  0.25500000000E-02 0. -1.
         -2   -1    0    0    0  501 -0.00000000000E+00 -0.00000000000E+00 -0.29722187068E+03  0.29722187069E+03  0.25500000000E-02 0.  1.
    8880023    1    1    2    0    0 -0.80803058115E+03 -0.48735785514E+01  0.29200268168E+04  0.31005328556E+04  0.65864270000E+03 0.  0.
    8880022    1    1    2    0    0  0.80803058115E+03  0.48735785514E+01  0.60997633244E+03  0.10239140350E+04  0.15294330000E+03 0.  0.
<mgrwt>
<rscale>  0 0.98246698E+03</rscale>
<asrwt>0</asrwt>
<pdfrwt beam="1">  1        2 0.58880385E+00 0.10424718E+04</pdfrwt>
<pdfrwt beam="2">  1       -2 0.45726442E-01 0.10424718E+04</pdfrwt>
<totfact> 0.22098414E+00</totfact>
</mgrwt>
</event>
<event>
 4    2  0.2930016E-007  0.7384954E+03  0.7818608E-02  0.9864352E-01
          2   -1    0    0  501    0  0.00000000000E+00  0.00000000000E+00  0.11484271548E+04  0.11484271548E+04  0.25500000000E-02 0. -1.
         -2   -1    0    0    0  501 -0.00000000000E+00 -0.00000000000E+00 -0.56849358623E+03  0.56849358623E+03  0.25500000000E-02 0.  1.
    8880023    1    1    2    0    0  0.66600408094E+01 -0.33394738548E+03  0.94478415234E+03  0.11991632554E+04  0.65864270000E+03 0.  0.
    8880022    1    1    2    0    0 -0.66600408094E+01  0.33394738548E+03 -0.36485058376E+03  0.51775748560E+03  0.15294330000E+03 0.  0.
<mgrwt>
<rscale>  0 0.62020492E+03</rscale>
<asrwt>0</asrwt>
<pdfrwt beam="1">  1        2 0.17668110E+00 0.73849537E+03</pdfrwt>
<pdfrwt beam="2">  1       -2 0.87460553E-01 0.73849537E+03</pdfrwt>
<totfact> 0.23415388E+01</totfact>
</mgrwt>
</event>
<event>
 4    2  0.2930016E-007  0.1062878E+04  0.7818608E-02  0.9303558E-01
          2   -1    0    0  501    0  0.00000000000E+00  0.00000000000E+00  0.85815748481E+03  0.85815748482E+03  0.25500000000E-02 0. -1.
         -2   -1    0    0    0  501 -0.00000000000E+00 -0.00000000000E+00 -0.12497452866E+04  0.12497452866E+04  0.25500000000E-02 0.  1.
    8880023    1    1    2    0    0  0.76932182357E+03 -0.32255912376E+03  0.18974332091E+03  0.10796819859E+04  0.65864270000E+03 0. -1.
    8880022    1    1    2    0    0 -0.76932182357E+03  0.32255912376E+03 -0.58133112267E+03  0.10282207855E+04  0.15294330000E+03 0.  0.
<mgrwt>
<rscale>  0 0.10045600E+04</rscale>
<asrwt>0</asrwt>
<pdfrwt beam="1">  1        2 0.13202423E+00 0.10628785E+04</pdfrwt>
<pdfrwt beam="2">  1       -2 0.19226850E+00 0.10628785E+04</pdfrwt>
<totfact> 0.46235093E+00</totfact>
</mgrwt>
</event>
<event>
 4    2  0.2930016E-007  0.7074491E+03  0.7818608E-02  0.9967598E-01
         -2   -1    0    0    0  501 -0.00000000000E+00  0.00000000000E+00  0.63475502179E+03  0.63475502180E+03  0.25500000000E-02 0.  1.
          2   -1    0    0  501    0  0.00000000000E+00 -0.00000000000E+00 -0.74627197487E+03  0.74627197487E+03  0.25500000000E-02 0. -1.
    8880023    1    1    2    0    0 -0.25446038954E+03  0.43861954946E+02 -0.51724256015E+03  0.87636980392E+03  0.65864270000E+03 0.  0.
    8880022    1    1    2    0    0  0.25446038954E+03 -0.43861954946E+02  0.40572560708E+03  0.50465719275E+03  0.15294330000E+03 0.  1.
<mgrwt>
<rscale>  0 0.57094103E+03</rscale>
<asrwt>0</asrwt>
<pdfrwt beam="1">  1        2 0.11481107E+00 0.70744906E+03</pdfrwt>
<pdfrwt beam="2">  1       -2 0.97654618E-01 0.70744906E+03</pdfrwt>
<totfact> 0.33547771E+01</totfact>
</mgrwt>
</event>
<event>
 4    2  0.2930016E-007  0.7973420E+03  0.7818608E-02  0.9716573E-01
          2   -1    0    0  501    0  0.00000000000E+00  0.00000000000E+00  0.17345875895E+04  0.17345875896E+04  0.25500000000E-02 0. -1.
         -2   -1    0    0    0  501 -0.00000000000E+00 -0.00000000000E+00 -0.37874123794E+03  0.37874123795E+03  0.25500000000E-02 0.  1.
    8880023    1    1    2    0    0 -0.39493344659E+03  0.21441010972E+03  0.14257050701E+04  0.16335205158E+04  0.65864270000E+03 0. -1.
    8880022    1    1    2    0    0  0.39493344659E+03 -0.21441010972E+03 -0.69858718523E+02  0.47980831167E+03  0.15294330000E+03 0.  0.
<mgrwt>
<rscale>  0 0.70038569E+03</rscale>
<asrwt>0</asrwt>
<pdfrwt beam="1">  1        2 0.26685962E+00 0.79734204E+03</pdfrwt>
<pdfrwt beam="2">  1       -2 0.58267884E-01 0.79734204E+03</pdfrwt>
<totfact> 0.26415112E+01</totfact>
</mgrwt>
</event>
<event>
 4    2  0.2930016E-007  0.7769239E+03  0.7818608E-02  0.9763113E-01
         -2   -1    0    0    0  501 -0.00000000000E+00  0.00000000000E+00  0.76211390611E+03  0.76211390611E+03  0.25500000000E-02 0.  1.
          2   -1    0    0  501    0  0.00000000000E+00 -0.00000000000E+00 -0.74518579200E+03  0.74518579201E+03  0.25500000000E-02 0. -1.
    8880023    1    1    2    0    0  0.41032350462E+03 -0.37882713991E+02 -0.42368428307E+03  0.88494014286E+03  0.65864270000E+03 0.  0.
    8880022    1    1    2    0    0 -0.41032350462E+03  0.37882713991E+02  0.44061239718E+03  0.62235955526E+03  0.15294330000E+03 0.  0.
<mgrwt>
<rscale>  0 0.67380235E+03</rscale>
<asrwt>0</asrwt>
<pdfrwt beam="1">  1        2 0.11464397E+00 0.77692386E+03</pdfrwt>
<pdfrwt beam="2">  1       -2 0.11724829E+00 0.77692386E+03</pdfrwt>
<totfact> 0.21510854E+01</totfact>
</mgrwt>
</event>
<event>
 4    2  0.2930016E-007  0.9183810E+03  0.7818608E-02  0.9497146E-01
          2   -1    0    0  501    0  0.00000000000E+00  0.00000000000E+00  0.32532572810E+04  0.32532572810E+04  0.25500000000E-02 0. -1.
         -2   -1    0    0    0  501 -0.00000000000E+00 -0.00000000000E+00 -0.34047347390E+03  0.34047347391E+03  0.25500000000E-02 0.  1.
    8880023    1    1    2    0    0 -0.83546396103E+02 -0.63453402552E+03  0.27728578288E+04  0.29209868495E+04  0.65864270000E+03 0. -1.
    8880022    1    1    2    0    0  0.83546396103E+02  0.63453402552E+03  0.13992597828E+03  0.67274390541E+03  0.15294330000E+03 0.  0.
<mgrwt>
<rscale>  0 0.84494567E+03</rscale>
<asrwt>0</asrwt>
<pdfrwt beam="1">  1        2 0.50050111E+00 0.91838099E+03</pdfrwt>
<pdfrwt beam="2">  1       -2 0.52380535E-01 0.91838099E+03</pdfrwt>
<totfact> 0.42921195E+00</totfact>
</mgrwt>
</event>
<event>
 4    2  0.2930016E-007  0.6671993E+03  0.7818608E-02  0.1017755E+00
          2   -1    0    0  501    0  0.00000000000E+00  0.00000000000E+00  0.18025262808E+04  0.18025262808E+04  0.25500000000E-02 0. -1.
         -2   -1    0    0    0  501 -0.00000000000E+00 -0.00000000000E+00 -0.19048228734E+03  0.19048228736E+03  0.25500000000E-02 0.  1.
    8880023    1    1    2    0    0 -0.17990073151E+02  0.10498144868E+03  0.16695758124E+04  0.17979539335E+04  0.65864270000E+03 0. -1.
    8880022    1    1    2    0    0  0.17990073151E+02 -0.10498144868E+03 -0.57531818948E+02  0.19505463467E+03  0.15294330000E+03 0.  0.
<mgrwt>
<rscale>  0 0.48505368E+03</rscale>
<asrwt>0</asrwt>
<pdfrwt beam="1">  1        2 0.27731173E+00 0.66719934E+03</pdfrwt>
<pdfrwt beam="2">  1       -2 0.29304968E-01 0.66719934E+03</pdfrwt>
<totfact> 0.95058356E+01</totfact>
</mgrwt>
</event>
<event>
 4    2  0.2930016E-007  0.6596240E+03  0.7818608E-02  0.1024545E+00
         -2   -1    0    0    0  501 -0.00000000000E+00  0.00000000000E+00  0.66466947091E+03  0.66466947092E+03  0.25500000000E-02 0.  1.
          2   -1    0    0  501    0  0.00000000000E+00 -0.00000000000E+00 -0.64632873994E+03  0.64632873995E+03  0.25500000000E-02 0. -1.
    8880023    1    1    2    0    0  0.33617324292E+02  0.12787895062E+02 -0.46219024391E+03  0.80543384742E+03  0.65864270000E+03 0. -1.
    8880022    1    1    2    0    0 -0.33617324292E+02 -0.12787895062E+02  0.48053097487E+03  0.50556436344E+03  0.15294330000E+03 0.  0.
<mgrwt>
<rscale>  0 0.46081560E+03</rscale>
<asrwt>0</asrwt>
<pdfrwt beam="1">  1        2 0.99435191E-01 0.65962403E+03</pdfrwt>
<pdfrwt beam="2">  1       -2 0.10225684E+00 0.65962403E+03</pdfrwt>
<totfact> 0.36195890E+01</totfact>
</mgrwt>
</event>
<event>
 4    2  0.2930016E-007  0.6860687E+03  0.7818608E-02  0.1006080E+00
         -2   -1    0    0    0  501 -0.00000000000E+00  0.00000000000E+00  0.15922650810E+03  0.15922650812E+03  0.25500000000E-02 0.  1.
          2   -1    0    0  501    0  0.00000000000E+00 -0.00000000000E+00 -0.15620181257E+04  0.15620181257E+04  0.25500000000E-02 0. -1.
    8880023    1    1    2    0    0 -0.14565173827E+03  0.12516224448E+03 -0.12666552752E+04  0.14405227554E+04  0.65864270000E+03 0.  0.
    8880022    1    1    2    0    0  0.14565173827E+03 -0.12516224448E+03 -0.13613634240E+03  0.28072187845E+03  0.15294330000E+03 0.  0.
<mgrwt>
<rscale>  0 0.53062761E+03</rscale>
<asrwt>0</asrwt>
<pdfrwt beam="1">  1        2 0.24031047E+00 0.68606867E+03</pdfrwt>
<pdfrwt beam="2">  1       -2 0.24496387E-01 0.68606867E+03</pdfrwt>
<totfact> 0.17794440E+02</totfact>
</mgrwt>
</event>
<event>
 4    2  0.2930016E-007  0.6973825E+03  0.7818608E-02  0.1000824E+00
         -2   -1    0    0    0  501 -0.00000000000E+00  0.00000000000E+00  0.36888186011E+03  0.36888186011E+03  0.25500000000E-02 0.  1.
          2   -1    0    0  501    0  0.00000000000E+00 -0.00000000000E+00 -0.15774226222E+04  0.15774226222E+04  0.25500000000E-02 0. -1.
    8880023    1    1    2    0    0 -0.65134390875E+02  0.21974904981E+03 -0.14311848608E+04  0.15920529030E+04  0.65864270000E+03 0. -1.
    8880022    1    1    2    0    0  0.65134390875E+02 -0.21974904981E+03  0.22264409872E+03  0.35425157935E+03  0.15294330000E+03 0.  0.
<mgrwt>
<rscale>  0 0.55290499E+03</rscale>
<asrwt>0</asrwt>
<pdfrwt beam="1">  1        2 0.24268040E+00 0.69738249E+03</pdfrwt>
<pdfrwt beam="2">  1       -2 0.56751056E-01 0.69738249E+03</pdfrwt>
<totfact> 0.34459267E+01</totfact>
</mgrwt>
</event>
<event>
 4    2  0.2930016E-007  0.1074255E+04  0.7818608E-02  0.9290276E-01
          2   -1    0    0  501    0  0.00000000000E+00  0.00000000000E+00  0.10011634380E+04  0.10011634381E+04  0.25500000000E-02 0. -1.
         -2   -1    0    0    0  501 -0.00000000000E+00 -0.00000000000E+00 -0.18701530614E+04  0.18701530614E+04  0.25500000000E-02 0.  1.
    8880023    1    1    2    0    0  0.61003195757E+03  0.58997918259E+03  0.55304053827E+03  0.12082543062E+04  0.65864270000E+03 0.  0.
    8880022    1    1    2    0    0 -0.61003195757E+03 -0.58997918259E+03 -0.14220301617E+04  0.16630621933E+04  0.15294330000E+03 0.  0.
<mgrwt>
<rscale>  0 0.10168304E+04</rscale>
<asrwt>0</asrwt>
<pdfrwt beam="1">  1        2 0.15402514E+00 0.10742554E+04</pdfrwt>
<pdfrwt beam="2">  1       -2 0.28771585E+00 0.10742554E+04</pdfrwt>
<totfact> 0.94257600E-01</totfact>
</mgrwt>
</event>
<event>
 4    2  0.2930016E-007  0.8763196E+03  0.7818608E-02  0.9565168E-01
         -2   -1    0    0    0  501 -0.00000000000E+00  0.00000000000E+00  0.80466706848E+03  0.80466706849E+03  0.25500000000E-02 0.  1.
          2   -1    0    0  501    0  0.00000000000E+00 -0.00000000000E+00 -0.14653175201E+04  0.14653175201E+04  0.25500000000E-02 0. -1.
    8880023    1    1    2    0    0  0.50698889180E+03 -0.27764730750E+03 -0.11856052337E+04  0.14743119549E+04  0.65864270000E+03 0.  0.
    8880022    1    1    2    0    0 -0.50698889180E+03  0.27764730750E+03  0.52495478211E+03  0.79567263372E+03  0.15294330000E+03 0.  0.
<mgrwt>
<rscale>  0 0.79645094E+03</rscale>
<asrwt>0</asrwt>
<pdfrwt beam="1">  1        2 0.22543346E+00 0.87631956E+03</pdfrwt>
<pdfrwt beam="2">  1       -2 0.12379493E+00 0.87631956E+03</pdfrwt>
<totfact> 0.65743593E+00</totfact>
</mgrwt>
</event>
<event>
 4    2  0.4179878E-007  0.7177276E+03  0.7818608E-02  0.9930351E-01
          2   -1    0    0  501    0  0.00000000000E+00  0.00000000000E+00  0.22080319385E+04  0.22080319385E+04  0.25500000000E-02 0. -1.
         -2   -1    0    0    0  501 -0.00000000000E+00 -0.00000000000E+00 -0.70918851484E+03  0.70918851484E+03  0.25500000000E-02 0.  1.
    8880023    1    1    2    0    0  0.11730517993E+03 -0.25992718835E+03  0.21083346698E+04  0.22271524273E+04  0.65864270000E+03 0. -1.
    8880022    1    1    2    0    0 -0.11730517993E+03  0.25992718835E+03 -0.60949124610E+03  0.69006802604E+03  0.15294330000E+03 0.  0.
<mgrwt>
<rscale>  0 0.58812612E+03</rscale>
<asrwt>0</asrwt>
<pdfrwt beam="1">  1        2 0.33969722E+00 0.71772756E+03</pdfrwt>
<pdfrwt beam="2">  1       -2 0.10910593E+00 0.71772756E+03</pdfrwt>
<totfact> 0.35886222E+00</totfact>
</mgrwt>
</event>
<event>
 4    2  0.2930016E-007  0.6864955E+03  0.7818608E-02  0.1005865E+00
          2   -1    0    0  501    0  0.00000000000E+00  0.00000000000E+00  0.17706959903E+04  0.17706959903E+04  0.25500000000E-02 0. -1.
         -2   -1    0    0    0  501 -0.00000000000E+00 -0.00000000000E+00 -0.30674129940E+03  0.30674129942E+03  0.25500000000E-02 0.  1.
    8880023    1    1    2    0    0 -0.18840601165E+03 -0.44373263611E+02  0.16376579137E+04  0.17757250520E+04  0.65864270000E+03 0. -1.
    8880022    1    1    2    0    0  0.18840601165E+03  0.44373263611E+02 -0.17370322282E+03  0.30171223770E+03  0.15294330000E+03 0.  0.
<mgrwt>
<rscale>  0 0.53151740E+03</rscale>
<asrwt>0</asrwt>
<pdfrwt beam="1">  1        2 0.27241477E+00 0.68649546E+03</pdfrwt>
<pdfrwt beam="2">  1       -2 0.47190969E-01 0.68649546E+03</pdfrwt>
<totfact> 0.39466671E+01</totfact>
</mgrwt>
</event>
<event>
 4    2  0.2930016E-007  0.8164875E+03  0.7818608E-02  0.9676219E-01
          2   -1    0    0  501    0  0.00000000000E+00  0.00000000000E+00  0.13166918045E+04  0.13166918045E+04  0.25500000000E-02 0. -1.
         -2   -1    0    0    0  501 -0.00000000000E+00 -0.00000000000E+00 -0.55692233778E+03  0.55692233779E+03  0.25500000000E-02 0.  1.
    8880023    1    1    2    0    0 -0.35246492882E+03  0.32956049716E+03  0.10183042804E+04  0.13052185491E+04  0.65864270000E+03 0.  0.
    8880022    1    1    2    0    0  0.35246492882E+03 -0.32956049716E+03 -0.25853481371E+03  0.56839559310E+03  0.15294330000E+03 0.  0.
<mgrwt>
<rscale>  0 0.72450536E+03</rscale>
<asrwt>0</asrwt>
<pdfrwt beam="1">  1        2 0.20256797E+00 0.81648751E+03</pdfrwt>
<pdfrwt beam="2">  1       -2 0.85680361E-01 0.81648751E+03</pdfrwt>
<totfact> 0.19382100E+01</totfact>
</mgrwt>
</event>
<event>
 4    2  0.2930016E-007  0.8559493E+03  0.7818608E-02  0.9600810E-01
         -2   -1    0    0    0  501 -0.00000000000E+00  0.00000000000E+00  0.95711557483E+03  0.95711557484E+03  0.25500000000E-02 0.  1.
          2   -1    0    0  501    0  0.00000000000E+00 -0.00000000000E+00 -0.94244021304E+03  0.94244021305E+03  0.25500000000E-02 0. -1.
    8880023    1    1    2    0    0  0.33762652016E+03 -0.42993878881E+03 -0.61334074442E+03  0.10530128699E+04  0.65864270000E+03 0.  0.
    8880022    1    1    2    0    0 -0.33762652016E+03  0.42993878881E+03  0.62801610621E+03  0.84654291794E+03  0.15294330000E+03 0.  0.
<mgrwt>
<rscale>  0 0.77242603E+03</rscale>
<asrwt>0</asrwt>
<pdfrwt beam="1">  1        2 0.14499080E+00 0.85594932E+03</pdfrwt>
<pdfrwt beam="2">  1       -2 0.14724855E+00 0.85594932E+03</pdfrwt>
<totfact> 0.86890269E+00</totfact>
</mgrwt>
</event>
<event>
 4    2  0.2930016E-007  0.8483763E+03  0.7818608E-02  0.9614584E-01
         -2   -1    0    0    0  501 -0.00000000000E+00  0.00000000000E+00  0.19970121194E+04  0.19970121194E+04  0.25500000000E-02 0.  1.
          2   -1    0    0  501    0  0.00000000000E+00 -0.00000000000E+00 -0.50738502275E+03  0.50738502275E+03  0.25500000000E-02 0. -1.
    8880023    1    1    2    0    0  0.37058820669E+03 -0.38548224325E+03 -0.67370798721E+02  0.85104712536E+03  0.65864270000E+03 0. -1.
    8880022    1    1    2    0    0 -0.37058820669E+03  0.38548224325E+03  0.15569978953E+04  0.16533500167E+04  0.15294330000E+03 0.  0.
<mgrwt>
<rscale>  0 0.76338404E+03</rscale>
<asrwt>0</asrwt>
<pdfrwt beam="1">  1        2 0.78059234E-01 0.84837632E+03</pdfrwt>
<pdfrwt beam="2">  1       -2 0.30723263E+00 0.84837632E+03</pdfrwt>
<totfact> 0.17859826E+00</totfact>
</mgrwt>
</event>
<event>
 4    2  0.2930016E-007  0.8309537E+03  0.7818608E-02  0.9647480E-01
         -2   -1    0    0    0  501 -0.00000000000E+00  0.00000000000E+00  0.92902025110E+03  0.92902025111E+03  0.25500000000E-02 0.  1.
          2   -1    0    0  501    0  0.00000000000E+00 -0.00000000000E+00 -0.10152311693E+04  0.10152311693E+04  0.25500000000E-02 0. -1.
    8880023    1    1    2    0    0 -0.34272370693E+03 -0.37311422539E+03 -0.73334690658E+03  0.11082786906E+04  0.65864270000E+03 0. -1.
    8880022    1    1    2    0    0  0.34272370693E+03  0.37311422539E+03  0.64713598837E+03  0.83597272978E+03  0.15294330000E+03 0.  0.
<mgrwt>
<rscale>  0 0.74231808E+03</rscale>
<asrwt>0</asrwt>
<pdfrwt beam="1">  1        2 0.15618941E+00 0.83095365E+03</pdfrwt>
<pdfrwt beam="2">  1       -2 0.14292619E+00 0.83095365E+03</pdfrwt>
<totfact> 0.84524309E+00</totfact>
</mgrwt>
</event>
<event>
 4    2  0.2930016E-007  0.7153244E+03  0.7818608E-02  0.9938736E-01
         -2   -1    0    0    0  501 -0.00000000000E+00  0.00000000000E+00  0.10695118410E+03  0.10695118413E+03  0.25500000000E-02 0.  1.
          2   -1    0    0  501    0  0.00000000000E+00 -0.00000000000E+00 -0.36268909586E+04  0.36268909586E+04  0.25500000000E-02 0. -1.
    8880023    1    1    2    0    0 -0.26873040712E+03  0.75251068588E+02 -0.32131534437E+04  0.32918146992E+04  0.65864270000E+03 0.  0.
    8880022    1    1    2    0    0  0.26873040712E+03 -0.75251068588E+02 -0.30678633083E+03  0.44202744353E+03  0.15294330000E+03 0.  0.
<mgrwt>
<rscale>  0 0.58420139E+03</rscale>
<asrwt>0</asrwt>
<pdfrwt beam="1">  1        2 0.55798313E+00 0.71532437E+03</pdfrwt>
<pdfrwt beam="2">  1       -2 0.16454031E-01 0.71532437E+03</pdfrwt>
<totfact> 0.21514846E+01</totfact>
</mgrwt>
</event>
<event>
 4    2  0.2930016E-007  0.6883281E+03  0.7818608E-02  0.1004958E+00
          2   -1    0    0  501    0  0.00000000000E+00  0.00000000000E+00  0.76972396743E+03  0.76972396743E+03  0.25500000000E-02 0. -1.
         -2   -1    0    0    0  501 -0.00000000000E+00 -0.00000000000E+00 -0.49088695290E+03  0.49088695290E+03  0.25500000000E-02 0.  1.
    8880023    1    1    2    0    0 -0.13057311161E+03 -0.15144633638E+03  0.55698484073E+03  0.88545335808E+03  0.65864270000E+03 0. -1.
    8880022    1    1    2    0    0  0.13057311161E+03  0.15144633638E+03 -0.27814782620E+03  0.37515756225E+03  0.15294330000E+03 0.  0.
<mgrwt>
<rscale>  0 0.53528868E+03</rscale>
<asrwt>0</asrwt>
<pdfrwt beam="1">  1        2 0.11841907E+00 0.68832807E+03</pdfrwt>
<pdfrwt beam="2">  1       -2 0.75521070E-01 0.68832807E+03</pdfrwt>
<totfact> 0.58035676E+01</totfact>
</mgrwt>
</event>
<event>
 4    2  0.2930016E-007  0.7812650E+03  0.7818608E-02  0.9752874E-01
          2   -1    0    0  501    0  0.00000000000E+00  0.00000000000E+00  0.24078144722E+04  0.24078144722E+04  0.25500000000E-02 0. -1.
         -2   -1    0    0    0  501 -0.00000000000E+00 -0.00000000000E+00 -0.47736979392E+03  0.47736979392E+03  0.25500000000E-02 0.  1.
    8880023    1    1    2    0    0 -0.40048202185E+03 -0.12719660811E+03  0.22193247788E+04  0.23528233055E+04  0.65864270000E+03 0. -1.
    8880022    1    1    2    0    0  0.40048202185E+03  0.12719660811E+03 -0.28888010049E+03  0.53236096064E+03  0.15294330000E+03 0.  0.
<mgrwt>
<rscale>  0 0.67954109E+03</rscale>
<asrwt>0</asrwt>
<pdfrwt beam="1">  1        2 0.37043300E+00 0.78126502E+03</pdfrwt>
<pdfrwt beam="2">  1       -2 0.73441507E-01 0.78126502E+03</pdfrwt>
<totfact> 0.68535724E+00</totfact>
</mgrwt>
</event>
<event>
 4    2  0.2930016E-007  0.6910454E+03  0.7818608E-02  0.1003660E+00
          2   -1    0    0  501    0  0.00000000000E+00  0.00000000000E+00  0.10556563753E+04  0.10556563753E+04  0.25500000000E-02 0. -1.
         -2   -1    0    0    0  501 -0.00000000000E+00 -0.00000000000E+00 -0.71151031291E+03  0.71151031292E+03  0.25500000000E-02 0.  1.
    8880023    1    1    2    0    0 -0.12333853486E+03  0.16888203578E+03  0.91127311378E+03  0.11436618514E+04  0.65864270000E+03 0. -1.
    8880022    1    1    2    0    0  0.12333853486E+03 -0.16888203578E+03 -0.56712705135E+03  0.62350483686E+03  0.15294330000E+03 0.  0.
<mgrwt>
<rscale>  0 0.54074265E+03</rscale>
<asrwt>0</asrwt>
<pdfrwt beam="1">  1        2 0.16240867E+00 0.69104540E+03</pdfrwt>
<pdfrwt beam="2">  1       -2 0.10946313E+00 0.69104540E+03</pdfrwt>
<totfact> 0.15813269E+01</totfact>
</mgrwt>
</event>
<event>
 4    2  0.2930016E-007  0.7008917E+03  0.7818608E-02  0.9993522E-01
         -2   -1    0    0    0  501 -0.00000000000E+00  0.00000000000E+00  0.85487543812E+03  0.85487543813E+03  0.25500000000E-02 0.  1.
          2   -1    0    0  501    0  0.00000000000E+00 -0.00000000000E+00 -0.34073693398E+03  0.34073693399E+03  0.25500000000E-02 0. -1.
    8880023    1    1    2    0    0 -0.14321614435E+03 -0.19216694148E+03  0.12227691383E+03  0.71147793172E+03  0.65864270000E+03 0. -1.
    8880022    1    1    2    0    0  0.14321614435E+03  0.19216694148E+03  0.39186159032E+03  0.48413444040E+03  0.15294330000E+03 0.  0.
<mgrwt>
<rscale>  0 0.55935201E+03</rscale>
<asrwt>0</asrwt>
<pdfrwt beam="1">  1        2 0.52421067E-01 0.70089172E+03</pdfrwt>
<pdfrwt beam="2">  1       -2 0.13151930E+00 0.70089172E+03</pdfrwt>
<totfact> 0.40740245E+01</totfact>
</mgrwt>
</event>
<event>
 4    2  0.2930016E-007  0.7039540E+03  0.7818608E-02  0.9981177E-01
          2   -1    0    0  501    0  0.00000000000E+00  0.00000000000E+00  0.67308651105E+03  0.67308651105E+03  0.25500000000E-02 0. -1.
         -2   -1    0    0    0  501 -0.00000000000E+00 -0.00000000000E+00 -0.72373204538E+03  0.72373204539E+03  0.25500000000E-02 0.  1.
    8880023    1    1    2    0    0  0.61733682579E+02 -0.24068653303E+03  0.43698794843E+03  0.82855882597E+03  0.65864270000E+03 0. -1.
    8880022    1    1    2    0    0 -0.61733682579E+02  0.24068653303E+03 -0.48763348277E+03  0.56825973047E+03  0.15294330000E+03 0.  0.
<mgrwt>
<rscale>  0 0.56483328E+03</rscale>
<asrwt>0</asrwt>
<pdfrwt beam="1">  1        2 0.10355177E+00 0.70395402E+03</pdfrwt>
<pdfrwt beam="2">  1       -2 0.11134339E+00 0.70395402E+03</pdfrwt>
<totfact> 0.27942193E+01</totfact>
</mgrwt>
</event>
<event>
 4    2  0.2930016E-007  0.1000247E+04  0.7818608E-02  0.9381235E-01
          2   -1    0    0  501    0  0.00000000000E+00  0.00000000000E+00  0.23931180270E+04  0.23931180270E+04  0.25500000000E-02 0. -1.
         -2   -1    0    0    0  501 -0.00000000000E+00 -0.00000000000E+00 -0.68179106225E+03  0.68179106226E+03  0.25500000000E-02 0.  1.
    8880023    1    1    2    0    0  0.30992743003E+03 -0.68602345225E+03  0.20144420248E+04  0.22491042809E+04  0.65864270000E+03 0.  0.
    8880022    1    1    2    0    0 -0.30992743003E+03  0.68602345225E+03 -0.30311506001E+03  0.82580480838E+03  0.15294330000E+03 0.  0.
<mgrwt>
<rscale>  0 0.93636187E+03</rscale>
<asrwt>0</asrwt>
<pdfrwt beam="1">  1        2 0.36817201E+00 0.10002467E+04</pdfrwt>
<pdfrwt beam="2">  1       -2 0.10489093E+00 0.10002467E+04</pdfrwt>
<totfact> 0.29747550E+00</totfact>
</mgrwt>
</event>
<event>
 4    2  0.2930016E-007  0.9251400E+03  0.7818608E-02  0.9486822E-01
         -2   -1    0    0    0  501 -0.00000000000E+00  0.00000000000E+00  0.71714579780E+03  0.71714579780E+03  0.25500000000E-02 0.  1.
          2   -1    0    0  501    0  0.00000000000E+00 -0.00000000000E+00 -0.23367852522E+04  0.23367852522E+04  0.25500000000E-02 0. -1.
    8880023    1    1    2    0    0 -0.16742007694E+03  0.62772946393E+03 -0.20573408612E+04  0.22557782221E+04  0.65864270000E+03 0.  1.
    8880022    1    1    2    0    0  0.16742007694E+03 -0.62772946393E+03  0.43770140682E+03  0.79815282784E+03  0.15294330000E+03 0.  0.
<mgrwt>
<rscale>  0 0.85262357E+03</rscale>
<asrwt>0</asrwt>
<pdfrwt beam="1">  1        2 0.35950542E+00 0.92513997E+03</pdfrwt>
<pdfrwt beam="2">  1       -2 0.11033012E+00 0.92513997E+03</pdfrwt>
<totfact> 0.28621490E+00</totfact>
</mgrwt>
</event>
<event>
 4    2  0.2930016E-007  0.1623702E+04  0.7818608E-02  0.8826890E-01
         -2   -1    0    0    0  501 -0.00000000000E+00  0.00000000000E+00  0.13302665882E+04  0.13302665882E+04  0.25500000000E-02 0.  1.
          2   -1    0    0  501    0  0.00000000000E+00 -0.00000000000E+00 -0.42257263450E+04  0.42257263450E+04  0.25500000000E-02 0. -1.
    8880023    1    1    2    0    0 -0.29449986609E+03  0.14546022908E+04 -0.35675163033E+04  0.39196403886E+04  0.65864270000E+03 0.  0.
    8880022    1    1    2    0    0  0.29449986609E+03 -0.14546022908E+04  0.67205654649E+03  0.16363525446E+04  0.15294330000E+03 0.  0.
<mgrwt>
<rscale>  0 0.15897182E+04</rscale>
<asrwt>0</asrwt>
<pdfrwt beam="1">  1        2 0.65011174E+00 0.16237020E+04</pdfrwt>
<pdfrwt beam="2">  1       -2 0.20465640E+00 0.16237020E+04</pdfrwt>
<totfact> 0.25794328E-02</totfact>
</mgrwt>
</event>
<event>
 4    2  0.2930016E-007  0.6694980E+03  0.7818608E-02  0.1016025E+00
          2   -1    0    0  501    0  0.00000000000E+00  0.00000000000E+00  0.14882765468E+04  0.14882765468E+04  0.25500000000E-02 0. -1.
         -2   -1    0    0    0  501 -0.00000000000E+00 -0.00000000000E+00 -0.12962189859E+03  0.12962189861E+03  0.25500000000E-02 0.  1.
    8880023    1    1    2    0    0  0.92775186062E+02  0.76224604021E+02  0.11637398705E+04  0.13425789056E+04  0.65864270000E+03 0. -1.
    8880022    1    1    2    0    0 -0.92775186062E+02 -0.76224604021E+02  0.19491477779E+03  0.27531953985E+03  0.15294330000E+03 0.  1.
<mgrwt>
<rscale>  0 0.49148639E+03</rscale>
<asrwt>0</asrwt>
<pdfrwt beam="1">  1        2 0.22896563E+00 0.66949804E+03</pdfrwt>
<pdfrwt beam="2">  1       -2 0.19941830E-01 0.66949804E+03</pdfrwt>
<totfact> 0.28175179E+02</totfact>
</mgrwt>
</event>
<event>
 4    2  0.2930016E-007  0.7050073E+03  0.7818608E-02  0.9977030E-01
          2   -1    0    0  501    0  0.00000000000E+00  0.00000000000E+00  0.23804716510E+04  0.23804716510E+04  0.25500000000E-02 0. -1.
         -2   -1    0    0    0  501 -0.00000000000E+00 -0.00000000000E+00 -0.19891173359E+03  0.19891173360E+03  0.25500000000E-02 0.  1.
    8880023    1    1    2    0    0 -0.11482167405E+03  0.22369865922E+03  0.21734836752E+04  0.22849653388E+04  0.65864270000E+03 0. -1.
    8880022    1    1    2    0    0  0.11482167405E+03 -0.22369865922E+03  0.80762421882E+01  0.29441804576E+03  0.15294330000E+03 0.  0.
<mgrwt>
<rscale>  0 0.56668988E+03</rscale>
<asrwt>0</asrwt>
<pdfrwt beam="1">  1        2 0.36622641E+00 0.70500731E+03</pdfrwt>
<pdfrwt beam="2">  1       -2 0.30601805E-01 0.70500731E+03</pdfrwt>
<totfact> 0.42117519E+01</totfact>
</mgrwt>
</event>
<event>
 4    2  0.2930016E-007  0.6649395E+03  0.7818608E-02  0.1019584E+00
          2   -1    0    0  501    0  0.00000000000E+00  0.00000000000E+00  0.29775327295E+04  0.29775327295E+04  0.25500000000E-02 0. -1.
         -2   -1    0    0    0  501 -0.00000000000E+00 -0.00000000000E+00 -0.67338453662E+02  0.67338453710E+02  0.25500000000E-02 0.  1.
    8880023    1    1    2    0    0 -0.70042075355E+01  0.91023217748E+02  0.26307867930E+04  0.27135186827E+04  0.65864270000E+03 0. -1.
    8880022    1    1    2    0    0  0.70042075355E+01 -0.91023217748E+02  0.27940748289E+03  0.33135250052E+03  0.15294330000E+03 0.  0.
<mgrwt>
<rscale>  0 0.47836940E+03</rscale>
<asrwt>0</asrwt>
<pdfrwt beam="1">  1        2 0.45808200E+00 0.66493946E+03</pdfrwt>
<pdfrwt beam="2">  1       -2 0.10359761E-01 0.66493946E+03</pdfrwt>
<totfact> 0.12422624E+02</totfact>
</mgrwt>
</event>
<event>
 4    2  0.2930016E-007  0.6738845E+03  0.7818608E-02  0.1013019E+00
          2   -1    0    0  501    0  0.00000000000E+00  0.00000000000E+00  0.32076617204E+04  0.32076617204E+04  0.25500000000E-02 0. -1.
         -2   -1    0    0    0  501 -0.00000000000E+00 -0.00000000000E+00 -0.62089380161E+02  0.62089380213E+02  0.25500000000E-02 0.  1.
    8880023    1    1    2    0    0  0.95517386701E+02  0.10576675694E+03  0.25873792188E+04  0.26736962442E+04  0.65864270000E+03 0.  1.
    8880022    1    1    2    0    0 -0.95517386701E+02 -0.10576675694E+03  0.55819312148E+03  0.59605485646E+03  0.15294330000E+03 0.  0.
<mgrwt>
<rscale>  0 0.50292309E+03</rscale>
<asrwt>0</asrwt>
<pdfrwt beam="1">  1        2 0.49348642E+00 0.67388455E+03</pdfrwt>
<pdfrwt beam="2">  1       -2 0.95522122E-02 0.67388455E+03</pdfrwt>
<totfact> 0.10186393E+02</totfact>
</mgrwt>
</event>
<event>
 4    2  0.2930016E-007  0.6615735E+03  0.7818608E-02  0.1022599E+00
          2   -1    0    0  501    0  0.00000000000E+00  0.00000000000E+00  0.87912191850E+03  0.87912191850E+03  0.25500000000E-02 0. -1.
         -2   -1    0    0    0  501 -0.00000000000E+00 -0.00000000000E+00 -0.73424251553E+03  0.73424251553E+03  0.25500000000E-02 0.  1.
    8880023    1    1    2    0    0 -0.61775826639E+02 -0.72871343819E+01  0.74184374876E+03  0.99398778107E+03  0.65864270000E+03 0. -1.
    8880022    1    1    2    0    0  0.61775826639E+02  0.72871343819E+01 -0.59696434578E+03  0.61937665296E+03  0.15294330000E+03 0.  0.
<mgrwt>
<rscale>  0 0.46760198E+03</rscale>
<asrwt>0</asrwt>
<pdfrwt beam="1">  1        2 0.13524952E+00 0.66157355E+03</pdfrwt>
<pdfrwt beam="2">  1       -2 0.11296039E+00 0.66157355E+03</pdfrwt>
<totfact> 0.19130835E+01</totfact>
</mgrwt>
</event>
<event>
 4    2  0.2930016E-007  0.9010463E+03  0.7818608E-02  0.9524354E-01
          2   -1    0    0  501    0  0.00000000000E+00  0.00000000000E+00  0.88856810320E+03  0.88856810320E+03  0.25500000000E-02 0. -1.
         -2   -1    0    0    0  501 -0.00000000000E+00 -0.00000000000E+00 -0.11116707076E+04  0.11116707076E+04  0.25500000000E-02 0.  1.
    8880023    1    1    2    0    0 -0.42265526499E+03  0.44658335355E+03  0.50671334644E+03  0.10337518012E+04  0.65864270000E+03 0.  0.
    8880022    1    1    2    0    0  0.42265526499E+03 -0.44658335355E+03 -0.72981595086E+03  0.96648700966E+03  0.15294330000E+03 0.  0.
<mgrwt>
<rscale>  0 0.82511862E+03</rscale>
<asrwt>0</asrwt>
<pdfrwt beam="1">  1        2 0.13670278E+00 0.90104626E+03</pdfrwt>
<pdfrwt beam="2">  1       -2 0.17102626E+00 0.90104626E+03</pdfrwt>
<totfact> 0.62645293E+00</totfact>
</mgrwt>
</event>
<event>
 4    2  0.2930016E-007  0.7450318E+03  0.7818608E-02  0.9845525E-01
         -2   -1    0    0    0  501 -0.00000000000E+00  0.00000000000E+00  0.11113672170E+04  0.11113672170E+04  0.25500000000E-02 0.  1.
          2   -1    0    0  501    0  0.00000000000E+00 -0.00000000000E+00 -0.58522396727E+03  0.58522396727E+03  0.25500000000E-02 0. -1.
    8880023    1    1    2    0    0 -0.34619992101E+03 -0.37521533418E+02 -0.28739282491E+03  0.79854060188E+03  0.65864270000E+03 0. -1.
    8880022    1    1    2    0    0  0.34619992101E+03  0.37521533418E+02  0.81353607464E+03  0.89805058239E+03  0.15294330000E+03 0.  0.
<mgrwt>
<rscale>  0 0.62975612E+03</rscale>
<asrwt>0</asrwt>
<pdfrwt beam="1">  1        2 0.90034456E-01 0.74503185E+03</pdfrwt>
<pdfrwt beam="2">  1       -2 0.17097957E+00 0.74503185E+03</pdfrwt>
<totfact> 0.10899899E+01</totfact>
</mgrwt>
</event>
<event>
 4    2  0.2930016E-007  0.6596476E+03  0.7818608E-02  0.1024520E+00
          2   -1    0    0  501    0  0.00000000000E+00  0.00000000000E+00  0.12691592795E+04  0.12691592795E+04  0.25500000000E-02 0. -1.
         -2   -1    0    0    0  501 -0.00000000000E+00 -0.00000000000E+00 -0.18210156350E+03  0.18210156351E+03  0.25500000000E-02 0.  1.
    8880023    1    1    2    0    0  0.34793573445E+02  0.10684158374E+02  0.11111577040E+04  0.12922098875E+04  0.65864270000E+03 0.  0.
    8880022    1    1    2    0    0 -0.34793573445E+02 -0.10684158374E+02 -0.24099988037E+02  0.15905095546E+03  0.15294330000E+03 0.  0.
<mgrwt>
<rscale>  0 0.46090045E+03</rscale>
<asrwt>0</asrwt>
<pdfrwt beam="1">  1        2 0.19525528E+00 0.65964760E+03</pdfrwt>
<pdfrwt beam="2">  1       -2 0.28015624E-01 0.65964760E+03</pdfrwt>
<totfact> 0.20431355E+02</totfact>
</mgrwt>
</event>
<event>
 4    2  0.2930016E-007  0.1011205E+04  0.7818608E-02  0.9367043E-01
          2   -1    0    0  501    0  0.00000000000E+00  0.00000000000E+00  0.11278353624E+04  0.11278353624E+04  0.25500000000E-02 0. -1.
         -2   -1    0    0    0  501 -0.00000000000E+00 -0.00000000000E+00 -0.14332175167E+04  0.14332175168E+04  0.25500000000E-02 0.  1.
    8880023    1    1    2    0    0  0.76422290312E+03 -0.68474749676E+02  0.74162986804E+03  0.12540137577E+04  0.65864270000E+03 0.  0.
    8880022    1    1    2    0    0 -0.76422290312E+03  0.68474749676E+02 -0.10470120224E+04  0.13070391215E+04  0.15294330000E+03 0.  0.
<mgrwt>
<rscale>  0 0.94838294E+03</rscale>
<asrwt>0</asrwt>
<pdfrwt beam="1">  1        2 0.17351313E+00 0.10112050E+04</pdfrwt>
<pdfrwt beam="2">  1       -2 0.22049500E+00 0.10112050E+04</pdfrwt>
<totfact> 0.20393095E+00</totfact>
</mgrwt>
</event>
<event>
 4    2  0.2930016E-007  0.7298693E+03  0.7818608E-02  0.9890505E-01
         -2   -1    0    0    0  501 -0.00000000000E+00  0.00000000000E+00  0.14731227673E+04  0.14731227673E+04  0.25500000000E-02 0.  1.
          2   -1    0    0  501    0  0.00000000000E+00 -0.00000000000E+00 -0.91627962600E+03  0.91627962601E+03  0.25500000000E-02 0. -1.
    8880023    1    1    2    0    0 -0.80622630168E+02 -0.30397193976E+03  0.13432573141E+04  0.15287411052E+04  0.65864270000E+03 0.  1.
    8880022    1    1    2    0    0  0.80622630168E+02  0.30397193976E+03 -0.78641417279E+03  0.86066128810E+03  0.15294330000E+03 0.  0.
<mgrwt>
<rscale>  0 0.60723661E+03</rscale>
<asrwt>0</asrwt>
<pdfrwt beam="1">  1        2 0.14096610E+00 0.72986927E+03</pdfrwt>
<pdfrwt beam="2">  1       -2 0.22663427E+00 0.72986927E+03</pdfrwt>
<totfact> 0.26460766E+00</totfact>
</mgrwt>
</event>
<event>
 4    2  0.2930016E-007  0.7531494E+03  0.7818608E-02  0.9823177E-01
         -2   -1    0    0    0  501 -0.00000000000E+00  0.00000000000E+00  0.66188004814E+03  0.66188004814E+03  0.25500000000E-02 0.  1.
          2   -1    0    0  501    0  0.00000000000E+00 -0.00000000000E+00 -0.49948990671E+03  0.49948990672E+03  0.25500000000E-02 0. -1.
    8880023    1    1    2    0    0  0.20058362058E+03  0.30527035350E+03  0.85654853371E+02  0.75800444441E+03  0.65864270000E+03 0. -1.
    8880022    1    1    2    0    0 -0.20058362058E+03 -0.30527035350E+03  0.76735288058E+02  0.40336551045E+03  0.15294330000E+03 0.  1.
<mgrwt>
<rscale>  0 0.64133426E+03</rscale>
<asrwt>0</asrwt>
<pdfrwt beam="1">  1        2 0.76844601E-01 0.75314938E+03</pdfrwt>
<pdfrwt beam="2">  1       -2 0.10182770E+00 0.75314938E+03</pdfrwt>
<totfact> 0.49337467E+01</totfact>
</mgrwt>
</event>
<event>
 4    2  0.4104353E-007  0.7233877E+03  0.7818608E-02  0.9911286E-01
          2   -1    0    0  501    0  0.00000000000E+00  0.00000000000E+00  0.18872036294E+04  0.18872036294E+04  0.25500000000E-02 0. -1.
         -2   -1    0    0    0  501 -0.00000000000E+00 -0.00000000000E+00 -0.11594955418E+04  0.11594955418E+04  0.25500000000E-02 0.  1.
    8880023    1    1    2    0    0  0.12099883453E+03  0.27356682774E+03  0.17910113336E+04  0.19315825974E+04  0.65864270000E+03 0. -1.
    8880022    1    1    2    0    0 -0.12099883453E+03 -0.27356682774E+03 -0.10633032461E+04  0.11151165738E+04  0.15294330000E+03 0.  0.
<mgrwt>
<rscale>  0 0.59717444E+03</rscale>
<asrwt>0</asrwt>
<pdfrwt beam="1">  1        2 0.29033902E+00 0.72338768E+03</pdfrwt>
<pdfrwt beam="2">  1       -2 0.17838393E+00 0.72338768E+03</pdfrwt>
<totfact> 0.14983234E+00</totfact>
</mgrwt>
</event>
<event>
 4    2  0.2930016E-007  0.6630408E+03  0.7818608E-02  0.1021237E+00
         -2   -1    0    0    0  501 -0.00000000000E+00  0.00000000000E+00  0.63943285611E+03  0.63943285611E+03  0.25500000000E-02 0.  1.
          2   -1    0    0  501    0  0.00000000000E+00 -0.00000000000E+00 -0.37516644726E+03  0.37516644727E+03  0.25500000000E-02 0. -1.
    8880023    1    1    2    0    0  0.56650355252E+02 -0.51025168126E+02 -0.41477470958E+02  0.66433682526E+03  0.65864270000E+03 0. -1.
    8880022    1    1    2    0    0 -0.56650355252E+02  0.51025168126E+02  0.30574387980E+03  0.35026247813E+03  0.15294330000E+03 0.  0.
<mgrwt>
<rscale>  0 0.47242879E+03</rscale>
<asrwt>0</asrwt>
<pdfrwt beam="1">  1        2 0.57717915E-01 0.66304075E+03</pdfrwt>
<pdfrwt beam="2">  1       -2 0.98374285E-01 0.66304075E+03</pdfrwt>
<totfact> 0.74539307E+01</totfact>
</mgrwt>
</event>
<event>
 4    2  0.2930016E-007  0.9591591E+03  0.7818608E-02  0.9437057E-01
          2   -1    0    0  501    0  0.00000000000E+00  0.00000000000E+00  0.35193842614E+04  0.35193842614E+04  0.25500000000E-02 0. -1.
         -2   -1    0    0    0  501 -0.00000000000E+00 -0.00000000000E+00 -0.63500024180E+03  0.63500024180E+03  0.25500000000E-02 0.  1.
    8880023    1    1    2    0    0  0.12363161987E+03  0.68621509158E+03 -0.20734733067E+03  0.98131496022E+03  0.65864270000E+03 0.  0.
    8880022    1    1    2    0    0 -0.12363161987E+03 -0.68621509158E+03  0.30917313502E+04  0.31730695429E+04  0.15294330000E+03 0.  0.
<mgrwt>
<rscale>  0 0.89087794E+03</rscale>
<asrwt>0</asrwt>
<pdfrwt beam="1">  1        2 0.54144373E+00 0.95915908E+03</pdfrwt>
<pdfrwt beam="2">  1       -2 0.97692346E-01 0.95915908E+03</pdfrwt>
<totfact> 0.71666715E-01</totfact>
</mgrwt>
</event>
<event>
 4    2  0.2930016E-007  0.6688011E+03  0.7818608E-02  0.1016537E+00
          2   -1    0    0  501    0  0.00000000000E+00  0.00000000000E+00  0.32395538751E+03  0.32395538752E+03  0.25500000000E-02 0. -1.
         -2   -1    0    0    0  501 -0.00000000000E+00 -0.00000000000E+00 -0.12128251700E+04  0.12128251700E+04  0.25500000000E-02 0.  1.
    8880023    1    1    2    0    0 -0.11014339296E+03 -0.36784276448E+02 -0.43873502377E+02  0.67023856982E+03  0.65864270000E+03 0. -1.
    8880022    1    1    2    0    0  0.11014339296E+03  0.36784276448E+02 -0.84499628007E+03  0.86654198765E+03  0.15294330000E+03 0.  0.
<mgrwt>
<rscale>  0 0.48957151E+03</rscale>
<asrwt>0</asrwt>
<pdfrwt beam="1">  1        2 0.49839291E-01 0.66880106E+03</pdfrwt>
<pdfrwt beam="2">  1       -2 0.18658849E+00 0.66880106E+03</pdfrwt>
<totfact> 0.16855127E+01</totfact>
</mgrwt>
</event>
<event>
 4    2  0.2930016E-007  0.1507986E+04  0.7818608E-02  0.8904017E-01
         -2   -1    0    0    0  501 -0.00000000000E+00  0.00000000000E+00  0.15484993816E+04  0.15484993816E+04  0.25500000000E-02 0.  1.
          2   -1    0    0  501    0  0.00000000000E+00 -0.00000000000E+00 -0.15899993150E+04  0.15899993150E+04  0.25500000000E-02 0. -1.
    8880023    1    1    2    0    0 -0.12040080741E+04 -0.62496184733E+03  0.60897605357E+03  0.16263071030E+04  0.65864270000E+03 0.  0.
    8880022    1    1    2    0    0  0.12040080741E+04  0.62496184733E+03 -0.65047598696E+03  0.15121915936E+04  0.15294330000E+03 0.  0.
<mgrwt>
<rscale>  0 0.14709309E+04</rscale>
<asrwt>0</asrwt>
<pdfrwt beam="1">  1        2 0.24461528E+00 0.15079864E+04</pdfrwt>
<pdfrwt beam="2">  1       -2 0.23823067E+00 0.15079864E+04</pdfrwt>
<totfact> 0.80597028E-01</totfact>
</mgrwt>
</event>
<event>
 4    2  0.2930016E-007  0.1165490E+04  0.7818608E-02  0.9191421E-01
          2   -1    0    0  501    0  0.00000000000E+00  0.00000000000E+00  0.12830284478E+04  0.12830284478E+04  0.25500000000E-02 0. -1.
         -2   -1    0    0    0  501 -0.00000000000E+00 -0.00000000000E+00 -0.10435478796E+04  0.10435478796E+04  0.25500000000E-02 0.  1.
    8880023    1    1    2    0    0 -0.56994622394E+03 -0.77441434411E+03 -0.31344162663E+03  0.12069018743E+04  0.65864270000E+03 0.  0.
    8880022    1    1    2    0    0  0.56994622394E+03  0.77441434411E+03  0.55292219476E+03  0.11196744531E+04  0.15294330000E+03 0.  0.
<mgrwt>
<rscale>  0 0.11142417E+04</rscale>
<asrwt>0</asrwt>
<pdfrwt beam="1">  1        2 0.19738899E+00 0.11654898E+04</pdfrwt>
<pdfrwt beam="2">  1       -2 0.16054583E+00 0.11654898E+04</pdfrwt>
<totfact> 0.41154619E+00</totfact>
</mgrwt>
</event>
<event>
 4    2  0.2930016E-007  0.6983335E+03  0.7818608E-02  0.1000419E+00
          2   -1    0    0  501    0  0.00000000000E+00  0.00000000000E+00  0.19464998085E+04  0.19464998085E+04  0.25500000000E-02 0. -1.
         -2   -1    0    0    0  501 -0.00000000000E+00 -0.00000000000E+00 -0.24520417095E+03  0.24520417097E+03  0.25500000000E-02 0.  1.
    8880023    1    1    2    0    0  0.14703767346E+03  0.17955330033E+03  0.17722301426E+04  0.19048541544E+04  0.65864270000E+03 0.  0.
    8880022    1    1    2    0    0 -0.14703767346E+03 -0.17955330033E+03 -0.70934505081E+02  0.28684982500E+03  0.15294330000E+03 0.  0.
<mgrwt>
<rscale>  0 0.55467073E+03</rscale>
<asrwt>0</asrwt>
<pdfrwt beam="1">  1        2 0.29946151E+00 0.69833350E+03</pdfrwt>
<pdfrwt beam="2">  1       -2 0.37723718E-01 0.69833350E+03</pdfrwt>
<totfact> 0.49128735E+01</totfact>
</mgrwt>
</event>
<event>
 4    2  0.2930016E-007  0.9011626E+03  0.7818608E-02  0.9524168E-01
         -2   -1    0    0    0  501 -0.00000000000E+00  0.00000000000E+00  0.23206301246E+04  0.23206301246E+04  0.25500000000E-02 0.  1.
          2   -1    0    0  501    0  0.00000000000E+00 -0.00000000000E+00 -0.10319635204E+04  0.10319635204E+04  0.25500000000E-02 0. -1.
    8880023    1    1    2    0    0 -0.61368641480E+03 -0.40899274614E+02 -0.77824475195E+03  0.11906967988E+04  0.65864270000E+03 0. -1.
    8880022    1    1    2    0    0  0.61368641480E+03  0.40899274614E+02  0.20669113562E+04  0.21618968462E+04  0.15294330000E+03 0.  0.
<mgrwt>
<rscale>  0 0.82525234E+03</rscale>
<asrwt>0</asrwt>
<pdfrwt beam="1">  1        2 0.15876362E+00 0.90116257E+03</pdfrwt>
<pdfrwt beam="2">  1       -2 0.35702002E+00 0.90116257E+03</pdfrwt>
<totfact> 0.34753115E-01</totfact>
</mgrwt>
</event>
<event>
 4    2  0.2930016E-007  0.7109329E+03  0.7818608E-02  0.9954553E-01
         -2   -1    0    0    0  501 -0.00000000000E+00  0.00000000000E+00  0.56980794796E+03  0.56980794797E+03  0.25500000000E-02 0.  1.
          2   -1    0    0  501    0  0.00000000000E+00 -0.00000000000E+00 -0.54173010436E+03  0.54173010437E+03  0.25500000000E-02 0. -1.
    8880023    1    1    2    0    0 -0.25911809445E+03  0.66881993775E+02 -0.18768823614E+03  0.73529073720E+03  0.65864270000E+03 0. -1.
    8880022    1    1    2    0    0  0.25911809445E+03 -0.66881993775E+02  0.21576607974E+03  0.37624731514E+03  0.15294330000E+03 0.  0.
<mgrwt>
<rscale>  0 0.57688724E+03</rscale>
<asrwt>0</asrwt>
<pdfrwt beam="1">  1        2 0.83343094E-01 0.71093290E+03</pdfrwt>
<pdfrwt beam="2">  1       -2 0.87662760E-01 0.71093290E+03</pdfrwt>
<totfact> 0.63833695E+01</totfact>
</mgrwt>
</event>
<event>
 4    2  0.2930016E-007  0.9385627E+03  0.7818608E-02  0.9466764E-01
         -2   -1    0    0    0  501 -0.00000000000E+00  0.00000000000E+00  0.15223379339E+04  0.15223379339E+04  0.25500000000E-02 0.  1.
          2   -1    0    0  501    0  0.00000000000E+00 -0.00000000000E+00 -0.54030389369E+03  0.54030389369E+03  0.25500000000E-02 0. -1.
    8880023    1    1    2    0    0 -0.30045426737E+03 -0.59734162383E+03  0.97927661393E+02  0.94365767918E+03  0.65864270000E+03 0. -1.
    8880022    1    1    2    0    0  0.30045426737E+03  0.59734162383E+03  0.88410637887E+03  0.11189841485E+04  0.15294330000E+03 0.  0.
<mgrwt>
<rscale>  0 0.86779129E+03</rscale>
<asrwt>0</asrwt>
<pdfrwt beam="1">  1        2 0.83123678E-01 0.93856272E+03</pdfrwt>
<pdfrwt beam="2">  1       -2 0.23420583E+00 0.93856272E+03</pdfrwt>
<totfact> 0.45426259E+00</totfact>
</mgrwt>
</event>
<event>
 4    2  0.2930016E-007  0.9094145E+03  0.7818608E-02  0.9511084E-01
         -2   -1    0    0    0  501 -0.00000000000E+00  0.00000000000E+00  0.65740668168E+03  0.65740668168E+03  0.25500000000E-02 0.  1.
          2   -1    0    0  501    0  0.00000000000E+00 -0.00000000000E+00 -0.95225630850E+03  0.95225630851E+03  0.25500000000E-02 0. -1.
    8880023    1    1    2    0    0  0.33069255931E+02  0.62620353922E+03 -0.31903484880E+03  0.96375198533E+03  0.65864270000E+03 0.  0.
    8880022    1    1    2    0    0 -0.33069255931E+02 -0.62620353922E+03  0.24185221978E+02  0.64591100486E+03  0.15294330000E+03 0.  0.
<mgrwt>
<rscale>  0 0.83471534E+03</rscale>
<asrwt>0</asrwt>
<pdfrwt beam="1">  1        2 0.14650097E+00 0.90941446E+03</pdfrwt>
<pdfrwt beam="2">  1       -2 0.10113949E+00 0.90941446E+03</pdfrwt>
<totfact> 0.21781037E+01</totfact>
</mgrwt>
</event>
<event>
 4    2  0.2930016E-007  0.6988767E+03  0.7818608E-02  0.1000189E+00
         -2   -1    0    0    0  501 -0.00000000000E+00  0.00000000000E+00  0.22941249514E+03  0.22941249515E+03  0.25500000000E-02 0.  1.
          2   -1    0    0  501    0  0.00000000000E+00 -0.00000000000E+00 -0.21968623275E+04  0.21968623275E+04  0.25500000000E-02 0. -1.
    8880023    1    1    2    0    0 -0.49710852485E+02 -0.22835771400E+03 -0.20240369653E+04  0.21412973305E+04  0.65864270000E+03 0. -1.
    8880022    1    1    2    0    0  0.49710852485E+02  0.22835771400E+03  0.56587132962E+02  0.28497749215E+03  0.15294330000E+03 0.  0.
<mgrwt>
<rscale>  0 0.55567294E+03</rscale>
<asrwt>0</asrwt>
<pdfrwt beam="1">  1        2 0.33797881E+00 0.69887668E+03</pdfrwt>
<pdfrwt beam="2">  1       -2 0.35294232E-01 0.69887668E+03</pdfrwt>
<totfact> 0.40731483E+01</totfact>
</mgrwt>
</event>
<event>
 4    2  0.2930016E-007  0.7497389E+03  0.7818608E-02  0.9832436E-01
          2   -1    0    0  501    0  0.00000000000E+00  0.00000000000E+00  0.10921787446E+04  0.10921787446E+04  0.25500000000E-02 0. -1.
         -2   -1    0    0    0  501 -0.00000000000E+00 -0.00000000000E+00 -0.36775148771E+03  0.36775148772E+03  0.25500000000E-02 0.  1.
    8880023    1    1    2    0    0  0.33707428650E+03  0.12115743746E+03  0.76156978879E+03  0.10686893603E+04  0.65864270000E+03 0. -1.
    8880022    1    1    2    0    0 -0.33707428650E+03 -0.12115743746E+03 -0.37142531921E+02  0.39124087205E+03  0.15294330000E+03 0.  0.
<mgrwt>
<rscale>  0 0.63650541E+03</rscale>
<asrwt>0</asrwt>
<pdfrwt beam="1">  1        2 0.16802750E+00 0.74973889E+03</pdfrwt>
<pdfrwt beam="2">  1       -2 0.56577152E-01 0.74973889E+03</pdfrwt>
<totfact> 0.65586032E+01</totfact>
</mgrwt>
</event>
<event>
 4    2  0.2930016E-007  0.1002526E+04  0.7818608E-02  0.9378261E-01
          2   -1    0    0  501    0  0.00000000000E+00  0.00000000000E+00  0.15274158252E+04  0.15274158253E+04  0.25500000000E-02 0. -1.
         -2   -1    0    0    0  501 -0.00000000000E+00 -0.00000000000E+00 -0.96522063124E+03  0.96522063124E+03  0.25500000000E-02 0.  1.
    8880023    1    1    2    0    0 -0.59940814945E+03  0.46038805340E+03  0.11480780721E+04  0.15241852759E+04  0.65864270000E+03 0.  0.
    8880022    1    1    2    0    0  0.59940814945E+03 -0.46038805340E+03 -0.58588287810E+03  0.96845118060E+03  0.15294330000E+03 0.  0.
<mgrwt>
<rscale>  0 0.93886524E+03</rscale>
<asrwt>0</asrwt>
<pdfrwt beam="1">  1        2 0.23498705E+00 0.10025256E+04</pdfrwt>
<pdfrwt beam="2">  1       -2 0.14849548E+00 0.10025256E+04</pdfrwt>
<totfact> 0.37418093E+00</totfact>
</mgrwt>
</event>
<event>
 4    2  0.2930016E-007  0.7052916E+03  0.7818608E-02  0.9975919E-01
          2   -1    0    0  501    0  0.00000000000E+00  0.00000000000E+00  0.13092713517E+04  0.13092713517E+04  0.25500000000E-02 0. -1.
         -2   -1    0    0    0  501 -0.00000000000E+00 -0.00000000000E+00 -0.69479443728E+03  0.69479443728E+03  0.25500000000E-02 0.  1.
    8880023    1    1    2    0    0 -0.24863432086E+03  0.42509357931E+02  0.11751351515E+04  0.13705396388E+04  0.65864270000E+03 0.  0.
    8880022    1    1    2    0    0  0.24863432086E+03 -0.42509357931E+02 -0.56065823712E+03  0.63352615012E+03  0.15294330000E+03 0.  1.
<mgrwt>
<rscale>  0 0.56718862E+03</rscale>
<asrwt>0</asrwt>
<pdfrwt beam="1">  1        2 0.20142636E+00 0.70529163E+03</pdfrwt>
<pdfrwt beam="2">  1       -2 0.10689145E+00 0.70529163E+03</pdfrwt>
<totfact> 0.11809873E+01</totfact>
</mgrwt>
</event>
<event>
 4    2  0.2930016E-007  0.7996345E+03  0.7818608E-02  0.9711587E-01
         -2   -1    0    0    0  501 -0.00000000000E+00  0.00000000000E+00  0.41792562498E+03  0.41792562499E+03  0.25500000000E-02 0.  1.
          2   -1    0    0  501    0  0.00000000000E+00 -0.00000000000E+00 -0.18053461455E+04  0.18053461455E+04  0.25500000000E-02 0. -1.
    8880023    1    1    2    0    0  0.43862124881E+03 -0.11496341772E+03 -0.15279376196E+04  0.17245314619E+04  0.65864270000E+03 0. -1.
    8880022    1    1    2    0    0 -0.43862124881E+03  0.11496341772E+03  0.14051709906E+03  0.49874030864E+03  0.15294330000E+03 0.  0.
<mgrwt>
<rscale>  0 0.70331089E+03</rscale>
<asrwt>0</asrwt>
<pdfrwt beam="1">  1        2 0.27774556E+00 0.79963454E+03</pdfrwt>
<pdfrwt beam="2">  1       -2 0.64296251E-01 0.79963454E+03</pdfrwt>
<totfact> 0.19600583E+01</totfact>
</mgrwt>
</event>
<event>
 4    2  0.2930016E-007  0.1450283E+04  0.7818608E-02  0.8945565E-01
          2   -1    0    0  501    0  0.00000000000E+00  0.00000000000E+00  0.25590668319E+04  0.25590668319E+04  0.25500000000E-02 0. -1.
         -2   -1    0    0    0  501 -0.00000000000E+00 -0.00000000000E+00 -0.75154540451E+03  0.75154540451E+03  0.25500000000E-02 0.  1.
    8880023    1    1    2    0    0  0.11667532547E+04 -0.55515480255E+03  0.11608321082E+04  0.18576467376E+04  0.65864270000E+03 0.  1.
    8880022    1    1    2    0    0 -0.11667532547E+04  0.55515480255E+03  0.64668931916E+03  0.14529654988E+04  0.15294330000E+03 0. -1.
<mgrwt>
<rscale>  0 0.14114597E+04</rscale>
<asrwt>0</asrwt>
<pdfrwt beam="1">  1        2 0.39370258E+00 0.14502828E+04</pdfrwt>
<pdfrwt beam="2">  1       -2 0.11562237E+00 0.14502828E+04</pdfrwt>
<totfact> 0.17880678E+00</totfact>
</mgrwt>
</event>
<event>
 4    2  0.2930016E-007  0.9104901E+03  0.7818608E-02  0.9509397E-01
          2   -1    0    0  501    0  0.00000000000E+00  0.00000000000E+00  0.16472827813E+04  0.16472827813E+04  0.25500000000E-02 0. -1.
         -2   -1    0    0    0  501 -0.00000000000E+00 -0.00000000000E+00 -0.93221833874E+03  0.93221833875E+03  0.25500000000E-02 0.  1.
    8880023    1    1    2    0    0 -0.18011376450E+01  0.62863239352E+03  0.13790056115E+04  0.16524674318E+04  0.65864270000E+03 0.  0.
    8880022    1    1    2    0    0  0.18011376450E+01 -0.62863239352E+03 -0.66394116897E+03  0.92703368824E+03  0.15294330000E+03 0.  0.
<mgrwt>
<rscale>  0 0.83594534E+03</rscale>
<asrwt>0</asrwt>
<pdfrwt beam="1">  1        2 0.25342812E+00 0.91049005E+03</pdfrwt>
<pdfrwt beam="2">  1       -2 0.14341821E+00 0.91049005E+03</pdfrwt>
<totfact> 0.35575971E+00</totfact>
</mgrwt>
</event>
<event>
 4    2  0.2930016E-007  0.8303927E+03  0.7818608E-02  0.9648569E-01
          2   -1    0    0  501    0  0.00000000000E+00  0.00000000000E+00  0.10603880726E+04  0.10603880726E+04  0.25500000000E-02 0. -1.
         -2   -1    0    0    0  501 -0.00000000000E+00 -0.00000000000E+00 -0.50878756967E+03  0.50878756967E+03  0.25500000000E-02 0.  1.
    8880023    1    1    2    0    0  0.35353285830E+03 -0.36160244737E+03  0.62016376338E+03  0.10364145462E+04  0.65864270000E+03 0.  0.
    8880022    1    1    2    0    0 -0.35353285830E+03  0.36160244737E+03 -0.68563260438E+02  0.53276109612E+03  0.15294330000E+03 0.  0.
<mgrwt>
<rscale>  0 0.74163314E+03</rscale>
<asrwt>0</asrwt>
<pdfrwt beam="1">  1        2 0.16313663E+00 0.83039269E+03</pdfrwt>
<pdfrwt beam="2">  1       -2 0.78275011E-01 0.83039269E+03</pdfrwt>
<totfact> 0.33783163E+01</totfact>
</mgrwt>
</event>
<event>
 4    2  0.2930016E-007  0.1182189E+04  0.7818608E-02  0.9174633E-01
          2   -1    0    0  501    0  0.00000000000E+00  0.00000000000E+00  0.34453021335E+04  0.34453021335E+04  0.25500000000E-02 0. -1.
         -2   -1    0    0    0  501 -0.00000000000E+00 -0.00000000000E+00 -0.44653274243E+03  0.44653274244E+03  0.25500000000E-02 0.  1.
    8880023    1    1    2    0    0  0.94383684846E+03 -0.27005944206E+03  0.25314011569E+04  0.27938436109E+04  0.65864270000E+03 0. -1.
    8880022    1    1    2    0    0 -0.94383684846E+03  0.27005944206E+03  0.46736823416E+03  0.10979912650E+04  0.15294330000E+03 0.  1.
<mgrwt>
<rscale>  0 0.11319132E+04</rscale>
<asrwt>0</asrwt>
<pdfrwt beam="1">  1        2 0.53004650E+00 0.11821888E+04</pdfrwt>
<pdfrwt beam="2">  1       -2 0.68697342E-01 0.11821888E+04</pdfrwt>
<totfact> 0.17298127E+00</totfact>
</mgrwt>
</event>
<event>
 4    2  0.2930016E-007  0.6715933E+03  0.7818608E-02  0.1014546E+00
          2   -1    0    0  501    0  0.00000000000E+00  0.00000000000E+00  0.12016842041E+04  0.12016842041E+04  0.25500000000E-02 0. -1.
         -2   -1    0    0    0  501 -0.00000000000E+00 -0.00000000000E+00 -0.28239985201E+03  0.28239985202E+03  0.25500000000E-02 0.  1.
    8880023    1    1    2    0    0 -0.10827263554E+03  0.74191386813E+02  0.10481602153E+04  0.12448603812E+04  0.65864270000E+03 0. -1.
    8880022    1    1    2    0    0  0.10827263554E+03 -0.74191386813E+02 -0.12887586324E+03  0.23922367488E+03  0.15294330000E+03 0.  0.
<mgrwt>
<rscale>  0 0.49707381E+03</rscale>
<asrwt>0</asrwt>
<pdfrwt beam="1">  1        2 0.18487450E+00 0.67159328E+03</pdfrwt>
<pdfrwt beam="2">  1       -2 0.43446130E-01 0.67159328E+03</pdfrwt>
<totfact> 0.97034429E+01</totfact>
</mgrwt>
</event>
<event>
 4    2  0.2930016E-007  0.7308899E+03  0.7818608E-02  0.9887326E-01
         -2   -1    0    0    0  501 -0.00000000000E+00  0.00000000000E+00  0.29507071458E+03  0.29507071460E+03  0.25500000000E-02 0.  1.
          2   -1    0    0  501    0  0.00000000000E+00 -0.00000000000E+00 -0.14737494115E+04  0.14737494115E+04  0.25500000000E-02 0. -1.
    8880023    1    1    2    0    0  0.25933964488E+03 -0.18202422391E+03 -0.12120999362E+04  0.14154103048E+04  0.65864270000E+03 0. -1.
    8880022    1    1    2    0    0 -0.25933964488E+03  0.18202422391E+03  0.33421239291E+02  0.35340982123E+03  0.15294330000E+03 0.  0.
<mgrwt>
<rscale>  0 0.60879483E+03</rscale>
<asrwt>0</asrwt>
<pdfrwt beam="1">  1        2 0.22673067E+00 0.73088992E+03</pdfrwt>
<pdfrwt beam="2">  1       -2 0.45395496E-01 0.73088992E+03</pdfrwt>
<totfact> 0.61802383E+01</totfact>
</mgrwt>
</event>
<event>
 4    2  0.2930016E-007  0.9279225E+03  0.7818608E-02  0.9482617E-01
         -2   -1    0    0    0  501 -0.00000000000E+00  0.00000000000E+00  0.19519007358E+04  0.19519007358E+04  0.25500000000E-02 0.  1.
          2   -1    0    0  501    0  0.00000000000E+00 -0.00000000000E+00 -0.59602387530E+03  0.59602387530E+03  0.25500000000E-02 0. -1.
    8880023    1    1    2    0    0  0.44845644961E+03 -0.47551744638E+03 -0.11120105677E+03  0.93456188147E+03  0.65864270000E+03 0.  0.
    8880022    1    1    2    0    0 -0.44845644961E+03  0.47551744638E+03  0.14670779173E+04  0.16133627297E+04  0.15294330000E+03 0.  0.
<mgrwt>
<rscale>  0 0.85577639E+03</rscale>
<asrwt>0</asrwt>
<pdfrwt beam="1">  1        2 0.91695983E-01 0.92792254E+03</pdfrwt>
<pdfrwt beam="2">  1       -2 0.30029241E+00 0.92792254E+03</pdfrwt>
<totfact> 0.16069193E+00</totfact>
</mgrwt>
</event>
<event>
 4    2  0.2930016E-007  0.7460499E+03  0.7818608E-02  0.9842662E-01
          2   -1    0    0  501    0  0.00000000000E+00  0.00000000000E+00  0.10505472133E+04  0.10505472133E+04  0.25500000000E-02 0. -1.
         -2   -1    0    0    0  501 -0.00000000000E+00 -0.00000000000E+00 -0.38063630250E+03  0.38063630251E+03  0.25500000000E-02 0.  1.
    8880023    1    1    2    0    0  0.50553457733E+02 -0.34673410276E+03  0.73044364678E+03  0.10440968909E+04  0.65864270000E+03 0.  0.
    8880022    1    1    2    0    0 -0.50553457733E+02  0.34673410276E+03 -0.60532735955E+02  0.38708662498E+03  0.15294330000E+03 0.  0.
<mgrwt>
<rscale>  0 0.63122451E+03</rscale>
<asrwt>0</asrwt>
<pdfrwt beam="1">  1        2 0.16162264E+00 0.74604986E+03</pdfrwt>
<pdfrwt beam="2">  1       -2 0.58559433E-01 0.74604986E+03</pdfrwt>
<totfact> 0.64771929E+01</totfact>
</mgrwt>
</event>
<event>
 4    2  0.2930016E-007  0.6605543E+03  0.7818608E-02  0.1023596E+00
         -2   -1    0    0    0  501 -0.00000000000E+00  0.00000000000E+00  0.82967137334E+03  0.82967137334E+03  0.25500000000E-02 0.  1.
          2   -1    0    0  501    0  0.00000000000E+00 -0.00000000000E+00 -0.48693225754E+03  0.48693225754E+03  0.25500000000E-02 0. -1.
    8880023    1    1    2    0    0 -0.23773492614E+02  0.44233421449E+02 -0.24704933522E+03  0.70524134509E+03  0.65864270000E+03 0. -1.
    8880022    1    1    2    0    0  0.23773492614E+02 -0.44233421449E+02  0.58978845102E+03  0.61136228580E+03  0.15294330000E+03 0.  0.
<mgrwt>
<rscale>  0 0.46411115E+03</rscale>
<asrwt>0</asrwt>
<pdfrwt beam="1">  1        2 0.74912655E-01 0.66055430E+03</pdfrwt>
<pdfrwt beam="2">  1       -2 0.12764175E+00 0.66055430E+03</pdfrwt>
<totfact> 0.29460638E+01</totfact>
</mgrwt>
</event>
<event>
 4    2  0.2930016E-007  0.8096618E+03  0.7818608E-02  0.9690282E-01
         -2   -1    0    0    0  501 -0.00000000000E+00  0.00000000000E+00  0.24671423895E+03  0.24671423897E+03  0.25500000000E-02 0.  1.
          2   -1    0    0  501    0  0.00000000000E+00 -0.00000000000E+00 -0.20921392849E+04  0.20921392849E+04  0.25500000000E-02 0. -1.
    8880023    1    1    2    0    0 -0.69246941337E+02 -0.46577553676E+03 -0.15840686079E+04  0.17789956578E+04  0.65864270000E+03 0. -1.
    8880022    1    1    2    0    0  0.69246941337E+02  0.46577553676E+03 -0.26135643804E+03  0.55985786611E+03  0.15294330000E+03 0.  1.
<mgrwt>
<rscale>  0 0.71598363E+03</rscale>
<asrwt>0</asrwt>
<pdfrwt beam="1">  1        2 0.32186757E+00 0.80966178E+03</pdfrwt>
<pdfrwt beam="2">  1       -2 0.37956038E-01 0.80966178E+03</pdfrwt>
<totfact> 0.39875971E+01</totfact>
</mgrwt>
</event>
<event>
 4    2  0.2930016E-007  0.1424401E+04  0.7818608E-02  0.8964951E-01
          2   -1    0    0  501    0  0.00000000000E+00  0.00000000000E+00  0.17333002632E+04  0.17333002632E+04  0.25500000000E-02 0. -1.
         -2   -1    0    0    0  501 -0.00000000000E+00 -0.00000000000E+00 -0.26581114479E+04  0.26581114479E+04  0.25500000000E-02 0.  1.
    8880023    1    1    2    0    0  0.52405221559E+03 -0.11491199393E+04  0.12346838482E+04  0.18850362784E+04  0.65864270000E+03 0.  0.
    8880022    1    1    2    0    0 -0.52405221559E+03  0.11491199393E+04 -0.21594950328E+04  0.25063754327E+04  0.15294330000E+03 0.  0.
<mgrwt>
<rscale>  0 0.13847240E+04</rscale>
<asrwt>0</asrwt>
<pdfrwt beam="1">  1        2 0.26666158E+00 0.14244008E+04</pdfrwt>
<pdfrwt beam="2">  1       -2 0.40894022E+00 0.14244008E+04</pdfrwt>
<totfact> 0.57931069E-02</totfact>
</mgrwt>
</event>
<event>
 4    2  0.2930016E-007  0.9915669E+03  0.7818608E-02  0.9392675E-01
          2   -1    0    0  501    0  0.00000000000E+00  0.00000000000E+00  0.35379551307E+04  0.35379551307E+04  0.25500000000E-02 0. -1.
         -2   -1    0    0    0  501 -0.00000000000E+00 -0.00000000000E+00 -0.45904737177E+03  0.45904737177E+03  0.25500000000E-02 0.  1.
    8880023    1    1    2    0    0 -0.22838161654E+02 -0.74085975139E+03  0.30847028315E+04  0.32401537800E+04  0.65864270000E+03 0.  0.
    8880022    1    1    2    0    0  0.22838161654E+02  0.74085975139E+03 -0.57950725868E+01  0.75684872250E+03  0.15294330000E+03 0.  0.
<mgrwt>
<rscale>  0 0.92680979E+03</rscale>
<asrwt>0</asrwt>
<pdfrwt beam="1">  1        2 0.54430080E+00 0.99156692E+03</pdfrwt>
<pdfrwt beam="2">  1       -2 0.70622671E-01 0.99156692E+03</pdfrwt>
<totfact> 0.14477417E+00</totfact>
</mgrwt>
</event>
<event>
 4    2  0.2930016E-007  0.6611824E+03  0.7818608E-02  0.1022976E+00
         -2   -1    0    0    0  501 -0.00000000000E+00  0.00000000000E+00  0.67829627396E+03  0.67829627397E+03  0.25500000000E-02 0.  1.
          2   -1    0    0  501    0  0.00000000000E+00 -0.00000000000E+00 -0.11749770202E+04  0.11749770202E+04  0.25500000000E-02 0. -1.
    8880023    1    1    2    0    0  0.55335550786E+02 -0.17026938251E+02 -0.10696060697E+04  0.12574654232E+04  0.65864270000E+03 0. -1.
    8880022    1    1    2    0    0 -0.55335550786E+02  0.17026938251E+02  0.57292532350E+03  0.59580787099E+03  0.15294330000E+03 0.  0.
<mgrwt>
<rscale>  0 0.46627639E+03</rscale>
<asrwt>0</asrwt>
<pdfrwt beam="1">  1        2 0.18076570E+00 0.66118238E+03</pdfrwt>
<pdfrwt beam="2">  1       -2 0.10435327E+00 0.66118238E+03</pdfrwt>
<totfact> 0.15073331E+01</totfact>
</mgrwt>
</event>
<event>
 4    2  0.2930016E-007  0.1190872E+04  0.7818608E-02  0.9166047E-01
         -2   -1    0    0    0  501 -0.00000000000E+00  0.00000000000E+00  0.93647343000E+03  0.93647343001E+03  0.25500000000E-02 0.  1.
          2   -1    0    0  501    0  0.00000000000E+00 -0.00000000000E+00 -0.20802662568E+04  0.20802662568E+04  0.25500000000E-02 0. -1.
    8880023    1    1    2    0    0 -0.81896626160E+03 -0.56005282786E+03 -0.15320079590E+04  0.19404183828E+04  0.65864270000E+03 0. -1.
    8880022    1    1    2    0    0  0.81896626160E+03  0.56005282786E+03  0.38821513217E+03  0.10763213040E+04  0.15294330000E+03 0.  0.
<mgrwt>
<rscale>  0 0.11410854E+04</rscale>
<asrwt>0</asrwt>
<pdfrwt beam="1">  1        2 0.32004096E+00 0.11908716E+04</pdfrwt>
<pdfrwt beam="2">  1       -2 0.14407284E+00 0.11908716E+04</pdfrwt>
<totfact> 0.19589681E+00</totfact>
</mgrwt>
</event>
<event>
 4    2  0.2930016E-007  0.6664153E+03  0.7818608E-02  0.1018374E+00
          2   -1    0    0  501    0  0.00000000000E+00  0.00000000000E+00  0.89474728461E+03  0.89474728462E+03  0.25500000000E-02 0. -1.
         -2   -1    0    0    0  501 -0.00000000000E+00 -0.00000000000E+00 -0.48319464174E+03  0.48319464175E+03  0.25500000000E-02 0.  1.
    8880023    1    1    2    0    0  0.80374257318E+02 -0.61960633332E+02  0.74360949566E+03  0.99853113603E+03  0.65864270000E+03 0. -1.
    8880022    1    1    2    0    0 -0.80374257318E+02  0.61960633332E+02 -0.33205685279E+03  0.37941079033E+03  0.15294330000E+03 0.  0.
<mgrwt>
<rscale>  0 0.48277817E+03</rscale>
<asrwt>0</asrwt>
<pdfrwt beam="1">  1        2 0.13765343E+00 0.66641530E+03</pdfrwt>
<pdfrwt beam="2">  1       -2 0.74337638E-01 0.66641530E+03</pdfrwt>
<totfact> 0.49204235E+01</totfact>
</mgrwt>
</event>
<event>
 4    2  0.2930016E-007  0.7081100E+03  0.7818608E-02  0.9965087E-01
          2   -1    0    0  501    0  0.00000000000E+00  0.00000000000E+00  0.31913470623E+04  0.31913470623E+04  0.25500000000E-02 0. -1.
         -2   -1    0    0    0  501 -0.00000000000E+00 -0.00000000000E+00 -0.26674446506E+03  0.26674446507E+03  0.25500000000E-02 0.  1.
    8880023    1    1    2    0    0 -0.25699918904E+03  0.39509157613E+02  0.30502071381E+04  0.31313229390E+04  0.65864270000E+03 0. -1.
    8880022    1    1    2    0    0  0.25699918904E+03 -0.39509157613E+02 -0.12560454080E+03  0.32676858843E+03  0.15294330000E+03 0.  0.
<mgrwt>
<rscale>  0 0.57207957E+03</rscale>
<asrwt>0</asrwt>
<pdfrwt beam="1">  1        2 0.49097645E+00 0.70810999E+03</pdfrwt>
<pdfrwt beam="2">  1       -2 0.41037611E-01 0.70810999E+03</pdfrwt>
<totfact> 0.79741088E+00</totfact>
</mgrwt>
</event>
<event>
 4    2  0.2930016E-007  0.8005608E+03  0.7818608E-02  0.9709585E-01
          2   -1    0    0  501    0  0.00000000000E+00  0.00000000000E+00  0.12291479400E+04  0.12291479400E+04  0.25500000000E-02 0. -1.
         -2   -1    0    0    0  501 -0.00000000000E+00 -0.00000000000E+00 -0.75000859273E+03  0.75000859273E+03  0.25500000000E-02 0.  1.
    8880023    1    1    2    0    0 -0.28718396393E+02 -0.45416141037E+03  0.99327088956E+03  0.12757290462E+04  0.65864270000E+03 0. -1.
    8880022    1    1    2    0    0  0.28718396393E+02  0.45416141037E+03 -0.51413154233E+03  0.70342748652E+03  0.15294330000E+03 0.  0.
<mgrwt>
<rscale>  0 0.70448969E+03</rscale>
<asrwt>0</asrwt>
<pdfrwt beam="1">  1        2 0.18909968E+00 0.80056077E+03</pdfrwt>
<pdfrwt beam="2">  1       -2 0.11538594E+00 0.80056077E+03</pdfrwt>
<totfact> 0.10790998E+01</totfact>
</mgrwt>
</event>
<event>
 4    2  0.2930016E-007  0.7979291E+03  0.7818608E-02  0.9715292E-01
         -2   -1    0    0    0  501 -0.00000000000E+00  0.00000000000E+00  0.38117744655E+03  0.38117744656E+03  0.25500000000E-02 0.  1.
          2   -1    0    0  501    0  0.00000000000E+00 -0.00000000000E+00 -0.10682081259E+04  0.10682081259E+04  0.25500000000E-02 0. -1.
    8880023    1    1    2    0    0  0.33869304818E+03  0.29693032684E+03 -0.47480035209E+03  0.92850750158E+03  0.65864270000E+03 0. -1.
    8880022    1    1    2    0    0 -0.33869304818E+03 -0.29693032684E+03 -0.21223032723E+03  0.52087807085E+03  0.15294330000E+03 0.  1.
<mgrwt>
<rscale>  0 0.70113578E+03</rscale>
<asrwt>0</asrwt>
<pdfrwt beam="1">  1        2 0.16433971E+00 0.79792907E+03</pdfrwt>
<pdfrwt beam="2">  1       -2 0.58642685E-01 0.79792907E+03</pdfrwt>
<totfact> 0.62697905E+01</totfact>
</mgrwt>
</event>
<event>
 4    2  0.2930016E-007  0.7149436E+03  0.7818608E-02  0.9940082E-01
         -2   -1    0    0    0  501 -0.00000000000E+00  0.00000000000E+00  0.47110144040E+03  0.47110144041E+03  0.25500000000E-02 0.  1.
          2   -1    0    0  501    0  0.00000000000E+00 -0.00000000000E+00 -0.67044253606E+03  0.67044253607E+03  0.25500000000E-02 0. -1.
    8880023    1    1    2    0    0  0.10357861029E+03  0.25808054032E+03 -0.34324400643E+03  0.79307045589E+03  0.65864270000E+03 0.  0.
    8880022    1    1    2    0    0 -0.10357861029E+03 -0.25808054032E+03  0.14390291077E+03  0.34847352058E+03  0.15294330000E+03 0.  0.
<mgrwt>
<rscale>  0 0.58357460E+03</rscale>
<asrwt>0</asrwt>
<pdfrwt beam="1">  1        2 0.10314501E+00 0.71494356E+03</pdfrwt>
<pdfrwt beam="2">  1       -2 0.72477145E-01 0.71494356E+03</pdfrwt>
<totfact> 0.75600948E+01</totfact>
</mgrwt>
</event>
<event>
 4    2  0.2930016E-007  0.1066830E+04  0.7818608E-02  0.9298918E-01
          2   -1    0    0  501    0  0.00000000000E+00  0.00000000000E+00  0.27053785259E+04  0.27053785259E+04  0.25500000000E-02 0. -1.
         -2   -1    0    0    0  501 -0.00000000000E+00 -0.00000000000E+00 -0.34821180320E+03  0.34821180321E+03  0.25500000000E-02 0.  1.
    8880023    1    1    2    0    0 -0.72566747640E+03  0.42157157003E+03  0.10828063609E+04  0.15200643724E+04  0.65864270000E+03 0.  1.
    8880022    1    1    2    0    0  0.72566747640E+03 -0.42157157003E+03  0.12743603618E+04  0.15335259567E+04  0.15294330000E+03 0. -1.
<mgrwt>
<rscale>  0 0.10088254E+04</rscale>
<asrwt>0</asrwt>
<pdfrwt beam="1">  1        2 0.41621208E+00 0.10668299E+04</pdfrwt>
<pdfrwt beam="2">  1       -2 0.53571047E-01 0.10668299E+04</pdfrwt>
<totfact> 0.87231380E+00</totfact>
</mgrwt>
</event>
<event>
 4    2  0.2930016E-007  0.7059512E+03  0.7818608E-02  0.9973355E-01
          2   -1    0    0  501    0  0.00000000000E+00  0.00000000000E+00  0.14629478376E+04  0.14629478377E+04  0.25500000000E-02 0. -1.
         -2   -1    0    0    0  501 -0.00000000000E+00 -0.00000000000E+00 -0.23498515886E+03  0.23498515887E+03  0.25500000000E-02 0.  1.
    8880023    1    1    2    0    0 -0.21008272204E+03  0.14290627071E+03  0.12099344395E+04  0.14008242240E+04  0.65864270000E+03 0. -1.
    8880022    1    1    2    0    0  0.21008272204E+03 -0.14290627071E+03  0.18028239302E+02  0.29710877256E+03  0.15294330000E+03 0.  0.
<mgrwt>
<rscale>  0 0.56834187E+03</rscale>
<asrwt>0</asrwt>
<pdfrwt beam="1">  1        2 0.22506889E+00 0.70595124E+03</pdfrwt>
<pdfrwt beam="2">  1       -2 0.36151564E-01 0.70595124E+03</pdfrwt>
<totfact> 0.98023575E+01</totfact>
</mgrwt>
</event>
<event>
 4    2  0.2930016E-007  0.6626911E+03  0.7818608E-02  0.1021554E+00
          2   -1    0    0  501    0  0.00000000000E+00  0.00000000000E+00  0.11081524751E+04  0.11081524751E+04  0.25500000000E-02 0. -1.
         -2   -1    0    0    0  501 -0.00000000000E+00 -0.00000000000E+00 -0.22955184844E+03  0.22955184846E+03  0.25500000000E-02 0.  1.
    8880023    1    1    2    0    0  0.71087167224E+02  0.17201368140E+02  0.94620566642E+03  0.11551903055E+04  0.65864270000E+03 0. -1.
    8880022    1    1    2    0    0 -0.71087167224E+02 -0.17201368140E+02 -0.67605039716E+02  0.18251401815E+03  0.15294330000E+03 0.  1.
<mgrwt>
<rscale>  0 0.47129837E+03</rscale>
<asrwt>0</asrwt>
<pdfrwt beam="1">  1        2 0.17048500E+00 0.66269109E+03</pdfrwt>
<pdfrwt beam="2">  1       -2 0.35315669E-01 0.66269109E+03</pdfrwt>
<totfact> 0.16508796E+02</totfact>
</mgrwt>
</event>
<event>
 4    2  0.2930016E-007  0.7438612E+03  0.7818608E-02  0.9848839E-01
          2   -1    0    0  501    0  0.00000000000E+00  0.00000000000E+00  0.78757952780E+03  0.78757952781E+03  0.25500000000E-02 0. -1.
         -2   -1    0    0    0  501 -0.00000000000E+00 -0.00000000000E+00 -0.59584411171E+03  0.59584411171E+03  0.25500000000E-02 0.  1.
    8880023    1    1    2    0    0  0.54680662342E+02 -0.34136388260E+03  0.49945199606E+03  0.89598090259E+03  0.65864270000E+03 0. -1.
    8880022    1    1    2    0    0 -0.54680662342E+02  0.34136388260E+03 -0.30771657997E+03  0.48744273692E+03  0.15294330000E+03 0.  0.
<mgrwt>
<rscale>  0 0.62806141E+03</rscale>
<asrwt>0</asrwt>
<pdfrwt beam="1">  1        2 0.12116608E+00 0.74386120E+03</pdfrwt>
<pdfrwt beam="2">  1       -2 0.91668325E-01 0.74386120E+03</pdfrwt>
<totfact> 0.36134757E+01</totfact>
</mgrwt>
</event>
<event>
 4    2  0.2930016E-007  0.9326706E+03  0.7818608E-02  0.9475498E-01
         -2   -1    0    0    0  501 -0.00000000000E+00  0.00000000000E+00  0.64893672046E+03  0.64893672046E+03  0.25500000000E-02 0.  1.
          2   -1    0    0  501    0  0.00000000000E+00 -0.00000000000E+00 -0.99921830582E+03  0.99921830583E+03  0.25500000000E-02 0. -1.
    8880023    1    1    2    0    0 -0.12263102650E+03 -0.64886504975E+03 -0.20294717350E+03  0.95449566942E+03  0.65864270000E+03 0.  1.
    8880022    1    1    2    0    0  0.12263102650E+03  0.64886504975E+03 -0.14733441186E+03  0.69365935687E+03  0.15294330000E+03 0. -1.
<mgrwt>
<rscale>  0 0.86114580E+03</rscale>
<asrwt>0</asrwt>
<pdfrwt beam="1">  1        2 0.15372589E+00 0.93267059E+03</pdfrwt>
<pdfrwt beam="2">  1       -2 0.99836419E-01 0.93267059E+03</pdfrwt>
<totfact> 0.20899453E+01</totfact>
</mgrwt>
</event>
<event>
 4    2  0.2930016E-007  0.9240849E+03  0.7818608E-02  0.9488424E-01
          2   -1    0    0  501    0  0.00000000000E+00  0.00000000000E+00  0.17405295655E+04  0.17405295656E+04  0.25500000000E-02 0. -1.
         -2   -1    0    0    0  501 -0.00000000000E+00 -0.00000000000E+00 -0.64261802359E+03  0.64261802360E+03  0.25500000000E-02 0.  1.
    8880023    1    1    2    0    0  0.11910519699E+03 -0.63713151800E+03  0.13792431404E+04  0.16601941048E+04  0.65864270000E+03 0. -1.
    8880022    1    1    2    0    0 -0.11910519699E+03  0.63713151800E+03 -0.28133159843E+03  0.72295348431E+03  0.15294330000E+03 0.  0.
<mgrwt>
<rscale>  0 0.85142685E+03</rscale>
<asrwt>0</asrwt>
<pdfrwt beam="1">  1        2 0.26777378E+00 0.92408486E+03</pdfrwt>
<pdfrwt beam="2">  1       -2 0.98864311E-01 0.92408486E+03</pdfrwt>
<totfact> 0.79508275E+00</totfact>
</mgrwt>
</event>
<event>
 4    2  0.2930016E-007  0.9023545E+03  0.7818608E-02  0.9522262E-01
         -2   -1    0    0    0  501 -0.00000000000E+00  0.00000000000E+00  0.66141735197E+03  0.66141735198E+03  0.25500000000E-02 0.  1.
          2   -1    0    0  501    0  0.00000000000E+00 -0.00000000000E+00 -0.20897951479E+04  0.20897951479E+04  0.25500000000E-02 0. -1.
    8880023    1    1    2    0    0 -0.61410338010E+03  0.57536148666E+02 -0.18011002139E+04  0.20144988351E+04  0.65864270000E+03 0. -1.
    8880022    1    1    2    0    0  0.61410338010E+03 -0.57536148666E+02  0.37272241804E+03  0.73671366471E+03  0.15294330000E+03 0.  0.
<mgrwt>
<rscale>  0 0.82662214E+03</rscale>
<asrwt>0</asrwt>
<pdfrwt beam="1">  1        2 0.32150694E+00 0.90235446E+03</pdfrwt>
<pdfrwt beam="2">  1       -2 0.10175652E+00 0.90235446E+03</pdfrwt>
<totfact> 0.47863787E+00</totfact>
</mgrwt>
</event>
<event>
 4    2  0.2930016E-007  0.6607836E+03  0.7818608E-02  0.1023368E+00
          2   -1    0    0  501    0  0.00000000000E+00  0.00000000000E+00  0.10528305030E+04  0.10528305030E+04  0.25500000000E-02 0. -1.
         -2   -1    0    0    0  501 -0.00000000000E+00 -0.00000000000E+00 -0.22729641963E+03  0.22729641965E+03  0.25500000000E-02 0.  1.
    8880023    1    1    2    0    0 -0.44542891994E+02 -0.28994219655E+02  0.88774381290E+03  0.11066724979E+04  0.65864270000E+03 0.  0.
    8880022    1    1    2    0    0  0.44542891994E+02  0.28994219655E+02 -0.62209729534E+02  0.17345442475E+03  0.15294330000E+03 0.  1.
<mgrwt>
<rscale>  0 0.46490695E+03</rscale>
<asrwt>0</asrwt>
<pdfrwt beam="1">  1        2 0.16197392E+00 0.66078358E+03</pdfrwt>
<pdfrwt beam="2">  1       -2 0.34968680E-01 0.66078358E+03</pdfrwt>
<totfact> 0.18192592E+02</totfact>
</mgrwt>
</event>
<event>
 4    2  0.2930016E-007  0.9580336E+03  0.7818608E-02  0.9438648E-01
          2   -1    0    0  501    0  0.00000000000E+00  0.00000000000E+00  0.70654800657E+03  0.70654800658E+03  0.25500000000E-02 0. -1.
         -2   -1    0    0    0  501 -0.00000000000E+00 -0.00000000000E+00 -0.16287367431E+04  0.16287367431E+04  0.25500000000E-02 0.  1.
    8880023    1    1    2    0    0  0.46622625172E+03 -0.51638286037E+03  0.22577132442E+03  0.98427692926E+03  0.65864270000E+03 0.  0.
    8880022    1    1    2    0    0 -0.46622625172E+03  0.51638286037E+03 -0.11479600609E+04  0.13510078204E+04  0.15294330000E+03 0.  0.
<mgrwt>
<rscale>  0 0.88962180E+03</rscale>
<asrwt>0</asrwt>
<pdfrwt beam="1">  1        2 0.10869969E+00 0.95803360E+03</pdfrwt>
<pdfrwt beam="2">  1       -2 0.25057488E+00 0.95803360E+03</pdfrwt>
<totfact> 0.25886306E+00</totfact>
</mgrwt>
</event>
<event>
 4    2  0.2930016E-007  0.1120453E+04  0.7818608E-02  0.9238619E-01
         -2   -1    0    0    0  501 -0.00000000000E+00  0.00000000000E+00  0.47291540015E+03  0.47291540016E+03  0.25500000000E-02 0.  1.
          2   -1    0    0  501    0  0.00000000000E+00 -0.00000000000E+00 -0.33444101677E+04  0.33444101677E+04  0.25500000000E-02 0. -1.
    8880023    1    1    2    0    0 -0.35745193984E+03 -0.83296576594E+03 -0.41562264698E+03  0.11950549140E+04  0.65864270000E+03 0.  1.
    8880022    1    1    2    0    0  0.35745193984E+03  0.83296576594E+03 -0.24558721205E+04  0.26222706538E+04  0.15294330000E+03 0.  0.
<mgrwt>
<rscale>  0 0.10663553E+04</rscale>
<asrwt>0</asrwt>
<pdfrwt beam="1">  1        2 0.51452463E+00 0.11204526E+04</pdfrwt>
<pdfrwt beam="2">  1       -2 0.72756217E-01 0.11204526E+04</pdfrwt>
<totfact> 0.17979288E+00</totfact>
</mgrwt>
</event>
<event>
 4    2  0.2930016E-007  0.9029863E+03  0.7818608E-02  0.9521254E-01
         -2   -1    0    0    0  501 -0.00000000000E+00  0.00000000000E+00  0.48247547033E+03  0.48247547034E+03  0.25500000000E-02 0.  1.
          2   -1    0    0  501    0  0.00000000000E+00 -0.00000000000E+00 -0.14678595755E+04  0.14678595755E+04  0.25500000000E-02 0. -1.
    8880023    1    1    2    0    0  0.19453437074E+03  0.58628534076E+03 -0.95342256777E+03  0.13131637069E+04  0.65864270000E+03 0.  0.
    8880022    1    1    2    0    0 -0.19453437074E+03 -0.58628534076E+03 -0.31961537354E+02  0.63717133887E+03  0.15294330000E+03 0.  0.
<mgrwt>
<rscale>  0 0.82734791E+03</rscale>
<asrwt>0</asrwt>
<pdfrwt beam="1">  1        2 0.22582455E+00 0.90298634E+03</pdfrwt>
<pdfrwt beam="2">  1       -2 0.74226996E-01 0.90298634E+03</pdfrwt>
<totfact> 0.21768068E+01</totfact>
</mgrwt>
</event>
<event>
 4    2  0.2930016E-007  0.7559308E+03  0.7818608E-02  0.9815758E-01
          2   -1    0    0  501    0  0.00000000000E+00  0.00000000000E+00  0.19937195159E+04  0.19937195159E+04  0.25500000000E-02 0. -1.
         -2   -1    0    0    0  501 -0.00000000000E+00 -0.00000000000E+00 -0.65013863795E+03  0.65013863796E+03  0.25500000000E-02 0.  1.
    8880023    1    1    2    0    0  0.87224845819E+02  0.36057317848E+03  0.18495637160E+04  0.19980784110E+04  0.65864270000E+03 0. -1.
    8880022    1    1    2    0    0 -0.87224845819E+02 -0.36057317848E+03 -0.50598283809E+03  0.64577974281E+03  0.15294330000E+03 0.  0.
<mgrwt>
<rscale>  0 0.64523676E+03</rscale>
<asrwt>0</asrwt>
<pdfrwt beam="1">  1        2 0.30672607E+00 0.75593081E+03</pdfrwt>
<pdfrwt beam="2">  1       -2 0.10002133E+00 0.75593081E+03</pdfrwt>
<totfact> 0.57541430E+00</totfact>
</mgrwt>
</event>
<event>
 4    2  0.3141672E-007  0.6982812E+03  0.7818608E-02  0.1000441E+00
         -2   -1    0    0    0  501 -0.00000000000E+00  0.00000000000E+00  0.48001699824E+03  0.48001699825E+03  0.25500000000E-02 0.  1.
          2   -1    0    0  501    0  0.00000000000E+00 -0.00000000000E+00 -0.28589742851E+04  0.28589742851E+04  0.25500000000E-02 0. -1.
    8880023    1    1    2    0    0  0.60589407107E+02 -0.22386466729E+03 -0.27714861392E+04  0.28580993845E+04  0.65864270000E+03 0. -1.
    8880022    1    1    2    0    0 -0.60589407107E+02  0.22386466729E+03  0.39252885231E+03  0.48089189890E+03  0.15294330000E+03 0.  0.
<mgrwt>
<rscale>  0 0.55457406E+03</rscale>
<asrwt>0</asrwt>
<pdfrwt beam="1">  1        2 0.43984219E+00 0.69828123E+03</pdfrwt>
<pdfrwt beam="2">  1       -2 0.73848771E-01 0.69828123E+03</pdfrwt>
<totfact> 0.37748597E+00</totfact>
</mgrwt>
</event>
<event>
 4    2  0.3495369E-007  0.7765727E+03  0.7818608E-02  0.9763950E-01
         -2   -1    0    0    0  501 -0.00000000000E+00  0.00000000000E+00  0.10730319889E+04  0.10730319889E+04  0.25500000000E-02 0.  1.
          2   -1    0    0  501    0  0.00000000000E+00 -0.00000000000E+00 -0.21625055810E+04  0.21625055810E+04  0.25500000000E-02 0. -1.
    8880023    1    1    2    0    0 -0.27307495084E+03 -0.30770931072E+03 -0.20431234143E+04  0.21857306424E+04  0.65864270000E+03 0. -1.
    8880022    1    1    2    0    0  0.27307495084E+03  0.30770931072E+03  0.95364982225E+03  0.10498069276E+04  0.15294330000E+03 0.  0.
<mgrwt>
<rscale>  0 0.67333588E+03</rscale>
<asrwt>0</asrwt>
<pdfrwt beam="1">  1        2 0.33269316E+00 0.77657270E+03</pdfrwt>
<pdfrwt beam="2">  1       -2 0.16508185E+00 0.77657270E+03</pdfrwt>
<totfact> 0.13011725E+00</totfact>
</mgrwt>
</event>
<event>
 4    2  0.2930016E-007  0.8677337E+03  0.7818608E-02  0.9579952E-01
          2   -1    0    0  501    0  0.00000000000E+00  0.00000000000E+00  0.25520020821E+04  0.25520020821E+04  0.25500000000E-02 0. -1.
         -2   -1    0    0    0  501 -0.00000000000E+00 -0.00000000000E+00 -0.31059060563E+03  0.31059060564E+03  0.25500000000E-02 0.  1.
    8880023    1    1    2    0    0 -0.48685731032E+03 -0.28656839901E+03  0.20826201163E+04  0.22561622820E+04  0.65864270000E+03 0. -1.
    8880022    1    1    2    0    0  0.48685731032E+03  0.28656839901E+03  0.15879136024E+03  0.60643040576E+03  0.15294330000E+03 0.  0.
<mgrwt>
<rscale>  0 0.78637417E+03</rscale>
<asrwt>0</asrwt>
<pdfrwt beam="1">  1        2 0.39261571E+00 0.86773365E+03</pdfrwt>
<pdfrwt beam="2">  1       -2 0.47783169E-01 0.86773365E+03</pdfrwt>
<totfact> 0.13884365E+01</totfact>
</mgrwt>
</event>
<event>
 4    2  0.2930016E-007  0.6910745E+03  0.7818608E-02  0.1003646E+00
          2   -1    0    0  501    0  0.00000000000E+00  0.00000000000E+00  0.18339156909E+04  0.18339156909E+04  0.25500000000E-02 0. -1.
         -2   -1    0    0    0  501 -0.00000000000E+00 -0.00000000000E+00 -0.18688821797E+03  0.18688821799E+03  0.25500000000E-02 0.  1.
    8880023    1    1    2    0    0  0.10700449573E+03  0.17978836197E+03  0.16187591613E+04  0.17601037599E+04  0.65864270000E+03 0. -1.
    8880022    1    1    2    0    0 -0.10700449573E+03 -0.17978836197E+03  0.28268311636E+02  0.26070014895E+03  0.15294330000E+03 0.  0.
<mgrwt>
<rscale>  0 0.54080031E+03</rscale>
<asrwt>0</asrwt>
<pdfrwt beam="1">  1        2 0.28214087E+00 0.69107454E+03</pdfrwt>
<pdfrwt beam="2">  1       -2 0.28752034E-01 0.69107454E+03</pdfrwt>
<totfact> 0.94410522E+01</totfact>
</mgrwt>
</event>
<event>
 4    2  0.2930016E-007  0.1087519E+04  0.7818608E-02  0.9275081E-01
         -2   -1    0    0    0  501 -0.00000000000E+00  0.00000000000E+00  0.43249316281E+03  0.43249316281E+03  0.25500000000E-02 0.  1.
          2   -1    0    0  501    0  0.00000000000E+00 -0.00000000000E+00 -0.24290359783E+04  0.24290359783E+04  0.25500000000E-02 0. -1.
    8880023    1    1    2    0    0 -0.47255437502E+03  0.72496824298E+03 -0.14981145811E+04  0.18512277264E+04  0.65864270000E+03 0. -1.
    8880022    1    1    2    0    0  0.47255437502E+03 -0.72496824298E+03 -0.49842823441E+03  0.10103014147E+04  0.15294330000E+03 0.  0.
<mgrwt>
<rscale>  0 0.10310964E+04</rscale>
<asrwt>0</asrwt>
<pdfrwt beam="1">  1        2 0.37369783E+00 0.10875186E+04</pdfrwt>
<pdfrwt beam="2">  1       -2 0.66537411E-01 0.10875186E+04</pdfrwt>
<totfact> 0.79378279E+00</totfact>
</mgrwt>
</event>
<event>
 4    2  0.2930016E-007  0.7079787E+03  0.7818608E-02  0.9965585E-01
          2   -1    0    0  501    0  0.00000000000E+00  0.00000000000E+00  0.78675748391E+03  0.78675748391E+03  0.25500000000E-02 0. -1.
         -2   -1    0    0    0  501 -0.00000000000E+00 -0.00000000000E+00 -0.73040214032E+03  0.73040214032E+03  0.25500000000E-02 0.  1.
    8880023    1    1    2    0    0 -0.13647695938E+03 -0.22090210197E+03  0.57851173258E+03  0.91428099078E+03  0.65864270000E+03 0. -1.
    8880022    1    1    2    0    0  0.13647695938E+03  0.22090210197E+03 -0.52215638899E+03  0.60287863346E+03  0.15294330000E+03 0.  0.
<mgrwt>
<rscale>  0 0.57185388E+03</rscale>
<asrwt>0</asrwt>
<pdfrwt beam="1">  1        2 0.12103961E+00 0.70797875E+03</pdfrwt>
<pdfrwt beam="2">  1       -2 0.11236956E+00 0.70797875E+03</pdfrwt>
<totfact> 0.22378919E+01</totfact>
</mgrwt>
</event>
<event>
 4    2  0.2930016E-007  0.8171525E+03  0.7818608E-02  0.9674867E-01
         -2   -1    0    0    0  501 -0.00000000000E+00  0.00000000000E+00  0.24104184956E+03  0.24104184957E+03  0.25500000000E-02 0.  1.
          2   -1    0    0  501    0  0.00000000000E+00 -0.00000000000E+00 -0.19913439697E+04  0.19913439697E+04  0.25500000000E-02 0. -1.
    8880023    1    1    2    0    0  0.37543402434E+03  0.30492174270E+03 -0.13820212536E+04  0.16055282394E+04  0.65864270000E+03 0. -1.
    8880022    1    1    2    0    0 -0.37543402434E+03 -0.30492174270E+03 -0.36828086658E+03  0.62685757992E+03  0.15294330000E+03 0.  1.
<mgrwt>
<rscale>  0 0.72533134E+03</rscale>
<asrwt>0</asrwt>
<pdfrwt beam="1">  1        2 0.30636060E+00 0.81715248E+03</pdfrwt>
<pdfrwt beam="2">  1       -2 0.37083363E-01 0.81715248E+03</pdfrwt>
<totfact> 0.47323920E+01</totfact>
</mgrwt>
</event>
<event>
 4    2  0.2930016E-007  0.7719355E+03  0.7818608E-02  0.9775133E-01
          2   -1    0    0  501    0  0.00000000000E+00  0.00000000000E+00  0.88592773471E+03  0.88592773471E+03  0.25500000000E-02 0. -1.
         -2   -1    0    0    0  501 -0.00000000000E+00 -0.00000000000E+00 -0.76675353020E+03  0.76675353020E+03  0.25500000000E-02 0.  1.
    8880023    1    1    2    0    0  0.23012143944E+02 -0.40192608119E+03  0.62148981372E+03  0.99102670415E+03  0.65864270000E+03 0. -1.
    8880022    1    1    2    0    0 -0.23012143944E+02  0.40192608119E+03 -0.50231560921E+03  0.66165456077E+03  0.15294330000E+03 0.  0.
<mgrwt>
<rscale>  0 0.66714266E+03</rscale>
<asrwt>0</asrwt>
<pdfrwt beam="1">  1        2 0.13629657E+00 0.77193545E+03</pdfrwt>
<pdfrwt beam="2">  1       -2 0.11796208E+00 0.77193545E+03</pdfrwt>
<totfact> 0.16826949E+01</totfact>
</mgrwt>
</event>
<event>
 4    2  0.2930016E-007  0.6603610E+03  0.7818608E-02  0.1023790E+00
         -2   -1    0    0    0  501 -0.00000000000E+00  0.00000000000E+00  0.22398482987E+03  0.22398482988E+03  0.25500000000E-02 0.  1.
          2   -1    0    0  501    0  0.00000000000E+00 -0.00000000000E+00 -0.14427208210E+04  0.14427208210E+04  0.25500000000E-02 0. -1.
    8880023    1    1    2    0    0  0.47575001549E+02 -0.17397790852E+01 -0.13208623568E+04  0.14767376136E+04  0.65864270000E+03 0.  0.
    8880022    1    1    2    0    0 -0.47575001549E+02  0.17397790852E+01  0.10212636567E+03  0.18996803727E+03  0.15294330000E+03 0.  1.
<mgrwt>
<rscale>  0 0.46343521E+03</rscale>
<asrwt>0</asrwt>
<pdfrwt beam="1">  1        2 0.22195704E+00 0.66036097E+03</pdfrwt>
<pdfrwt beam="2">  1       -2 0.34459206E-01 0.66036097E+03</pdfrwt>
<totfact> 0.11071458E+02</totfact>
</mgrwt>
</event>
<event>
 4    2  0.2930016E-007  0.6784434E+03  0.7818608E-02  0.1010218E+00
         -2   -1    0    0    0  501 -0.00000000000E+00  0.00000000000E+00  0.10109974307E+04  0.10109974307E+04  0.25500000000E-02 0.  1.
          2   -1    0    0  501    0  0.00000000000E+00 -0.00000000000E+00 -0.70937393326E+03  0.70937393327E+03  0.25500000000E-02 0. -1.
    8880023    1    1    2    0    0  0.14184186155E+03  0.79725222485E+02 -0.52896695021E+03  0.86028568828E+03  0.65864270000E+03 0. -1.
    8880022    1    1    2    0    0 -0.14184186155E+03 -0.79725222485E+02  0.83059044767E+03  0.86008567571E+03  0.15294330000E+03 0.  0.
<mgrwt>
<rscale>  0 0.51388002E+03</rscale>
<asrwt>0</asrwt>
<pdfrwt beam="1">  1        2 0.10913445E+00 0.67844339E+03</pdfrwt>
<pdfrwt beam="2">  1       -2 0.15553807E+00 0.67844339E+03</pdfrwt>
<totfact> 0.11219979E+01</totfact>
</mgrwt>
</event>
<event>
 4    2  0.2930016E-007  0.8105582E+03  0.7818608E-02  0.9688415E-01
          2   -1    0    0  501    0  0.00000000000E+00  0.00000000000E+00  0.13313994485E+04  0.13313994485E+04  0.25500000000E-02 0. -1.
         -2   -1    0    0    0  501 -0.00000000000E+00 -0.00000000000E+00 -0.58681150674E+03  0.58681150674E+03  0.25500000000E-02 0.  1.
    8880023    1    1    2    0    0  0.45969926296E+03 -0.10895387127E+03  0.10566417739E+04  0.13317268500E+04  0.65864270000E+03 0. -1.
    8880022    1    1    2    0    0 -0.45969926296E+03  0.10895387127E+03 -0.31205383219E+03  0.58648410518E+03  0.15294330000E+03 0.  0.
<mgrwt>
<rscale>  0 0.71710739E+03</rscale>
<asrwt>0</asrwt>
<pdfrwt beam="1">  1        2 0.20483068E+00 0.81055818E+03</pdfrwt>
<pdfrwt beam="2">  1       -2 0.90278693E-01 0.81055818E+03</pdfrwt>
<totfact> 0.16867453E+01</totfact>
</mgrwt>
</event>
<event>
 4    2  0.2930016E-007  0.6815791E+03  0.7818608E-02  0.1008444E+00
         -2   -1    0    0    0  501 -0.00000000000E+00  0.00000000000E+00  0.16592831090E+03  0.16592831092E+03  0.25500000000E-02 0.  1.
          2   -1    0    0  501    0  0.00000000000E+00 -0.00000000000E+00 -0.13908297186E+04  0.13908297186E+04  0.25500000000E-02 0. -1.
    8880023    1    1    2    0    0  0.16164737810E+03  0.67897115351E+02 -0.10963536177E+04  0.12909459146E+04  0.65864270000E+03 0. -1.
    8880022    1    1    2    0    0 -0.16164737810E+03 -0.67897115351E+02 -0.12854779005E+03  0.26581211497E+03  0.15294330000E+03 0.  0.
<mgrwt>
<rscale>  0 0.52097695E+03</rscale>
<asrwt>0</asrwt>
<pdfrwt beam="1">  1        2 0.21397380E+00 0.68157912E+03</pdfrwt>
<pdfrwt beam="2">  1       -2 0.25527433E-01 0.68157912E+03</pdfrwt>
<totfact> 0.20586425E+02</totfact>
</mgrwt>
</event>
<event>
 4    2  0.2930016E-007  0.1258347E+04  0.7818608E-02  0.9102391E-01
         -2   -1    0    0    0  501 -0.00000000000E+00  0.00000000000E+00  0.21094513658E+04  0.21094513658E+04  0.25500000000E-02 0.  1.
          2   -1    0    0  501    0  0.00000000000E+00 -0.00000000000E+00 -0.11148176691E+04  0.11148176691E+04  0.25500000000E-02 0. -1.
    8880023    1    1    2    0    0  0.14990655801E+03  0.10616758388E+04  0.15586055523E+04  0.20031697474E+04  0.65864270000E+03 0.  0.
    8880022    1    1    2    0    0 -0.14990655801E+03 -0.10616758388E+04 -0.56397185566E+03  0.12210992875E+04  0.15294330000E+03 0.  0.
<mgrwt>
<rscale>  0 0.12120304E+04</rscale>
<asrwt>0</asrwt>
<pdfrwt beam="1">  1        2 0.17151041E+00 0.12583472E+04</pdfrwt>
<pdfrwt beam="2">  1       -2 0.32453098E+00 0.12583472E+04</pdfrwt>
<totfact> 0.46557251E-01</totfact>
</mgrwt>
</event>
<event>
 4    2  0.3191038E-007  0.7479762E+03  0.7818608E-02  0.9837294E-01
          2   -1    0    0  501    0  0.00000000000E+00  0.00000000000E+00  0.26941766161E+04  0.26941766161E+04  0.25500000000E-02 0. -1.
         -2   -1    0    0    0  501 -0.00000000000E+00 -0.00000000000E+00 -0.51098775574E+03  0.51098775575E+03  0.25500000000E-02 0.  1.
    8880023    1    1    2    0    0  0.16562340228E+03  0.31341197549E+03  0.25591874181E+04  0.26662536685E+04  0.65864270000E+03 0. -1.
    8880022    1    1    2    0    0 -0.16562340228E+03 -0.31341197549E+03 -0.37599855771E+03  0.53891070334E+03  0.15294330000E+03 0.  0.
<mgrwt>
<rscale>  0 0.63398979E+03</rscale>
<asrwt>0</asrwt>
<pdfrwt beam="1">  1        2 0.41448870E+00 0.74797619E+03</pdfrwt>
<pdfrwt beam="2">  1       -2 0.78613502E-01 0.74797619E+03</pdfrwt>
<totfact> 0.40661408E+00</totfact>
</mgrwt>
</event>
<event>
 4    2  0.2930016E-007  0.8324716E+03  0.7818608E-02  0.9644542E-01
         -2   -1    0    0    0  501 -0.00000000000E+00  0.00000000000E+00  0.53523825993E+03  0.53523825993E+03  0.25500000000E-02 0.  1.
          2   -1    0    0  501    0  0.00000000000E+00 -0.00000000000E+00 -0.98299064085E+03  0.98299064085E+03  0.25500000000E-02 0. -1.
    8880023    1    1    2    0    0  0.13281141830E+03 -0.49148748021E+03 -0.52032404599E+03  0.98170572736E+03  0.65864270000E+03 0.  0.
    8880022    1    1    2    0    0 -0.13281141830E+03  0.49148748021E+03  0.72571665069E+02  0.53652317342E+03  0.15294330000E+03 0.  0.
<mgrwt>
<rscale>  0 0.74416934E+03</rscale>
<asrwt>0</asrwt>
<pdfrwt beam="1">  1        2 0.15122933E+00 0.83247163E+03</pdfrwt>
<pdfrwt beam="2">  1       -2 0.82344347E-01 0.83247163E+03</pdfrwt>
<totfact> 0.33736620E+01</totfact>
</mgrwt>
</event>
<event>
 4    2  0.2930016E-007  0.7291340E+03  0.7818608E-02  0.9892810E-01
          2   -1    0    0  501    0  0.00000000000E+00  0.00000000000E+00  0.17980487005E+04  0.17980487005E+04  0.25500000000E-02 0. -1.
         -2   -1    0    0    0  501 -0.00000000000E+00 -0.00000000000E+00 -0.48794888732E+03  0.48794888733E+03  0.25500000000E-02 0.  1.
    8880023    1    1    2    0    0 -0.31177877805E+03 -0.24904772548E+02  0.16472111583E+04  0.18013719939E+04  0.65864270000E+03 0. -1.
    8880022    1    1    2    0    0  0.31177877805E+03  0.24904772548E+02 -0.33711134519E+03  0.48462559385E+03  0.15294330000E+03 0.  0.
<mgrwt>
<rscale>  0 0.60610991E+03</rscale>
<asrwt>0</asrwt>
<pdfrwt beam="1">  1        2 0.27662288E+00 0.72913405E+03</pdfrwt>
<pdfrwt beam="2">  1       -2 0.75069058E-01 0.72913405E+03</pdfrwt>
<totfact> 0.14244153E+01</totfact>
</mgrwt>
</event>
<event>
 4    2  0.2930016E-007  0.9137601E+03  0.7818608E-02  0.9504294E-01
         -2   -1    0    0    0  501 -0.00000000000E+00  0.00000000000E+00  0.51539212116E+03  0.51539212117E+03  0.25500000000E-02 0.  1.
          2   -1    0    0  501    0  0.00000000000E+00 -0.00000000000E+00 -0.16562783205E+04  0.16562783205E+04  0.25500000000E-02 0. -1.
    8880023    1    1    2    0    0 -0.47355721599E+03  0.42058405587E+03 -0.12102038066E+04  0.15164269994E+04  0.65864270000E+03 0. -1.
    8880022    1    1    2    0    0  0.47355721599E+03 -0.42058405587E+03  0.69317607277E+02  0.65524344221E+03  0.15294330000E+03 0.  0.
<mgrwt>
<rscale>  0 0.83968010E+03</rscale>
<asrwt>0</asrwt>
<pdfrwt beam="1">  1        2 0.25481205E+00 0.91376014E+03</pdfrwt>
<pdfrwt beam="2">  1       -2 0.79291096E-01 0.91376014E+03</pdfrwt>
<totfact> 0.14735552E+01</totfact>
</mgrwt>
</event>
<event>
 4    2  0.2930016E-007  0.8699386E+03  0.7818608E-02  0.9576123E-01
         -2   -1    0    0    0  501 -0.00000000000E+00  0.00000000000E+00  0.68247559991E+03  0.68247559991E+03  0.25500000000E-02 0.  1.
          2   -1    0    0  501    0  0.00000000000E+00 -0.00000000000E+00 -0.95976338079E+03  0.95976338080E+03  0.25500000000E-02 0. -1.
    8880023    1    1    2    0    0  0.41392444461E+03  0.38942205808E+03 -0.51109040545E+03  0.10089631282E+04  0.65864270000E+03 0.  0.
    8880022    1    1    2    0    0 -0.41392444461E+03 -0.38942205808E+03  0.23380262456E+03  0.63327585256E+03  0.15294330000E+03 0.  0.
<mgrwt>
<rscale>  0 0.78896860E+03</rscale>
<asrwt>0</asrwt>
<pdfrwt beam="1">  1        2 0.14765591E+00 0.86993861E+03</pdfrwt>
<pdfrwt beam="2">  1       -2 0.10499625E+00 0.86993861E+03</pdfrwt>
<totfact> 0.19754304E+01</totfact>
</mgrwt>
</event>
<event>
 4    2  0.2930016E-007  0.7288872E+03  0.7818608E-02  0.9893587E-01
          2   -1    0    0  501    0  0.00000000000E+00  0.00000000000E+00  0.96891394923E+03  0.96891394923E+03  0.25500000000E-02 0. -1.
         -2   -1    0    0    0  501 -0.00000000000E+00 -0.00000000000E+00 -0.73591675594E+03  0.73591675595E+03  0.25500000000E-02 0.  1.
    8880023    1    1    2    0    0  0.21446983724E+03  0.22686782834E+03  0.77309361755E+03  0.10625207153E+04  0.65864270000E+03 0.  0.
    8880022    1    1    2    0    0 -0.21446983724E+03 -0.22686782834E+03 -0.54009642426E+03  0.64230998991E+03  0.15294330000E+03 0.  1.
<mgrwt>
<rscale>  0 0.60573079E+03</rscale>
<asrwt>0</asrwt>
<pdfrwt beam="1">  1        2 0.14906368E+00 0.72888719E+03</pdfrwt>
<pdfrwt beam="2">  1       -2 0.11321796E+00 0.72888719E+03</pdfrwt>
<totfact> 0.16464756E+01</totfact>
</mgrwt>
</event>
<event>
 4    2  0.2930016E-007  0.1435701E+04  0.7818608E-02  0.8956427E-01
          2   -1    0    0  501    0  0.00000000000E+00  0.00000000000E+00  0.61189842769E+03  0.61189842770E+03  0.25500000000E-02 0. -1.
         -2   -1    0    0    0  501 -0.00000000000E+00 -0.00000000000E+00 -0.31175371415E+04  0.31175371415E+04  0.25500000000E-02 0.  1.
    8880023    1    1    2    0    0  0.65193109162E+03  0.10965465562E+04 -0.16428357147E+04  0.21817763153E+04  0.65864270000E+03 0.  0.
    8880022    1    1    2    0    0 -0.65193109162E+03 -0.10965465562E+04 -0.86280299909E+03  0.15476592539E+04  0.15294330000E+03 0.  0.
<mgrwt>
<rscale>  0 0.13964024E+04</rscale>
<asrwt>0</asrwt>
<pdfrwt beam="1">  1        2 0.94138221E-01 0.14357015E+04</pdfrwt>
<pdfrwt beam="2">  1       -2 0.47962109E+00 0.14357015E+04</pdfrwt>
<totfact> 0.10327217E-01</totfact>
</mgrwt>
</event>
<event>
 4    2  0.2930016E-007  0.6875733E+03  0.7818608E-02  0.1005328E+00
         -2   -1    0    0    0  501 -0.00000000000E+00  0.00000000000E+00  0.92988294348E+02  0.92988294383E+02  0.25500000000E-02 0.  1.
          2   -1    0    0  501    0  0.00000000000E+00 -0.00000000000E+00 -0.29093764636E+04  0.29093764636E+04  0.25500000000E-02 0. -1.
    8880023    1    1    2    0    0  0.18933145449E+03  0.55681914142E+02 -0.25330779199E+04  0.26247363353E+04  0.65864270000E+03 0. -1.
    8880022    1    1    2    0    0 -0.18933145449E+03 -0.55681914142E+02 -0.28331024932E+03  0.37762842267E+03  0.15294330000E+03 0. -1.
<mgrwt>
<rscale>  0 0.53374502E+03</rscale>
<asrwt>0</asrwt>
<pdfrwt beam="1">  1        2 0.44759631E+00 0.68757333E+03</pdfrwt>
<pdfrwt beam="2">  1       -2 0.14305894E-01 0.68757333E+03</pdfrwt>
<totfact> 0.79821395E+01</totfact>
</mgrwt>
</event>
<event>
 4    2  0.3098485E-007  0.7072699E+03  0.7818608E-02  0.9968282E-01
          2   -1    0    0  501    0  0.00000000000E+00  0.00000000000E+00  0.27675139303E+04  0.27675139303E+04  0.25500000000E-02 0. -1.
         -2   -1    0    0    0  501 -0.00000000000E+00 -0.00000000000E+00 -0.69104198977E+03  0.69104198977E+03  0.25500000000E-02 0.  1.
    8880023    1    1    2    0    0  0.14486077035E+01 -0.25771765468E+03  0.26869549592E+04  0.27784811763E+04  0.65864270000E+03 0. -1.
    8880022    1    1    2    0    0 -0.14486077035E+01  0.25771765468E+03 -0.61048301868E+03  0.68007474377E+03  0.15294330000E+03 0.  0.
<mgrwt>
<rscale>  0 0.57063152E+03</rscale>
<asrwt>0</asrwt>
<pdfrwt beam="1">  1        2 0.42577138E+00 0.70726989E+03</pdfrwt>
<pdfrwt beam="2">  1       -2 0.10631415E+00 0.70726989E+03</pdfrwt>
<totfact> 0.18452403E+00</totfact>
</mgrwt>
</event>
<event>
 4    2  0.2930016E-007  0.6836400E+03  0.7818608E-02  0.1007335E+00
          2   -1    0    0  501    0  0.00000000000E+00  0.00000000000E+00  0.24141111615E+04  0.24141111615E+04  0.25500000000E-02 0. -1.
         -2   -1    0    0    0  501 -0.00000000000E+00 -0.00000000000E+00 -0.31821411197E+03  0.31821411198E+03  0.25500000000E-02 0.  1.
    8880023    1    1    2    0    0 -0.18317454831E+03  0.74596530913E+00  0.23116497525E+04  0.24106198905E+04  0.65864270000E+03 0. -1.
    8880022    1    1    2    0    0  0.18317454831E+03 -0.74596530913E+00 -0.21575270299E+03  0.32170538304E+03  0.15294330000E+03 0.  0.
<mgrwt>
<rscale>  0 0.52547575E+03</rscale>
<asrwt>0</asrwt>
<pdfrwt beam="1">  1        2 0.37140171E+00 0.68364002E+03</pdfrwt>
<pdfrwt beam="2">  1       -2 0.48956018E-01 0.68364002E+03</pdfrwt>
<totfact> 0.16277596E+01</totfact>
</mgrwt>
</event>
<event>
 4    2  0.2930016E-007  0.8227080E+03  0.7818608E-02  0.9663690E-01
         -2   -1    0    0    0  501 -0.00000000000E+00  0.00000000000E+00  0.25890771954E+03  0.25890771955E+03  0.25500000000E-02 0.  1.
          2   -1    0    0  501    0  0.00000000000E+00 -0.00000000000E+00 -0.24389801349E+04  0.24389801349E+04  0.25500000000E-02 0. -1.
    8880023    1    1    2    0    0  0.42436712730E+03 -0.25090006282E+03 -0.19803219105E+04  0.21444167915E+04  0.65864270000E+03 0.  0.
    8880022    1    1    2    0    0 -0.42436712730E+03  0.25090006282E+03 -0.19975050481E+03  0.55347106288E+03  0.15294330000E+03 0.  0.
<mgrwt>
<rscale>  0 0.73220415E+03</rscale>
<asrwt>0</asrwt>
<pdfrwt beam="1">  1        2 0.37522770E+00 0.82270803E+03</pdfrwt>
<pdfrwt beam="2">  1       -2 0.39831959E-01 0.82270803E+03</pdfrwt>
<totfact> 0.23253483E+01</totfact>
</mgrwt>
</event>
<event>
 4    2  0.2930016E-007  0.9916673E+03  0.7818608E-02  0.9392541E-01
         -2   -1    0    0    0  501 -0.00000000000E+00  0.00000000000E+00  0.89056277911E+03  0.89056277912E+03  0.25500000000E-02 0.  1.
          2   -1    0    0  501    0  0.00000000000E+00 -0.00000000000E+00 -0.15454333554E+04  0.15454333554E+04  0.25500000000E-02 0. -1.
    8880023    1    1    2    0    0 -0.68461943881E+03  0.28441189442E+03  0.45620638123E+03  0.10915715140E+04  0.65864270000E+03 0.  0.
    8880022    1    1    2    0    0  0.68461943881E+03 -0.28441189442E+03 -0.11110769575E+04  0.13444246205E+04  0.15294330000E+03 0.  0.
<mgrwt>
<rscale>  0 0.92692045E+03</rscale>
<asrwt>0</asrwt>
<pdfrwt beam="1">  1        2 0.23775898E+00 0.99166734E+03</pdfrwt>
<pdfrwt beam="2">  1       -2 0.13700966E+00 0.99166734E+03</pdfrwt>
<totfact> 0.45198976E+00</totfact>
</mgrwt>
</event>
<event>
 4    2  0.2930016E-007  0.1043492E+04  0.7818608E-02  0.9326746E-01
         -2   -1    0    0    0  501 -0.00000000000E+00  0.00000000000E+00  0.78938905382E+03  0.78938905382E+03  0.25500000000E-02 0.  1.
          2   -1    0    0  501    0  0.00000000000E+00 -0.00000000000E+00 -0.17547133705E+04  0.17547133705E+04  0.25500000000E-02 0. -1.
    8880023    1    1    2    0    0 -0.35263798998E+03  0.72850006328E+03 -0.12895870148E+04  0.16588884138E+04  0.65864270000E+03 0.  0.
    8880022    1    1    2    0    0  0.35263798998E+03 -0.72850006328E+03  0.32426269813E+03  0.88521401061E+03  0.15294330000E+03 0.  0.
<mgrwt>
<rscale>  0 0.98357450E+03</rscale>
<asrwt>0</asrwt>
<pdfrwt beam="1">  1        2 0.26995590E+00 0.10434923E+04</pdfrwt>
<pdfrwt beam="2">  1       -2 0.12144447E+00 0.10434923E+04</pdfrwt>
<totfact> 0.46704773E+00</totfact>
</mgrwt>
</event>
<event>
 4    2  0.3035683E-007  0.8659905E+03  0.7818608E-02  0.9582995E-01
         -2   -1    0    0    0  501 -0.00000000000E+00  0.00000000000E+00  0.12145673440E+04  0.12145673440E+04  0.25500000000E-02 0.  1.
          2   -1    0    0  501    0  0.00000000000E+00 -0.00000000000E+00 -0.18221541206E+04  0.18221541206E+04  0.25500000000E-02 0. -1.
    8880023    1    1    2    0    0 -0.43870475511E+03  0.35166390012E+03 -0.16380779141E+04  0.18529001105E+04  0.65864270000E+03 0. -1.
    8880022    1    1    2    0    0  0.43870475511E+03 -0.35166390012E+03  0.10304911375E+04  0.11838213541E+04  0.15294330000E+03 0.  0.
<mgrwt>
<rscale>  0 0.78431981E+03</rscale>
<asrwt>0</asrwt>
<pdfrwt beam="1">  1        2 0.28033140E+00 0.86599051E+03</pdfrwt>
<pdfrwt beam="2">  1       -2 0.18685651E+00 0.86599051E+03</pdfrwt>
<totfact> 0.13874328E+00</totfact>
</mgrwt>
</event>
<event>
 4    2  0.2930016E-007  0.6781160E+03  0.7818608E-02  0.1010410E+00
          2   -1    0    0  501    0  0.00000000000E+00  0.00000000000E+00  0.17263246072E+04  0.17263246072E+04  0.25500000000E-02 0. -1.
         -2   -1    0    0    0  501 -0.00000000000E+00 -0.00000000000E+00 -0.57710012225E+03  0.57710012225E+03  0.25500000000E-02 0.  1.
    8880023    1    1    2    0    0 -0.10435881034E+03  0.12304589296E+03  0.16345356171E+04  0.17696180218E+04  0.65864270000E+03 0. -1.
    8880022    1    1    2    0    0  0.10435881034E+03 -0.12304589296E+03 -0.48531113221E+03  0.53380670765E+03  0.15294330000E+03 0.  0.
<mgrwt>
<rscale>  0 0.51311982E+03</rscale>
<asrwt>0</asrwt>
<pdfrwt beam="1">  1        2 0.26558840E+00 0.67811596E+03</pdfrwt>
<pdfrwt beam="2">  1       -2 0.88784635E-01 0.67811596E+03</pdfrwt>
<totfact> 0.10755459E+01</totfact>
</mgrwt>
</event>
<event>
 4    2  0.2930016E-007  0.6659698E+03  0.7818608E-02  0.1018733E+00
         -2   -1    0    0    0  501 -0.00000000000E+00  0.00000000000E+00  0.96132783207E+03  0.96132783207E+03  0.25500000000E-02 0.  1.
          2   -1    0    0  501    0  0.00000000000E+00 -0.00000000000E+00 -0.35073763023E+03  0.35073763023E+03  0.25500000000E-02 0. -1.
    8880023    1    1    2    0    0 -0.93932688076E+02 -0.29702593762E+02 -0.92956829536E+01  0.66603469125E+03  0.65864270000E+03 0. -1.
    8880022    1    1    2    0    0  0.93932688076E+02  0.29702593762E+02  0.61988588479E+03  0.64603077105E+03  0.15294330000E+03 0.  0.
<mgrwt>
<rscale>  0 0.48146519E+03</rscale>
<asrwt>0</asrwt>
<pdfrwt beam="1">  1        2 0.53959636E-01 0.66596982E+03</pdfrwt>
<pdfrwt beam="2">  1       -2 0.14789659E+00 0.66596982E+03</pdfrwt>
<totfact> 0.29215034E+01</totfact>
</mgrwt>
</event>
<event>
 4    2  0.2930016E-007  0.7900512E+03  0.7818608E-02  0.9732735E-01
         -2   -1    0    0    0  501 -0.00000000000E+00  0.00000000000E+00  0.56705668287E+03  0.56705668288E+03  0.25500000000E-02 0.  1.
          2   -1    0    0  501    0  0.00000000000E+00 -0.00000000000E+00 -0.22087846438E+04  0.22087846438E+04  0.25500000000E-02 0. -1.
    8880023    1    1    2    0    0  0.43346646372E+03 -0.49775010835E+02 -0.20260378835E+04  0.21746288047E+04  0.65864270000E+03 0. -1.
    8880022    1    1    2    0    0 -0.43346646372E+03  0.49775010835E+02  0.38430992259E+03  0.60121252190E+03  0.15294330000E+03 0.  0.
<mgrwt>
<rscale>  0 0.69100764E+03</rscale>
<asrwt>0</asrwt>
<pdfrwt beam="1">  1        2 0.33981302E+00 0.79005122E+03</pdfrwt>
<pdfrwt beam="2">  1       -2 0.87239491E-01 0.79005122E+03</pdfrwt>
<totfact> 0.59965608E+00</totfact>
</mgrwt>
</event>
<event>
 4    2  0.2930016E-007  0.9230982E+03  0.7818608E-02  0.9489925E-01
         -2   -1    0    0    0  501 -0.00000000000E+00  0.00000000000E+00  0.70799900717E+03  0.70799900718E+03  0.25500000000E-02 0.  1.
          2   -1    0    0  501    0  0.00000000000E+00 -0.00000000000E+00 -0.15141644077E+04  0.15141644077E+04  0.25500000000E-02 0. -1.
    8880023    1    1    2    0    0  0.44812210353E+03 -0.46635470493E+03 -0.11493812317E+04  0.14741735151E+04  0.65864270000E+03 0.  0.
    8880022    1    1    2    0    0 -0.44812210353E+03  0.46635470493E+03  0.34321583115E+03  0.74798989983E+03  0.15294330000E+03 0.  0.
<mgrwt>
<rscale>  0 0.85030719E+03</rscale>
<asrwt>0</asrwt>
<pdfrwt beam="1">  1        2 0.23294837E+00 0.92309823E+03</pdfrwt>
<pdfrwt beam="2">  1       -2 0.10892292E+00 0.92309823E+03</pdfrwt>
<totfact> 0.84119976E+00</totfact>
</mgrwt>
</event>
<event>
 4    2  0.2930016E-007  0.6999866E+03  0.7818608E-02  0.9997257E-01
          2   -1    0    0  501    0  0.00000000000E+00  0.00000000000E+00  0.12950422379E+04  0.12950422379E+04  0.25500000000E-02 0. -1.
         -2   -1    0    0    0  501 -0.00000000000E+00 -0.00000000000E+00 -0.39263517776E+03  0.39263517776E+03  0.25500000000E-02 0.  1.
    8880023    1    1    2    0    0 -0.18293727515E+03 -0.15068185724E+03  0.11272881051E+04  0.13269362257E+04  0.65864270000E+03 0. -1.
    8880022    1    1    2    0    0  0.18293727515E+03  0.15068185724E+03 -0.22488104500E+03  0.36074118999E+03  0.15294330000E+03 0.  0.
<mgrwt>
<rscale>  0 0.55770689E+03</rscale>
<asrwt>0</asrwt>
<pdfrwt beam="1">  1        2 0.19923727E+00 0.69998662E+03</pdfrwt>
<pdfrwt beam="2">  1       -2 0.60405412E-01 0.69998662E+03</pdfrwt>
<totfact> 0.43536724E+01</totfact>
</mgrwt>
</event>
<event>
 4    2  0.2930016E-007  0.9819089E+03  0.7818608E-02  0.9405619E-01
         -2   -1    0    0    0  501 -0.00000000000E+00  0.00000000000E+00  0.73473401305E+03  0.73473401305E+03  0.25500000000E-02 0.  1.
          2   -1    0    0  501    0  0.00000000000E+00 -0.00000000000E+00 -0.13271280988E+04  0.13271280988E+04  0.25500000000E-02 0. -1.
    8880023    1    1    2    0    0  0.70450562210E+03  0.18440890669E+03  0.16999480001E+03  0.99651555669E+03  0.65864270000E+03 0.  1.
    8880022    1    1    2    0    0 -0.70450562210E+03 -0.18440890669E+03 -0.76238888574E+03  0.10653465551E+04  0.15294330000E+03 0.  0.
<mgrwt>
<rscale>  0 0.91614728E+03</rscale>
<asrwt>0</asrwt>
<pdfrwt beam="1">  1        2 0.20417355E+00 0.98190887E+03</pdfrwt>
<pdfrwt beam="2">  1       -2 0.11303600E+00 0.98190887E+03</pdfrwt>
<totfact> 0.97572470E+00</totfact>
</mgrwt>
</event>
<event>
 4    2  0.2930016E-007  0.8728672E+03  0.7818608E-02  0.9571073E-01
         -2   -1    0    0    0  501 -0.00000000000E+00  0.00000000000E+00  0.98409929049E+03  0.98409929050E+03  0.25500000000E-02 0.  1.
          2   -1    0    0  501    0  0.00000000000E+00 -0.00000000000E+00 -0.12201744567E+04  0.12201744567E+04  0.25500000000E-02 0. -1.
    8880023    1    1    2    0    0 -0.48309196953E+03 -0.30774848005E+03 -0.94079070455E+03  0.12833488746E+04  0.65864270000E+03 0. -1.
    8880022    1    1    2    0    0  0.48309196953E+03  0.30774848005E+03  0.70471553831E+03  0.92092487259E+03  0.15294330000E+03 0.  0.
<mgrwt>
<rscale>  0 0.79240737E+03</rscale>
<asrwt>0</asrwt>
<pdfrwt beam="1">  1        2 0.18771915E+00 0.87286722E+03</pdfrwt>
<pdfrwt beam="2">  1       -2 0.15139989E+00 0.87286722E+03</pdfrwt>
<totfact> 0.54151115E+00</totfact>
</mgrwt>
</event>
<event>
 4    2  0.2930016E-007  0.9411289E+03  0.7818608E-02  0.9462994E-01
         -2   -1    0    0    0  501 -0.00000000000E+00  0.00000000000E+00  0.23212470596E+04  0.23212470596E+04  0.25500000000E-02 0.  1.
          2   -1    0    0  501    0  0.00000000000E+00 -0.00000000000E+00 -0.50108661847E+03  0.50108661848E+03  0.25500000000E-02 0. -1.
    8880023    1    1    2    0    0 -0.37984799918E+03  0.55464309842E+03  0.72866275566E+02  0.94394553311E+03  0.65864270000E+03 0.  0.
    8880022    1    1    2    0    0  0.37984799918E+03 -0.55464309842E+03  0.17472941655E+04  0.18783881449E+04  0.15294330000E+03 0.  0.
<mgrwt>
<rscale>  0 0.87067968E+03</rscale>
<asrwt>0</asrwt>
<pdfrwt beam="1">  1        2 0.77090250E-01 0.94112894E+03</pdfrwt>
<pdfrwt beam="2">  1       -2 0.35711493E+00 0.94112894E+03</pdfrwt>
<totfact> 0.88218754E-01</totfact>
</mgrwt>
</event>
<event>
 4    2  0.3380302E-007  0.8120029E+03  0.7818608E-02  0.9685420E-01
         -2   -1    0    0    0  501 -0.00000000000E+00  0.00000000000E+00  0.15287443839E+04  0.15287443839E+04  0.25500000000E-02 0.  1.
          2   -1    0    0  501    0  0.00000000000E+00 -0.00000000000E+00 -0.92171025442E+03  0.92171025443E+03  0.25500000000E-02 0. -1.
    8880023    1    1    2    0    0 -0.27212308097E+03 -0.38921395129E+03 -0.68695810489E+03  0.10636071245E+04  0.65864270000E+03 0. -1.
    8880022    1    1    2    0    0  0.27212308097E+03  0.38921395129E+03  0.12939922344E+04  0.13868475139E+04  0.15294330000E+03 0.  0.
<mgrwt>
<rscale>  0 0.71891552E+03</rscale>
<asrwt>0</asrwt>
<pdfrwt beam="1">  1        2 0.14180158E+00 0.81200288E+03</pdfrwt>
<pdfrwt beam="2">  1       -2 0.23519144E+00 0.81200288E+03</pdfrwt>
<totfact> 0.22948431E+00</totfact>
</mgrwt>
</event>
<event>
 4    2  0.2930016E-007  0.8716780E+03  0.7818608E-02  0.9573119E-01
         -2   -1    0    0    0  501 -0.00000000000E+00  0.00000000000E+00  0.95996737723E+03  0.95996737723E+03  0.25500000000E-02 0.  1.
          2   -1    0    0  501    0  0.00000000000E+00 -0.00000000000E+00 -0.12569046488E+04  0.12569046488E+04  0.25500000000E-02 0. -1.
    8880023    1    1    2    0    0  0.55504928867E+03 -0.13391248856E+03 -0.98131934263E+03  0.13125586181E+04  0.65864270000E+03 0.  0.
    8880022    1    1    2    0    0 -0.55504928867E+03  0.13391248856E+03  0.68438207110E+03  0.90431340790E+03  0.15294330000E+03 0.  0.
<mgrwt>
<rscale>  0 0.79101191E+03</rscale>
<asrwt>0</asrwt>
<pdfrwt beam="1">  1        2 0.19336995E+00 0.87167796E+03</pdfrwt>
<pdfrwt beam="2">  1       -2 0.14768729E+00 0.87167796E+03</pdfrwt>
<totfact> 0.55030909E+00</totfact>
</mgrwt>
</event>
<event>
 4    2  0.2930016E-007  0.9608219E+03  0.7818608E-02  0.9434712E-01
         -2   -1    0    0    0  501 -0.00000000000E+00  0.00000000000E+00  0.29517285323E+03  0.29517285324E+03  0.25500000000E-02 0.  1.
          2   -1    0    0  501    0  0.00000000000E+00 -0.00000000000E+00 -0.28023669536E+04  0.28023669536E+04  0.25500000000E-02 0. -1.
    8880023    1    1    2    0    0  0.57248457314E+03  0.40203224929E+03 -0.20037426356E+04  0.22221978472E+04  0.65864270000E+03 0. -1.
    8880022    1    1    2    0    0 -0.57248457314E+03 -0.40203224929E+03 -0.50345146472E+03  0.87534195963E+03  0.15294330000E+03 0.  0.
<mgrwt>
<rscale>  0 0.89273273E+03</rscale>
<asrwt>0</asrwt>
<pdfrwt beam="1">  1        2 0.43113336E+00 0.96082190E+03</pdfrwt>
<pdfrwt beam="2">  1       -2 0.45411210E-01 0.96082190E+03</pdfrwt>
<totfact> 0.10850038E+01</totfact>
</mgrwt>
</event>
<event>
 4    2  0.2930016E-007  0.9350744E+03  0.7818608E-02  0.9471922E-01
         -2   -1    0    0    0  501 -0.00000000000E+00  0.00000000000E+00  0.60182394770E+03  0.60182394770E+03  0.25500000000E-02 0.  1.
          2   -1    0    0  501    0  0.00000000000E+00 -0.00000000000E+00 -0.25437884292E+04  0.25437884292E+04  0.25500000000E-02 0. -1.
    8880023    1    1    2    0    0  0.40874512270E+03  0.52295438036E+03  0.14866852970E+03  0.94681909426E+03  0.65864270000E+03 0.  0.
    8880022    1    1    2    0    0 -0.40874512270E+03 -0.52295438036E+03 -0.20906330112E+04  0.21987932827E+04  0.15294330000E+03 0.  0.
<mgrwt>
<rscale>  0 0.86385924E+03</rscale>
<asrwt>0</asrwt>
<pdfrwt beam="1">  1        2 0.39135206E+00 0.93507436E+03</pdfrwt>
<pdfrwt beam="2">  1       -2 0.92588301E-01 0.93507436E+03</pdfrwt>
<totfact> 0.33122432E+00</totfact>
</mgrwt>
</event>
<event>
 4    2  0.2930016E-007  0.8064985E+03  0.7818608E-02  0.9696917E-01
          2   -1    0    0  501    0  0.00000000000E+00  0.00000000000E+00  0.31100585462E+04  0.31100585462E+04  0.25500000000E-02 0. -1.
         -2   -1    0    0    0  501 -0.00000000000E+00 -0.00000000000E+00 -0.13683972355E+03  0.13683972358E+03  0.25500000000E-02 0.  1.
    8880023    1    1    2    0    0  0.21022079633E+02 -0.46495982156E+03  0.16675399829E+04  0.18523307924E+04  0.65864270000E+03 0.  0.
    8880022    1    1    2    0    0 -0.21022079633E+02  0.46495982156E+03  0.13056788397E+04  0.13945674774E+04  0.15294330000E+03 0.  0.
<mgrwt>
<rscale>  0 0.71200634E+03</rscale>
<asrwt>0</asrwt>
<pdfrwt beam="1">  1        2 0.47847053E+00 0.80649846E+03</pdfrwt>
<pdfrwt beam="2">  1       -2 0.21052266E-01 0.80649846E+03</pdfrwt>
<totfact> 0.30404603E+01</totfact>
</mgrwt>
</event>
<event>
 4    2  0.2930016E-007  0.8175454E+03  0.7818608E-02  0.9674069E-01
          2   -1    0    0  501    0  0.00000000000E+00  0.00000000000E+00  0.27372929015E+04  0.27372929015E+04  0.25500000000E-02 0. -1.
         -2   -1    0    0    0  501 -0.00000000000E+00 -0.00000000000E+00 -0.33473885001E+03  0.33473885002E+03  0.25500000000E-02 0.  1.
    8880023    1    1    2    0    0 -0.41028719132E+03 -0.25736112127E+03  0.24295507668E+04  0.25634151948E+04  0.65864270000E+03 0. -1.
    8880022    1    1    2    0    0  0.41028719132E+03  0.25736112127E+03 -0.26996715353E+02  0.50861655671E+03  0.15294330000E+03 0.  0.
<mgrwt>
<rscale>  0 0.72581909E+03</rscale>
<asrwt>0</asrwt>
<pdfrwt beam="1">  1        2 0.42112198E+00 0.81754543E+03</pdfrwt>
<pdfrwt beam="2">  1       -2 0.51498285E-01 0.81754543E+03</pdfrwt>
<totfact> 0.93793236E+00</totfact>
</mgrwt>
</event>
<event>
 4    2  0.2930016E-007  0.9363330E+03  0.7818608E-02  0.9470057E-01
         -2   -1    0    0    0  501 -0.00000000000E+00  0.00000000000E+00  0.18328192558E+03  0.18328192560E+03  0.25500000000E-02 0.  1.
          2   -1    0    0  501    0  0.00000000000E+00 -0.00000000000E+00 -0.39656034812E+04  0.39656034812E+04  0.25500000000E-02 0. -1.
    8880023    1    1    2    0    0  0.25425662140E+03 -0.61503081077E+03 -0.15152862293E+04  0.17812388640E+04  0.65864270000E+03 0. -1.
    8880022    1    1    2    0    0 -0.25425662140E+03  0.61503081077E+03 -0.22670353264E+04  0.23676465428E+04  0.15294330000E+03 0.  0.
<mgrwt>
<rscale>  0 0.86527877E+03</rscale>
<asrwt>0</asrwt>
<pdfrwt beam="1">  1        2 0.61009278E+00 0.93633303E+03</pdfrwt>
<pdfrwt beam="2">  1       -2 0.28197222E-01 0.93633303E+03</pdfrwt>
<totfact> 0.44629274E+00</totfact>
</mgrwt>
</event>
<event>
 4    2  0.2930016E-007  0.8322820E+03  0.7818608E-02  0.9644909E-01
         -2   -1    0    0    0  501 -0.00000000000E+00  0.00000000000E+00  0.83662598813E+03  0.83662598814E+03  0.25500000000E-02 0.  1.
          2   -1    0    0  501    0  0.00000000000E+00 -0.00000000000E+00 -0.81485205746E+03  0.81485205746E+03  0.25500000000E-02 0. -1.
    8880023    1    1    2    0    0  0.46050805546E+03 -0.21636869435E+03 -0.44542815259E+03  0.94398068117E+03  0.65864270000E+03 0.  0.
    8880022    1    1    2    0    0 -0.46050805546E+03  0.21636869435E+03  0.46720208327E+03  0.70749736442E+03  0.15294330000E+03 0.  0.
<mgrwt>
<rscale>  0 0.74393821E+03</rscale>
<asrwt>0</asrwt>
<pdfrwt beam="1">  1        2 0.12536185E+00 0.83228198E+03</pdfrwt>
<pdfrwt beam="2">  1       -2 0.12871169E+00 0.83228198E+03</pdfrwt>
<totfact> 0.15073073E+01</totfact>
</mgrwt>
</event>
<event>
 4    2  0.2930016E-007  0.7388874E+03  0.7818608E-02  0.9863200E-01
         -2   -1    0    0    0  501 -0.00000000000E+00  0.00000000000E+00  0.30970588659E+03  0.30970588660E+03  0.25500000000E-02 0.  1.
          2   -1    0    0  501    0  0.00000000000E+00 -0.00000000000E+00 -0.12474619800E+04  0.12474619800E+04  0.25500000000E-02 0. -1.
    8880023    1    1    2    0    0  0.19828841979E+03  0.26986309622E+03 -0.93149178145E+03  0.11889623767E+04  0.65864270000E+03 0. -1.
    8880022    1    1    2    0    0 -0.19828841979E+03 -0.26986309622E+03 -0.62643119261E+01  0.36820548983E+03  0.15294330000E+03 0.  0.
<mgrwt>
<rscale>  0 0.62078404E+03</rscale>
<asrwt>0</asrwt>
<pdfrwt beam="1">  1        2 0.19191723E+00 0.73888740E+03</pdfrwt>
<pdfrwt beam="2">  1       -2 0.47647060E-01 0.73888740E+03</pdfrwt>
<totfact> 0.75408369E+01</totfact>
</mgrwt>
</event>
<event>
 4    2  0.2930016E-007  0.8647755E+03  0.7818608E-02  0.9585125E-01
          2   -1    0    0  501    0  0.00000000000E+00  0.00000000000E+00  0.44996530366E+04  0.44996530366E+04  0.25500000000E-02 0. -1.
         -2   -1    0    0    0  501 -0.00000000000E+00 -0.00000000000E+00 -0.56313474591E+03  0.56313474591E+03  0.25500000000E-02 0.  1.
    8880023    1    1    2    0    0 -0.42522576996E+02 -0.55876492649E+03  0.42943389992E+04  0.43805460914E+04  0.65864270000E+03 0. -1.
    8880022    1    1    2    0    0  0.42522576996E+02  0.55876492649E+03 -0.35782070851E+03  0.68224169110E+03  0.15294330000E+03 0.  0.
<mgrwt>
<rscale>  0 0.78288607E+03</rscale>
<asrwt>0</asrwt>
<pdfrwt beam="1">  1        2 0.69225432E+00 0.86477547E+03</pdfrwt>
<pdfrwt beam="2">  1       -2 0.86636114E-01 0.86477547E+03</pdfrwt>
<totfact> 0.15753893E-01</totfact>
</mgrwt>
</event>
<event>
 4    2  0.2930016E-007  0.9052252E+03  0.7818608E-02  0.9517695E-01
         -2   -1    0    0    0  501 -0.00000000000E+00  0.00000000000E+00  0.23904294788E+03  0.23904294789E+03  0.25500000000E-02 0.  1.
          2   -1    0    0  501    0  0.00000000000E+00 -0.00000000000E+00 -0.37934221495E+04  0.37934221495E+04  0.25500000000E-02 0. -1.
    8880023    1    1    2    0    0 -0.33962737650E+03  0.51988050933E+03 -0.31460325440E+04  0.32736758351E+04  0.65864270000E+03 0.  0.
    8880022    1    1    2    0    0  0.33962737650E+03 -0.51988050933E+03 -0.40834665763E+03  0.75878926235E+03  0.15294330000E+03 0.  0.
<mgrwt>
<rscale>  0 0.82991722E+03</rscale>
<asrwt>0</asrwt>
<pdfrwt beam="1">  1        2 0.58360336E+00 0.90522522E+03</pdfrwt>
<pdfrwt beam="2">  1       -2 0.36775841E-01 0.90522522E+03</pdfrwt>
<totfact> 0.36808229E+00</totfact>
</mgrwt>
</event>
<event>
 4    2  0.2930016E-007  0.7727516E+03  0.7818608E-02  0.9773148E-01
         -2   -1    0    0    0  501 -0.00000000000E+00  0.00000000000E+00  0.95092562524E+03  0.95092562524E+03  0.25500000000E-02 0.  1.
          2   -1    0    0  501    0  0.00000000000E+00 -0.00000000000E+00 -0.14078719755E+04  0.14078719755E+04  0.25500000000E-02 0. -1.
    8880023    1    1    2    0    0 -0.10430271168E+03 -0.39045576527E+03 -0.12419423988E+04  0.14627255000E+04  0.65864270000E+03 0. -1.
    8880022    1    1    2    0    0  0.10430271168E+03  0.39045576527E+03  0.78499604857E+03  0.89607210066E+03  0.15294330000E+03 0.  0.
<mgrwt>
<rscale>  0 0.66823718E+03</rscale>
<asrwt>0</asrwt>
<pdfrwt beam="1">  1        2 0.21659569E+00 0.77275156E+03</pdfrwt>
<pdfrwt beam="2">  1       -2 0.14629625E+00 0.77275156E+03</pdfrwt>
<totfact> 0.46812198E+00</totfact>
</mgrwt>
</event>
<event>
 4    2  0.2930016E-007  0.9360632E+03  0.7818608E-02  0.9470456E-01
          2   -1    0    0  501    0  0.00000000000E+00  0.00000000000E+00  0.20009351174E+04  0.20009351174E+04  0.25500000000E-02 0. -1.
         -2   -1    0    0    0  501 -0.00000000000E+00 -0.00000000000E+00 -0.49609319658E+03  0.49609319659E+03  0.25500000000E-02 0.  1.
    8880023    1    1    2    0    0  0.66434065754E+03 -0.32489283490E+02  0.15525124882E+04  0.18128732154E+04  0.65864270000E+03 0.  1.
    8880022    1    1    2    0    0 -0.66434065754E+03  0.32489283490E+02 -0.47670567473E+02  0.68415509851E+03  0.15294330000E+03 0.  0.
<mgrwt>
<rscale>  0 0.86497450E+03</rscale>
<asrwt>0</asrwt>
<pdfrwt beam="1">  1        2 0.30783617E+00 0.93606318E+03</pdfrwt>
<pdfrwt beam="2">  1       -2 0.76322030E-01 0.93606318E+03</pdfrwt>
<totfact> 0.10351247E+01</totfact>
</mgrwt>
</event>
<event>
 4    2  0.2930016E-007  0.9538447E+03  0.7818608E-02  0.9444604E-01
          2   -1    0    0  501    0  0.00000000000E+00  0.00000000000E+00  0.65275254998E+03  0.65275254999E+03  0.25500000000E-02 0. -1.
         -2   -1    0    0    0  501 -0.00000000000E+00 -0.00000000000E+00 -0.11154284218E+04  0.11154284218E+04  0.25500000000E-02 0.  1.
    8880023    1    1    2    0    0  0.60625003308E+03  0.32934849783E+03 -0.62105025458E+02  0.95586441302E+03  0.65864270000E+03 0.  0.
    8880022    1    1    2    0    0 -0.60625003308E+03 -0.32934849783E+03 -0.40057084632E+03  0.81231655872E+03  0.15294330000E+03 0.  0.
<mgrwt>
<rscale>  0 0.88494128E+03</rscale>
<asrwt>0</asrwt>
<pdfrwt beam="1">  1        2 0.10042347E+00 0.95384472E+03</pdfrwt>
<pdfrwt beam="2">  1       -2 0.17160437E+00 0.95384472E+03</pdfrwt>
<totfact> 0.92560663E+00</totfact>
</mgrwt>
</event>
<event>
 4    2  0.2930016E-007  0.7924364E+03  0.7818608E-02  0.9727395E-01
         -2   -1    0    0    0  501 -0.00000000000E+00  0.00000000000E+00  0.58746947688E+03  0.58746947689E+03  0.25500000000E-02 0.  1.
          2   -1    0    0  501    0  0.00000000000E+00 -0.00000000000E+00 -0.28536155793E+04  0.28536155793E+04  0.25500000000E-02 0. -1.
    8880023    1    1    2    0    0 -0.31252296638E+03  0.31060373220E+03 -0.26940177750E+04  0.28081465883E+04  0.65864270000E+03 0. -1.
    8880022    1    1    2    0    0  0.31252296638E+03 -0.31060373220E+03  0.42787167257E+03  0.63293846793E+03  0.15294330000E+03 0.  0.
<mgrwt>
<rscale>  0 0.69408866E+03</rscale>
<asrwt>0</asrwt>
<pdfrwt beam="1">  1        2 0.43901777E+00 0.79243643E+03</pdfrwt>
<pdfrwt beam="2">  1       -2 0.90379921E-01 0.79243643E+03</pdfrwt>
<totfact> 0.23646507E+00</totfact>
</mgrwt>
</event>
<event>
 4    2  0.2930016E-007  0.1461236E+04  0.7818608E-02  0.8937505E-01
          2   -1    0    0  501    0  0.00000000000E+00  0.00000000000E+00  0.14046058363E+04  0.14046058363E+04  0.25500000000E-02 0. -1.
         -2   -1    0    0    0  501 -0.00000000000E+00 -0.00000000000E+00 -0.14931427275E+04  0.14931427275E+04  0.25500000000E-02 0.  1.
    8880023    1    1    2    0    0 -0.61147203787E+03 -0.11521725719E+04 -0.46171368942E+03  0.15324455702E+04  0.65864270000E+03 0.  0.
    8880022    1    1    2    0    0  0.61147203787E+03  0.11521725719E+04  0.37317679822E+03  0.13653029935E+04  0.15294330000E+03 0.  0.
<mgrwt>
<rscale>  0 0.14227621E+04</rscale>
<asrwt>0</asrwt>
<pdfrwt beam="1">  1        2 0.21609321E+00 0.14612357E+04</pdfrwt>
<pdfrwt beam="2">  1       -2 0.22971427E+00 0.14612357E+04</pdfrwt>
<totfact> 0.11671474E+00</totfact>
</mgrwt>
</event>
<event>
 4    2  0.2930016E-007  0.8237324E+03  0.7818608E-02  0.9661652E-01
          2   -1    0    0  501    0  0.00000000000E+00  0.00000000000E+00  0.12488462813E+04  0.12488462813E+04  0.25500000000E-02 0. -1.
         -2   -1    0    0    0  501 -0.00000000000E+00 -0.00000000000E+00 -0.83986258389E+03  0.83986258389E+03  0.25500000000E-02 0.  1.
    8880023    1    1    2    0    0 -0.32902675404E+03 -0.36941342375E+03  0.10048274971E+04  0.12993126597E+04  0.65864270000E+03 0.  0.
    8880022    1    1    2    0    0  0.32902675404E+03  0.36941342375E+03 -0.59584379970E+03  0.78939620545E+03  0.15294330000E+03 0.  1.
<mgrwt>
<rscale>  0 0.73346613E+03</rscale>
<asrwt>0</asrwt>
<pdfrwt beam="1">  1        2 0.19213020E+00 0.82373241E+03</pdfrwt>
<pdfrwt beam="2">  1       -2 0.12920963E+00 0.82373241E+03</pdfrwt>
<totfact> 0.79032356E+00</totfact>
</mgrwt>
</event>
<event>
 4    2  0.2930016E-007  0.6966118E+03  0.7818608E-02  0.1001156E+00
          2   -1    0    0  501    0  0.00000000000E+00  0.00000000000E+00  0.41946876855E+04  0.41946876855E+04  0.25500000000E-02 0. -1.
         -2   -1    0    0    0  501 -0.00000000000E+00 -0.00000000000E+00 -0.13875254944E+03  0.13875254946E+03  0.25500000000E-02 0.  1.
    8880023    1    1    2    0    0  0.18460172251E+03 -0.13183336528E+03  0.39922089104E+04  0.40525300767E+04  0.65864270000E+03 0. -1.
    8880022    1    1    2    0    0 -0.18460172251E+03  0.13183336528E+03  0.63726225667E+02  0.28091015825E+03  0.15294330000E+03 0.  0.
<mgrwt>
<rscale>  0 0.55146345E+03</rscale>
<asrwt>0</asrwt>
<pdfrwt beam="1">  1        2 0.64533657E+00 0.69661183E+03</pdfrwt>
<pdfrwt beam="2">  1       -2 0.21346546E-01 0.69661183E+03</pdfrwt>
<totfact> 0.50416275E+00</totfact>
</mgrwt>
</event>
<event>
 4    2  0.2930016E-007  0.7144612E+03  0.7818608E-02  0.9941793E-01
         -2   -1    0    0    0  501 -0.00000000000E+00  0.00000000000E+00  0.78545157940E+03  0.78545157941E+03  0.25500000000E-02 0.  1.
          2   -1    0    0  501    0  0.00000000000E+00 -0.00000000000E+00 -0.13838608478E+04  0.13838608478E+04  0.25500000000E-02 0. -1.
    8880023    1    1    2    0    0 -0.10933694333E+03  0.25434232827E+03 -0.12529625248E+04  0.14423487380E+04  0.65864270000E+03 0. -1.
    8880022    1    1    2    0    0  0.10933694333E+03 -0.25434232827E+03  0.65455325635E+03  0.72696368928E+03  0.15294330000E+03 0.  0.
<mgrwt>
<rscale>  0 0.58277868E+03</rscale>
<asrwt>0</asrwt>
<pdfrwt beam="1">  1        2 0.21290167E+00 0.71446119E+03</pdfrwt>
<pdfrwt beam="2">  1       -2 0.12083870E+00 0.71446119E+03</pdfrwt>
<totfact> 0.79307352E+00</totfact>
</mgrwt>
</event>
<event>
 4    2  0.2930016E-007  0.1014074E+04  0.7818608E-02  0.9363371E-01
         -2   -1    0    0    0  501 -0.00000000000E+00  0.00000000000E+00  0.11466174072E+04  0.11466174072E+04  0.25500000000E-02 0.  1.
          2   -1    0    0  501    0  0.00000000000E+00 -0.00000000000E+00 -0.97546324013E+03  0.97546324014E+03  0.25500000000E-02 0. -1.
    8880023    1    1    2    0    0  0.16900721753E+03  0.75231202059E+03 -0.46042561909E+03  0.11137049757E+04  0.65864270000E+03 0.  0.
    8880022    1    1    2    0    0 -0.16900721753E+03 -0.75231202059E+03  0.63157978619E+03  0.10083756717E+04  0.15294330000E+03 0.  0.
<mgrwt>
<rscale>  0 0.95152381E+03</rscale>
<asrwt>0</asrwt>
<pdfrwt beam="1">  1        2 0.15007127E+00 0.10140745E+04</pdfrwt>
<pdfrwt beam="2">  1       -2 0.17640268E+00 0.10140745E+04</pdfrwt>
<totfact> 0.49677740E+00</totfact>
</mgrwt>
</event>
<event>
 4    2  0.2930016E-007  0.6968612E+03  0.7818608E-02  0.1001048E+00
          2   -1    0    0  501    0  0.00000000000E+00  0.00000000000E+00  0.30435732060E+04  0.30435732060E+04  0.25500000000E-02 0. -1.
         -2   -1    0    0    0  501 -0.00000000000E+00 -0.00000000000E+00 -0.16205300985E+03  0.16205300987E+03  0.25500000000E-02 0.  1.
    8880023    1    1    2    0    0 -0.20814449813E+03 -0.92093668294E+02  0.28448592912E+04  0.29289656824E+04  0.65864270000E+03 0.  0.
    8880022    1    1    2    0    0  0.20814449813E+03  0.92093668294E+02  0.36660905027E+02  0.27666053353E+03  0.15294330000E+03 0.  0.
<mgrwt>
<rscale>  0 0.55193104E+03</rscale>
<asrwt>0</asrwt>
<pdfrwt beam="1">  1        2 0.46824202E+00 0.69686124E+03</pdfrwt>
<pdfrwt beam="2">  1       -2 0.24931233E-01 0.69686124E+03</pdfrwt>
<totfact> 0.25170499E+01</totfact>
</mgrwt>
</event>
<event>
 4    2  0.2930016E-007  0.9686938E+03  0.7818608E-02  0.9423713E-01
         -2   -1    0    0    0  501 -0.00000000000E+00  0.00000000000E+00  0.27383340876E+04  0.27383340876E+04  0.25500000000E-02 0.  1.
          2   -1    0    0  501    0  0.00000000000E+00 -0.00000000000E+00 -0.45437597932E+03  0.45437597933E+03  0.25500000000E-02 0. -1.
    8880023    1    1    2    0    0 -0.67294662680E+03 -0.22737687374E+03  0.22676922914E+04  0.24659269941E+04  0.65864270000E+03 0.  1.
    8880022    1    1    2    0    0  0.67294662680E+03  0.22737687374E+03  0.16265816877E+02  0.72678307289E+03  0.15294330000E+03 0.  0.
<mgrwt>
<rscale>  0 0.90149616E+03</rscale>
<asrwt>0</asrwt>
<pdfrwt beam="1">  1        2 0.69903996E-01 0.96869377E+03</pdfrwt>
<pdfrwt beam="2">  1       -2 0.42128217E+00 0.96869377E+03</pdfrwt>
<totfact> 0.37967447E-01</totfact>
</mgrwt>
</event>
<event>
 4    2  0.2930016E-007  0.6678800E+03  0.7818608E-02  0.1017230E+00
         -2   -1    0    0    0  501 -0.00000000000E+00  0.00000000000E+00  0.19193372642E+03  0.19193372644E+03  0.25500000000E-02 0.  1.
          2   -1    0    0  501    0  0.00000000000E+00 -0.00000000000E+00 -0.13268943489E+04  0.13268943489E+04  0.25500000000E-02 0. -1.
    8880023    1    1    2    0    0 -0.83517789848E+02 -0.72652042731E+02 -0.11495302539E+04  0.13294673939E+04  0.65864270000E+03 0. -1.
    8880022    1    1    2    0    0  0.83517789848E+02  0.72652042731E+02  0.14569631337E+02  0.18936068152E+03  0.15294330000E+03 0.  0.
<mgrwt>
<rscale>  0 0.48699440E+03</rscale>
<asrwt>0</asrwt>
<pdfrwt beam="1">  1        2 0.20413759E+00 0.66788004E+03</pdfrwt>
<pdfrwt beam="2">  1       -2 0.29528266E-01 0.66788004E+03</pdfrwt>
<totfact> 0.17171749E+02</totfact>
</mgrwt>
</event>
<event>
 4    2  0.2930016E-007  0.1593297E+04  0.7818608E-02  0.8846419E-01
         -2   -1    0    0    0  501 -0.00000000000E+00  0.00000000000E+00  0.11668296302E+04  0.11668296302E+04  0.25500000000E-02 0.  1.
          2   -1    0    0  501    0  0.00000000000E+00 -0.00000000000E+00 -0.24734225868E+04  0.24734225868E+04  0.25500000000E-02 0. -1.
    8880023    1    1    2    0    0  0.60543192117E+02  0.14495236613E+04 -0.14756441525E+04  0.21716630019E+04  0.65864270000E+03 0.  0.
    8880022    1    1    2    0    0 -0.60543192117E+02 -0.14495236613E+04  0.16905119592E+03  0.14685892150E+04  0.15294330000E+03 0.  0.
<mgrwt>
<rscale>  0 0.15585597E+04</rscale>
<asrwt>0</asrwt>
<pdfrwt beam="1">  1        2 0.38052655E+00 0.15932967E+04</pdfrwt>
<pdfrwt beam="2">  1       -2 0.17951225E+00 0.15932967E+04</pdfrwt>
<totfact> 0.61446266E-01</totfact>
</mgrwt>
</event>
<event>
 4    2  0.2930016E-007  0.1289964E+04  0.7818608E-02  0.9074276E-01
          2   -1    0    0  501    0  0.00000000000E+00  0.00000000000E+00  0.37804918294E+04  0.37804918294E+04  0.25500000000E-02 0. -1.
         -2   -1    0    0    0  501 -0.00000000000E+00 -0.00000000000E+00 -0.51691767814E+03  0.51691767815E+03  0.25500000000E-02 0.  1.
    8880023    1    1    2    0    0 -0.49575185648E+03  0.99218261973E+03  0.28051932871E+04  0.30875744263E+04  0.65864270000E+03 0.  0.
    8880022    1    1    2    0    0  0.49575185648E+03 -0.99218261973E+03  0.45838086421E+03  0.12098350812E+04  0.15294330000E+03 0.  0.
<mgrwt>
<rscale>  0 0.12450950E+04</rscale>
<asrwt>0</asrwt>
<pdfrwt beam="1">  1        2 0.58161410E+00 0.12899637E+04</pdfrwt>
<pdfrwt beam="2">  1       -2 0.79525800E-01 0.12899637E+04</pdfrwt>
<totfact> 0.70995323E-01</totfact>
</mgrwt>
</event>
<event>
 4    2  0.2930016E-007  0.9982074E+03  0.7818608E-02  0.9383907E-01
          2   -1    0    0  501    0  0.00000000000E+00  0.00000000000E+00  0.29828982539E+04  0.29828982539E+04  0.25500000000E-02 0. -1.
         -2   -1    0    0    0  501 -0.00000000000E+00 -0.00000000000E+00 -0.26578622974E+03  0.26578622975E+03  0.25500000000E-02 0.  1.
    8880023    1    1    2    0    0  0.53314469099E+03  0.52760269497E+03  0.13118200901E+04  0.16484204623E+04  0.65864270000E+03 0.  0.
    8880022    1    1    2    0    0 -0.53314469099E+03 -0.52760269497E+03  0.14052919340E+04  0.16002640213E+04  0.15294330000E+03 0.  1.
<mgrwt>
<rscale>  0 0.93412018E+03</rscale>
<asrwt>0</asrwt>
<pdfrwt beam="1">  1        2 0.45890741E+00 0.99820743E+03</pdfrwt>
<pdfrwt beam="2">  1       -2 0.40890190E-01 0.99820743E+03</pdfrwt>
<totfact> 0.10339564E+01</totfact>
</mgrwt>
</event>
<event>
 4    2  0.2930016E-007  0.9644055E+03  0.7818608E-02  0.9429684E-01
         -2   -1    0    0    0  501 -0.00000000000E+00  0.00000000000E+00  0.64586850483E+03  0.64586850484E+03  0.25500000000E-02 0.  1.
          2   -1    0    0  501    0  0.00000000000E+00 -0.00000000000E+00 -0.31894694379E+04  0.31894694379E+04  0.25500000000E-02 0. -1.
    8880023    1    1    2    0    0 -0.63245755493E+03 -0.31026638531E+03 -0.28819335697E+04  0.30390161393E+04  0.65864270000E+03 0. -1.
    8880022    1    1    2    0    0  0.63245755493E+03  0.31026638531E+03  0.33833263660E+03  0.79632180345E+03  0.15294330000E+03 0.  0.
<mgrwt>
<rscale>  0 0.89672570E+03</rscale>
<asrwt>0</asrwt>
<pdfrwt beam="1">  1        2 0.49068759E+00 0.96440551E+03</pdfrwt>
<pdfrwt beam="2">  1       -2 0.99364388E-01 0.96440551E+03</pdfrwt>
<totfact> 0.11387523E+00</totfact>
</mgrwt>
</event>
<event>
 4    2  0.2930016E-007  0.9942001E+03  0.7818608E-02  0.9389185E-01
          2   -1    0    0  501    0  0.00000000000E+00  0.00000000000E+00  0.24394053303E+04  0.24394053303E+04  0.25500000000E-02 0. -1.
         -2   -1    0    0    0  501 -0.00000000000E+00 -0.00000000000E+00 -0.31815443655E+03  0.31815443657E+03  0.25500000000E-02 0.  1.
    8880023    1    1    2    0    0 -0.51419708731E+03  0.53872540257E+03  0.13265164044E+04  0.16577332962E+04  0.65864270000E+03 0.  1.
    8880022    1    1    2    0    0  0.51419708731E+03 -0.53872540257E+03  0.79473448938E+03  0.10998264707E+04  0.15294330000E+03 0. -1.
<mgrwt>
<rscale>  0 0.92971061E+03</rscale>
<asrwt>0</asrwt>
<pdfrwt beam="1">  1        2 0.37529314E+00 0.99420014E+03</pdfrwt>
<pdfrwt beam="2">  1       -2 0.48946835E-01 0.99420014E+03</pdfrwt>
<totfact> 0.15088118E+01</totfact>
</mgrwt>
</event>
<event>
 4    2  0.2930016E-007  0.1018888E+04  0.7818608E-02  0.9357252E-01
          2   -1    0    0  501    0  0.00000000000E+00  0.00000000000E+00  0.68054950243E+03  0.68054950244E+03  0.25500000000E-02 0. -1.
         -2   -1    0    0    0  501 -0.00000000000E+00 -0.00000000000E+00 -0.14988999624E+04  0.14988999624E+04  0.25500000000E-02 0.  1.
    8880023    1    1    2    0    0  0.74093838296E+03  0.23523141346E+03 -0.92979300985E+03  0.13793653442E+04  0.65864270000E+03 0.  0.
    8880022    1    1    2    0    0 -0.74093838296E+03 -0.23523141346E+03  0.11144254989E+03  0.80008412068E+03  0.15294330000E+03 0.  0.
<mgrwt>
<rscale>  0 0.95678710E+03</rscale>
<asrwt>0</asrwt>
<pdfrwt beam="1">  1        2 0.10469992E+00 0.10188885E+04</pdfrwt>
<pdfrwt beam="2">  1       -2 0.23059999E+00 0.10188885E+04</pdfrwt>
<totfact> 0.35778477E+00</totfact>
</mgrwt>
</event>
<event>
 4    2  0.2930016E-007  0.8931239E+03  0.7818608E-02  0.9537161E-01
          2   -1    0    0  501    0  0.00000000000E+00  0.00000000000E+00  0.15934187050E+04  0.15934187050E+04  0.25500000000E-02 0. -1.
         -2   -1    0    0    0  501 -0.00000000000E+00 -0.00000000000E+00 -0.41177808607E+03  0.41177808607E+03  0.25500000000E-02 0.  1.
    8880023    1    1    2    0    0 -0.60133233950E+03 -0.47533954032E+02  0.10326823020E+04  0.13653215747E+04  0.65864270000E+03 0. -1.
    8880022    1    1    2    0    0  0.60133233950E+03  0.47533954032E+02  0.14895831696E+03  0.63987521636E+03  0.15294330000E+03 0.  0.
<mgrwt>
<rscale>  0 0.81598645E+03</rscale>
<asrwt>0</asrwt>
<pdfrwt beam="1">  1        2 0.24514134E+00 0.89312388E+03</pdfrwt>
<pdfrwt beam="2">  1       -2 0.63350475E-01 0.89312388E+03</pdfrwt>
<totfact> 0.26185689E+01</totfact>
</mgrwt>
</event>
<event>
 4    2  0.2930016E-007  0.7394445E+03  0.7818608E-02  0.9861568E-01
         -2   -1    0    0    0  501 -0.00000000000E+00  0.00000000000E+00  0.11751262753E+03  0.11751262756E+03  0.25500000000E-02 0.  1.
          2   -1    0    0  501    0  0.00000000000E+00 -0.00000000000E+00 -0.26426828618E+04  0.26426828618E+04  0.25500000000E-02 0. -1.
    8880023    1    1    2    0    0 -0.13723125899E+03  0.30681505232E+03 -0.15468322675E+04  0.17144877267E+04  0.65864270000E+03 0.  0.
    8880022    1    1    2    0    0  0.13723125899E+03 -0.30681505232E+03 -0.97833796677E+03  0.10457077627E+04  0.15294330000E+03 0.  1.
<mgrwt>
<rscale>  0 0.62160552E+03</rscale>
<asrwt>0</asrwt>
<pdfrwt beam="1">  1        2 0.40656655E+00 0.73944445E+03</pdfrwt>
<pdfrwt beam="2">  1       -2 0.18078868E-01 0.73944445E+03</pdfrwt>
<totfact> 0.76342352E+01</totfact>
</mgrwt>
</event>
<event>
 4    2  0.2930016E-007  0.9684943E+03  0.7818608E-02  0.9423990E-01
         -2   -1    0    0    0  501 -0.00000000000E+00  0.00000000000E+00  0.69298797473E+03  0.69298797474E+03  0.25500000000E-02 0.  1.
          2   -1    0    0  501    0  0.00000000000E+00 -0.00000000000E+00 -0.16256281869E+04  0.16256281869E+04  0.25500000000E-02 0. -1.
    8880023    1    1    2    0    0  0.42005012980E+03 -0.57247616684E+03 -0.12022808377E+04  0.15438460066E+04  0.65864270000E+03 0. -1.
    8880022    1    1    2    0    0 -0.42005012980E+03  0.57247616684E+03  0.26964062555E+03  0.77477015502E+03  0.15294330000E+03 0.  0.
<mgrwt>
<rscale>  0 0.90127449E+03</rscale>
<asrwt>0</asrwt>
<pdfrwt beam="1">  1        2 0.25009664E+00 0.96849434E+03</pdfrwt>
<pdfrwt beam="2">  1       -2 0.10661353E+00 0.96849434E+03</pdfrwt>
<totfact> 0.76407851E+00</totfact>
</mgrwt>
</event>
<event>
 4    2  0.2930016E-007  0.8197114E+03  0.7818608E-02  0.9669693E-01
         -2   -1    0    0    0  501 -0.00000000000E+00  0.00000000000E+00  0.15021511840E+04  0.15021511840E+04  0.25500000000E-02 0.  1.
          2   -1    0    0  501    0  0.00000000000E+00 -0.00000000000E+00 -0.68934280377E+03  0.68934280377E+03  0.25500000000E-02 0. -1.
    8880023    1    1    2    0    0  0.18761696986E+03  0.45046243749E+03 -0.37264911472E+03  0.90044106078E+03  0.65864270000E+03 0.  0.
    8880022    1    1    2    0    0 -0.18761696986E+03 -0.45046243749E+03  0.11854574949E+04  0.12910529270E+04  0.15294330000E+03 0.  0.
<mgrwt>
<rscale>  0 0.72850307E+03</rscale>
<asrwt>0</asrwt>
<pdfrwt beam="1">  1        2 0.10605274E+00 0.81971138E+03</pdfrwt>
<pdfrwt beam="2">  1       -2 0.23110018E+00 0.81971138E+03</pdfrwt>
<totfact> 0.35755078E+00</totfact>
</mgrwt>
</event>
<event>
 4    2  0.2930016E-007  0.8186788E+03  0.7818608E-02  0.9671775E-01
         -2   -1    0    0    0  501 -0.00000000000E+00  0.00000000000E+00  0.10502744161E+04  0.10502744161E+04  0.25500000000E-02 0.  1.
          2   -1    0    0  501    0  0.00000000000E+00 -0.00000000000E+00 -0.45572799672E+03  0.45572799672E+03  0.25500000000E-02 0. -1.
    8880023    1    1    2    0    0 -0.11070499322E+03 -0.47346515602E+03  0.15561334413E+03  0.83333700783E+03  0.65864270000E+03 0. -1.
    8880022    1    1    2    0    0  0.11070499322E+03  0.47346515602E+03  0.43893307522E+03  0.67266540496E+03  0.15294330000E+03 0.  0.
<mgrwt>
<rscale>  0 0.72722453E+03</rscale>
<asrwt>0</asrwt>
<pdfrwt beam="1">  1        2 0.70112000E-01 0.81867885E+03</pdfrwt>
<pdfrwt beam="2">  1       -2 0.16158068E+00 0.81867885E+03</pdfrwt>
<totfact> 0.16948959E+01</totfact>
</mgrwt>
</event>
<event>
 4    2  0.2930016E-007  0.8269772E+03  0.7818608E-02  0.9655243E-01
          2   -1    0    0  501    0  0.00000000000E+00  0.00000000000E+00  0.17848245585E+04  0.17848245585E+04  0.25500000000E-02 0. -1.
         -2   -1    0    0    0  501 -0.00000000000E+00 -0.00000000000E+00 -0.32914577360E+03  0.32914577361E+03  0.25500000000E-02 0.  1.
    8880023    1    1    2    0    0  0.35539240429E+03  0.35181993515E+03  0.13458410890E+04  0.15796137094E+04  0.65864270000E+03 0.  0.
    8880022    1    1    2    0    0 -0.35539240429E+03 -0.35181993515E+03  0.10983769591E+03  0.53435662273E+03  0.15294330000E+03 0.  0.
<mgrwt>
<rscale>  0 0.73745306E+03</rscale>
<asrwt>0</asrwt>
<pdfrwt beam="1">  1        2 0.27458839E+00 0.82697717E+03</pdfrwt>
<pdfrwt beam="2">  1       -2 0.50637811E-01 0.82697717E+03</pdfrwt>
<totfact> 0.33052663E+01</totfact>
</mgrwt>
</event>
<event>
 4    2  0.2930016E-007  0.7498433E+03  0.7818608E-02  0.9832149E-01
          2   -1    0    0  501    0  0.00000000000E+00  0.00000000000E+00  0.56184811989E+03  0.56184811989E+03  0.25500000000E-02 0. -1.
         -2   -1    0    0    0  501 -0.00000000000E+00 -0.00000000000E+00 -0.11007276692E+04  0.11007276692E+04  0.25500000000E-02 0.  1.
    8880023    1    1    2    0    0 -0.53881099662E+02 -0.35433253352E+03  0.24361328370E+03  0.78842396937E+03  0.65864270000E+03 0. -1.
    8880022    1    1    2    0    0  0.53881099662E+02  0.35433253352E+03 -0.78249283304E+03  0.87415181976E+03  0.15294330000E+03 0.  0.
<mgrwt>
<rscale>  0 0.63665393E+03</rscale>
<asrwt>0</asrwt>
<pdfrwt beam="1">  1        2 0.86438173E-01 0.74984327E+03</pdfrwt>
<pdfrwt beam="2">  1       -2 0.16934272E+00 0.74984327E+03</pdfrwt>
<totfact> 0.11746850E+01</totfact>
</mgrwt>
</event>
<event>
 4    2  0.2930016E-007  0.6703241E+03  0.7818608E-02  0.1015432E+00
          2   -1    0    0  501    0  0.00000000000E+00  0.00000000000E+00  0.39246832134E+03  0.39246832135E+03  0.25500000000E-02 0. -1.
         -2   -1    0    0    0  501 -0.00000000000E+00 -0.00000000000E+00 -0.56374634180E+03  0.56374634180E+03  0.25500000000E-02 0.  1.
    8880023    1    1    2    0    0  0.11345554651E+03 -0.51498087569E+02  0.34423834353E+02  0.67120743492E+03  0.65864270000E+03 0. -1.
    8880022    1    1    2    0    0 -0.11345554651E+03  0.51498087569E+02 -0.20570185481E+03  0.28500722823E+03  0.15294330000E+03 0. -1.
<mgrwt>
<rscale>  0 0.49371858E+03</rscale>
<asrwt>0</asrwt>
<pdfrwt beam="1">  1        2 0.60379742E-01 0.67032412E+03</pdfrwt>
<pdfrwt beam="2">  1       -2 0.86730207E-01 0.67032412E+03</pdfrwt>
<totfact> 0.94863606E+01</totfact>
</mgrwt>
</event>
<event>
 4    2  0.2930016E-007  0.6660291E+03  0.7818608E-02  0.1018685E+00
         -2   -1    0    0    0  501 -0.00000000000E+00  0.00000000000E+00  0.52870584298E+03  0.52870584299E+03  0.25500000000E-02 0.  1.
          2   -1    0    0  501    0  0.00000000000E+00 -0.00000000000E+00 -0.16957691828E+04  0.16957691828E+04  0.25500000000E-02 0. -1.
    8880023    1    1    2    0    0 -0.76368057148E+02 -0.62869041295E+02 -0.16117442300E+04  0.17439364283E+04  0.65864270000E+03 0. -1.
    8880022    1    1    2    0    0  0.76368057148E+02  0.62869041295E+02  0.44468089026E+03  0.48053859749E+03  0.15294330000E+03 0.  0.
<mgrwt>
<rscale>  0 0.48164087E+03</rscale>
<asrwt>0</asrwt>
<pdfrwt beam="1">  1        2 0.26088756E+00 0.66602913E+03</pdfrwt>
<pdfrwt beam="2">  1       -2 0.81339361E-01 0.66602913E+03</pdfrwt>
<totfact> 0.13664778E+01</totfact>
</mgrwt>
</event>
<event>
 4    2  0.2930016E-007  0.1208279E+04  0.7818608E-02  0.9149117E-01
         -2   -1    0    0    0  501 -0.00000000000E+00  0.00000000000E+00  0.56936025022E+03  0.56936025022E+03  0.25500000000E-02 0.  1.
          2   -1    0    0  501    0  0.00000000000E+00 -0.00000000000E+00 -0.26605265118E+04  0.26605265118E+04  0.25500000000E-02 0. -1.
    8880023    1    1    2    0    0 -0.81870972711E+03 -0.59652438956E+03 -0.43837093081E+03  0.12853428507E+04  0.65864270000E+03 0.  1.
    8880022    1    1    2    0    0  0.81870972711E+03  0.59652438956E+03 -0.16527953307E+04  0.19445439113E+04  0.15294330000E+03 0.  0.
<mgrwt>
<rscale>  0 0.11594421E+04</rscale>
<asrwt>0</asrwt>
<pdfrwt beam="1">  1        2 0.40931176E+00 0.12082786E+04</pdfrwt>
<pdfrwt beam="2">  1       -2 0.87593886E-01 0.12082786E+04</pdfrwt>
<totfact> 0.31094488E+00</totfact>
</mgrwt>
</event>
<event>
 4    2  0.2930016E-007  0.8397093E+03  0.7818608E-02  0.9630729E-01
         -2   -1    0    0    0  501 -0.00000000000E+00  0.00000000000E+00  0.19448133947E+03  0.19448133949E+03  0.25500000000E-02 0.  1.
          2   -1    0    0  501    0  0.00000000000E+00 -0.00000000000E+00 -0.50897476412E+04  0.50897476412E+04  0.25500000000E-02 0. -1.
    8880023    1    1    2    0    0 -0.22806325801E+03 -0.46828272001E+03 -0.45802600328E+04  0.46565967970E+04  0.65864270000E+03 0.  0.
    8880022    1    1    2    0    0  0.22806325801E+03  0.46828272001E+03 -0.31500626891E+03  0.62763218367E+03  0.15294330000E+03 0.  0.
<mgrwt>
<rscale>  0 0.75295323E+03</rscale>
<asrwt>0</asrwt>
<pdfrwt beam="1">  1        2 0.78303800E+00 0.83970933E+03</pdfrwt>
<pdfrwt beam="2">  1       -2 0.29920210E-01 0.83970933E+03</pdfrwt>
<totfact> 0.31225841E-01</totfact>
</mgrwt>
</event>
<event>
 4    2  0.2930016E-007  0.6809934E+03  0.7818608E-02  0.1008767E+00
          2   -1    0    0  501    0  0.00000000000E+00  0.00000000000E+00  0.28700266515E+04  0.28700266515E+04  0.25500000000E-02 0. -1.
         -2   -1    0    0    0  501 -0.00000000000E+00 -0.00000000000E+00 -0.20952090280E+03  0.20952090282E+03  0.25500000000E-02 0.  1.
    8880023    1    1    2    0    0  0.16536735488E+03  0.50945003123E+02  0.27491048449E+04  0.28321951574E+04  0.65864270000E+03 0. -1.
    8880022    1    1    2    0    0 -0.16536735488E+03 -0.50945003123E+02 -0.88599096150E+02  0.24735239691E+03  0.15294330000E+03 0.  0.
<mgrwt>
<rscale>  0 0.51967530E+03</rscale>
<asrwt>0</asrwt>
<pdfrwt beam="1">  1        2 0.44154253E+00 0.68099336E+03</pdfrwt>
<pdfrwt beam="2">  1       -2 0.32233987E-01 0.68099336E+03</pdfrwt>
<totfact> 0.20055557E+01</totfact>
</mgrwt>
</event>
<event>
 4    2  0.2930016E-007  0.9090844E+03  0.7818608E-02  0.9511603E-01
         -2   -1    0    0    0  501 -0.00000000000E+00  0.00000000000E+00  0.62801152946E+03  0.62801152947E+03  0.25500000000E-02 0.  1.
          2   -1    0    0  501    0  0.00000000000E+00 -0.00000000000E+00 -0.16418537903E+04  0.16418537903E+04  0.25500000000E-02 0. -1.
    8880023    1    1    2    0    0  0.17259469902E+03  0.60235805073E+03 -0.12817827067E+04  0.15714328700E+04  0.65864270000E+03 0. -1.
    8880022    1    1    2    0    0 -0.17259469902E+03 -0.60235805073E+03  0.26794044584E+03  0.69843244980E+03  0.15294330000E+03 0.  0.
<mgrwt>
<rscale>  0 0.83433769E+03</rscale>
<asrwt>0</asrwt>
<pdfrwt beam="1">  1        2 0.25259289E+00 0.90908435E+03</pdfrwt>
<pdfrwt beam="2">  1       -2 0.96617159E-01 0.90908435E+03</pdfrwt>
<totfact> 0.95311107E+00</totfact>
</mgrwt>
</event>
<event>
 4    2  0.2930016E-007  0.1499414E+04  0.7818608E-02  0.8910050E-01
         -2   -1    0    0    0  501 -0.00000000000E+00  0.00000000000E+00  0.15306044505E+04  0.15306044505E+04  0.25500000000E-02 0.  1.
          2   -1    0    0  501    0  0.00000000000E+00 -0.00000000000E+00 -0.21566107729E+04  0.21566107729E+04  0.25500000000E-02 0. -1.
    8880023    1    1    2    0    0 -0.23110798625E+03 -0.13270343214E+04 -0.14622516754E+04  0.20943784662E+04  0.65864270000E+03 0.  0.
    8880022    1    1    2    0    0  0.23110798625E+03  0.13270343214E+04  0.83624535300E+03  0.15928367571E+04  0.15294330000E+03 0.  0.
<mgrwt>
<rscale>  0 0.14621066E+04</rscale>
<asrwt>0</asrwt>
<pdfrwt beam="1">  1        2 0.33178627E+00 0.14994136E+04</pdfrwt>
<pdfrwt beam="2">  1       -2 0.23547761E+00 0.14994136E+04</pdfrwt>
<totfact> 0.40471335E-01</totfact>
</mgrwt>
</event>
<event>
 4    2  0.2930016E-007  0.7744978E+03  0.7818608E-02  0.9768924E-01
         -2   -1    0    0    0  501 -0.00000000000E+00  0.00000000000E+00  0.37024026241E+03  0.37024026242E+03  0.25500000000E-02 0.  1.
          2   -1    0    0  501    0  0.00000000000E+00 -0.00000000000E+00 -0.29612376219E+04  0.29612376219E+04  0.25500000000E-02 0. -1.
    8880023    1    1    2    0    0 -0.21951802228E+03  0.34329066222E+03 -0.27584695860E+04  0.28651354774E+04  0.65864270000E+03 0. -1.
    8880022    1    1    2    0    0  0.21951802228E+03 -0.34329066222E+03  0.16747222645E+03  0.46634240695E+03  0.15294330000E+03 0.  0.
<mgrwt>
<rscale>  0 0.67057251E+03</rscale>
<asrwt>0</asrwt>
<pdfrwt beam="1">  1        2 0.45557500E+00 0.77449780E+03</pdfrwt>
<pdfrwt beam="2">  1       -2 0.56960042E-01 0.77449780E+03</pdfrwt>
<totfact> 0.56366306E+00</totfact>
</mgrwt>
</event>
<event>
 4    2  0.3608400E-007  0.6988191E+03  0.7818608E-02  0.1000214E+00
          2   -1    0    0  501    0  0.00000000000E+00  0.00000000000E+00  0.12377667815E+04  0.12377667815E+04  0.25500000000E-02 0. -1.
         -2   -1    0    0    0  501 -0.00000000000E+00 -0.00000000000E+00 -0.17847544219E+04  0.17847544219E+04  0.25500000000E-02 0.  1.
    8880023    1    1    2    0    0  0.24355012443E+02  0.23226007281E+03  0.11266409591E+04  0.13257707061E+04  0.65864270000E+03 0. -1.
    8880022    1    1    2    0    0 -0.24355012443E+02 -0.23226007281E+03 -0.16736285995E+04  0.16967504973E+04  0.15294330000E+03 0.  0.
<mgrwt>
<rscale>  0 0.55556688E+03</rscale>
<asrwt>0</asrwt>
<pdfrwt beam="1">  1        2 0.19042566E+00 0.69881909E+03</pdfrwt>
<pdfrwt beam="2">  1       -2 0.27457760E+00 0.69881909E+03</pdfrwt>
<totfact> 0.86185909E-01</totfact>
</mgrwt>
</event>
<event>
 4    2  0.2930016E-007  0.8874451E+03  0.7818608E-02  0.9546494E-01
         -2   -1    0    0    0  501 -0.00000000000E+00  0.00000000000E+00  0.30236025913E+03  0.30236025914E+03  0.25500000000E-02 0.  1.
          2   -1    0    0  501    0  0.00000000000E+00 -0.00000000000E+00 -0.19032925994E+04  0.19032925994E+04  0.25500000000E-02 0. -1.
    8880023    1    1    2    0    0  0.55488003375E+03 -0.21414197811E+03 -0.10985684483E+04  0.14122363402E+04  0.65864270000E+03 0. -1.
    8880022    1    1    2    0    0 -0.55488003375E+03  0.21414197811E+03 -0.50236389196E+03  0.79341651836E+03  0.15294330000E+03 0.  1.
<mgrwt>
<rscale>  0 0.80941080E+03</rscale>
<asrwt>0</asrwt>
<pdfrwt beam="1">  1        2 0.29281424E+00 0.88744512E+03</pdfrwt>
<pdfrwt beam="2">  1       -2 0.46516964E-01 0.88744512E+03</pdfrwt>
<totfact> 0.33594194E+01</totfact>
</mgrwt>
</event>
<event>
 4    2  0.2930016E-007  0.1369446E+04  0.7818608E-02  0.9007795E-01
          2   -1    0    0  501    0  0.00000000000E+00  0.00000000000E+00  0.16730223301E+04  0.16730223301E+04  0.25500000000E-02 0. -1.
         -2   -1    0    0    0  501 -0.00000000000E+00 -0.00000000000E+00 -0.13036129864E+04  0.13036129864E+04  0.25500000000E-02 0.  1.
    8880023    1    1    2    0    0  0.33710179264E+03  0.11523606226E+04  0.91706041119E+03  0.16481452082E+04  0.65864270000E+03 0.  0.
    8880022    1    1    2    0    0 -0.33710179264E+03 -0.11523606226E+04 -0.54765106746E+03  0.13284901083E+04  0.15294330000E+03 0.  0.
<mgrwt>
<rscale>  0 0.13278136E+04</rscale>
<asrwt>0</asrwt>
<pdfrwt beam="1">  1        2 0.25738805E+00 0.13694462E+04</pdfrwt>
<pdfrwt beam="2">  1       -2 0.20055584E+00 0.13694462E+04</pdfrwt>
<totfact> 0.12755976E+00</totfact>
</mgrwt>
</event>
<event>
 4    2  0.2930016E-007  0.7961332E+03  0.7818608E-02  0.9719220E-01
         -2   -1    0    0    0  501 -0.00000000000E+00  0.00000000000E+00  0.72804937598E+03  0.72804937598E+03  0.25500000000E-02 0.  1.
          2   -1    0    0  501    0  0.00000000000E+00 -0.00000000000E+00 -0.88977394739E+03  0.88977394739E+03  0.25500000000E-02 0. -1.
    8880023    1    1    2    0    0 -0.37432132751E+03  0.24474762239E+03 -0.58132612350E+03  0.98578299996E+03  0.65864270000E+03 0. -1.
    8880022    1    1    2    0    0  0.37432132751E+03 -0.24474762239E+03  0.41960155209E+03  0.63204032341E+03  0.15294330000E+03 0.  0.
<mgrwt>
<rscale>  0 0.69883879E+03</rscale>
<asrwt>0</asrwt>
<pdfrwt beam="1">  1        2 0.13688830E+00 0.79613319E+03</pdfrwt>
<pdfrwt beam="2">  1       -2 0.11200760E+00 0.79613319E+03</pdfrwt>
<totfact> 0.18937404E+01</totfact>
</mgrwt>
</event>
<event>
 4    2  0.2930016E-007  0.6966464E+03  0.7818608E-02  0.1001141E+00
          2   -1    0    0  501    0  0.00000000000E+00  0.00000000000E+00  0.32155387653E+04  0.32155387653E+04  0.25500000000E-02 0. -1.
         -2   -1    0    0    0  501 -0.00000000000E+00 -0.00000000000E+00 -0.14674477168E+03  0.14674477170E+03  0.25500000000E-02 0.  1.
    8880023    1    1    2    0    0 -0.22489389259E+03  0.30475108809E+02  0.30003709579E+04  0.30801853980E+04  0.65864270000E+03 0. -1.
    8880022    1    1    2    0    0  0.22489389259E+03 -0.30475108809E+02  0.68423035777E+02  0.28209813899E+03  0.15294330000E+03 0.  0.
<mgrwt>
<rscale>  0 0.55152832E+03</rscale>
<asrwt>0</asrwt>
<pdfrwt beam="1">  1        2 0.49469828E+00 0.69664640E+03</pdfrwt>
<pdfrwt beam="2">  1       -2 0.22576118E-01 0.69664640E+03</pdfrwt>
<totfact> 0.23459190E+01</totfact>
</mgrwt>
</event>
<event>
 4    2  0.2930016E-007  0.1303026E+04  0.7818608E-02  0.9062951E-01
          2   -1    0    0  501    0  0.00000000000E+00  0.00000000000E+00  0.29262657786E+04  0.29262657786E+04  0.25500000000E-02 0. -1.
         -2   -1    0    0    0  501 -0.00000000000E+00 -0.00000000000E+00 -0.73660102379E+03  0.73660102379E+03  0.25500000000E-02 0.  1.
    8880023    1    1    2    0    0  0.55210749489E+03  0.97941040114E+03  0.12762752859E+03  0.13092617813E+04  0.65864270000E+03 0.  1.
    8880022    1    1    2    0    0 -0.55210749489E+03 -0.97941040114E+03  0.20620372262E+04  0.23536050210E+04  0.15294330000E+03 0.  0.
<mgrwt>
<rscale>  0 0.12587271E+04</rscale>
<asrwt>0</asrwt>
<pdfrwt beam="1">  1        2 0.45019474E+00 0.13030263E+04</pdfrwt>
<pdfrwt beam="2">  1       -2 0.11332323E+00 0.13030263E+04</pdfrwt>
<totfact> 0.11529405E+00</totfact>
</mgrwt>
</event>
<event>
 4    2  0.2930016E-007  0.9730493E+03  0.7818608E-02  0.9417699E-01
         -2   -1    0    0    0  501 -0.00000000000E+00  0.00000000000E+00  0.85730164084E+03  0.85730164085E+03  0.25500000000E-02 0.  1.
          2   -1    0    0  501    0  0.00000000000E+00 -0.00000000000E+00 -0.23157098732E+04  0.23157098732E+04  0.25500000000E-02 0. -1.
    8880023    1    1    2    0    0 -0.57304437073E+03 -0.42969152471E+03 -0.20252523879E+04  0.22468805260E+04  0.65864270000E+03 0.  0.
    8880022    1    1    2    0    0  0.57304437073E+03  0.42969152471E+03  0.56684415557E+03  0.92613098801E+03  0.15294330000E+03 0.  0.
<mgrwt>
<rscale>  0 0.90633313E+03</rscale>
<asrwt>0</asrwt>
<pdfrwt beam="1">  1        2 0.35626306E+00 0.97304926E+03</pdfrwt>
<pdfrwt beam="2">  1       -2 0.13189256E+00 0.97304926E+03</pdfrwt>
<totfact> 0.18725779E+00</totfact>
</mgrwt>
</event>
<event>
 4    2  0.2930016E-007  0.7545494E+03  0.7818608E-02  0.9819429E-01
          2   -1    0    0  501    0  0.00000000000E+00  0.00000000000E+00  0.10570867617E+04  0.10570867617E+04  0.25500000000E-02 0. -1.
         -2   -1    0    0    0  501 -0.00000000000E+00 -0.00000000000E+00 -0.48051860531E+03  0.48051860531E+03  0.25500000000E-02 0.  1.
    8880023    1    1    2    0    0 -0.33589176892E+03  0.15070253216E+03  0.78407975822E+03  0.10881754487E+04  0.65864270000E+03 0. -1.
    8880022    1    1    2    0    0  0.33589176892E+03 -0.15070253216E+03 -0.20751160179E+03  0.44942991836E+03  0.15294330000E+03 0.  0.
<mgrwt>
<rscale>  0 0.64330241E+03</rscale>
<asrwt>0</asrwt>
<pdfrwt beam="1">  1        2 0.16262873E+00 0.75454936E+03</pdfrwt>
<pdfrwt beam="2">  1       -2 0.73925940E-01 0.75454936E+03</pdfrwt>
<totfact> 0.38812392E+01</totfact>
</mgrwt>
</event>
<event>
 4    2  0.2930016E-007  0.7113971E+03  0.7818608E-02  0.9952849E-01
          2   -1    0    0  501    0  0.00000000000E+00  0.00000000000E+00  0.54313472770E+03  0.54313472771E+03  0.25500000000E-02 0. -1.
         -2   -1    0    0    0  501 -0.00000000000E+00 -0.00000000000E+00 -0.18076287807E+04  0.18076287807E+04  0.25500000000E-02 0.  1.
    8880023    1    1    2    0    0  0.17119058894E+03 -0.20729077097E+03  0.28820322431E+03  0.76755910928E+03  0.65864270000E+03 0. -1.
    8880022    1    1    2    0    0 -0.17119058894E+03  0.20729077097E+03 -0.15526972773E+04  0.15832043991E+04  0.15294330000E+03 0.  0.
<mgrwt>
<rscale>  0 0.57766964E+03</rscale>
<asrwt>0</asrwt>
<pdfrwt beam="1">  1        2 0.83559190E-01 0.71139714E+03</pdfrwt>
<pdfrwt beam="2">  1       -2 0.27809673E+00 0.71139714E+03</pdfrwt>
<totfact> 0.25194655E+00</totfact>
</mgrwt>
</event>
<event>
 4    2  0.2930016E-007  0.8823459E+03  0.7818608E-02  0.9554988E-01
          2   -1    0    0  501    0  0.00000000000E+00  0.00000000000E+00  0.10057076332E+04  0.10057076332E+04  0.25500000000E-02 0. -1.
         -2   -1    0    0    0  501 -0.00000000000E+00 -0.00000000000E+00 -0.82519768686E+03  0.82519768687E+03  0.25500000000E-02 0.  1.
    8880023    1    1    2    0    0 -0.46991785263E+03 -0.35199605054E+03  0.62286447523E+03  0.10800436883E+04  0.65864270000E+03 0. -1.
    8880022    1    1    2    0    0  0.46991785263E+03  0.35199605054E+03 -0.44235452891E+03  0.75086163178E+03  0.15294330000E+03 0.  0.
<mgrwt>
<rscale>  0 0.80348389E+03</rscale>
<asrwt>0</asrwt>
<pdfrwt beam="1">  1        2 0.15472425E+00 0.88234586E+03</pdfrwt>
<pdfrwt beam="2">  1       -2 0.12695349E+00 0.88234586E+03</pdfrwt>
<totfact> 0.11551922E+01</totfact>
</mgrwt>
</event>
<event>
 4    2  0.2930016E-007  0.7542906E+03  0.7818608E-02  0.9820119E-01
          2   -1    0    0  501    0  0.00000000000E+00  0.00000000000E+00  0.56328105519E+03  0.56328105520E+03  0.25500000000E-02 0. -1.
         -2   -1    0    0    0  501 -0.00000000000E+00 -0.00000000000E+00 -0.90428984477E+03  0.90428984478E+03  0.25500000000E-02 0.  1.
    8880023    1    1    2    0    0  0.19823068036E+03 -0.30959445207E+03  0.21441540296E+03  0.78417364064E+03  0.65864270000E+03 0. -1.
    8880022    1    1    2    0    0 -0.19823068036E+03  0.30959445207E+03 -0.55542419254E+03  0.68339725933E+03  0.15294330000E+03 0.  0.
<mgrwt>
<rscale>  0 0.64293925E+03</rscale>
<asrwt>0</asrwt>
<pdfrwt beam="1">  1        2 0.86658624E-01 0.75429062E+03</pdfrwt>
<pdfrwt beam="2">  1       -2 0.13912151E+00 0.75429062E+03</pdfrwt>
<totfact> 0.19790787E+01</totfact>
</mgrwt>
</event>
<event>
 4    2  0.2930016E-007  0.6630536E+03  0.7818608E-02  0.1021225E+00
          2   -1    0    0  501    0  0.00000000000E+00  0.00000000000E+00  0.39871287390E+03  0.39871287390E+03  0.25500000000E-02 0. -1.
         -2   -1    0    0    0  501 -0.00000000000E+00 -0.00000000000E+00 -0.43771720379E+03  0.43771720380E+03  0.25500000000E-02 0.  1.
    8880023    1    1    2    0    0 -0.53489882588E+01  0.76166259606E+02 -0.51367675041E+02  0.66504041613E+03  0.65864270000E+03 0.  0.
    8880022    1    1    2    0    0  0.53489882588E+01 -0.76166259606E+02  0.12363345146E+02  0.17138966158E+03  0.15294330000E+03 0.  1.
<mgrwt>
<rscale>  0 0.47247020E+03</rscale>
<asrwt>0</asrwt>
<pdfrwt beam="1">  1        2 0.61340442E-01 0.66305363E+03</pdfrwt>
<pdfrwt beam="2">  1       -2 0.67341108E-01 0.66305363E+03</pdfrwt>
<totfact> 0.16358727E+02</totfact>
</mgrwt>
</event>
<event>
 4    2  0.3308433E-007  0.8702624E+03  0.7818608E-02  0.9575563E-01
         -2   -1    0    0    0  501 -0.00000000000E+00  0.00000000000E+00  0.65734670601E+03  0.65734670601E+03  0.25500000000E-02 0.  1.
          2   -1    0    0  501    0  0.00000000000E+00 -0.00000000000E+00 -0.22470215747E+04  0.22470215747E+04  0.25500000000E-02 0. -1.
    8880023    1    1    2    0    0 -0.31425093152E+03 -0.47412323880E+03 -0.20036127319E+04  0.21844497429E+04  0.65864270000E+03 0. -1.
    8880022    1    1    2    0    0  0.31425093152E+03  0.47412323880E+03  0.41393786319E+03  0.71991853784E+03  0.15294330000E+03 0.  0.
<mgrwt>
<rscale>  0 0.78934922E+03</rscale>
<asrwt>0</asrwt>
<pdfrwt beam="1">  1        2 0.34569562E+00 0.87026243E+03</pdfrwt>
<pdfrwt beam="2">  1       -2 0.10113026E+00 0.87026243E+03</pdfrwt>
<totfact> 0.39943319E+00</totfact>
</mgrwt>
</event>
<event>
 4    2  0.2930016E-007  0.9663681E+03  0.7818608E-02  0.9426945E-01
         -2   -1    0    0    0  501 -0.00000000000E+00  0.00000000000E+00  0.11572231376E+04  0.11572231376E+04  0.25500000000E-02 0.  1.
          2   -1    0    0  501    0  0.00000000000E+00 -0.00000000000E+00 -0.93707342487E+03  0.93707342487E+03  0.25500000000E-02 0. -1.
    8880023    1    1    2    0    0  0.26144616307E+03 -0.65704107492E+03  0.72838528970E+03  0.12101290868E+04  0.65864270000E+03 0.  0.
    8880022    1    1    2    0    0 -0.26144616307E+03  0.65704107492E+03 -0.50823557695E+03  0.88416747566E+03  0.15294330000E+03 0.  0.
<mgrwt>
<rscale>  0 0.89890998E+03</rscale>
<asrwt>0</asrwt>
<pdfrwt beam="1">  1        2 0.14416514E+00 0.96636809E+03</pdfrwt>
<pdfrwt beam="2">  1       -2 0.17803433E+00 0.96636809E+03</pdfrwt>
<totfact> 0.51542619E+00</totfact>
</mgrwt>
</event>
<event>
 4    2  0.2930016E-007  0.6992845E+03  0.7818608E-02  0.1000018E+00
          2   -1    0    0  501    0  0.00000000000E+00  0.00000000000E+00  0.74890068708E+03  0.74890068708E+03  0.25500000000E-02 0. -1.
         -2   -1    0    0    0  501 -0.00000000000E+00 -0.00000000000E+00 -0.91153360281E+03  0.91153360281E+03  0.25500000000E-02 0.  1.
    8880023    1    1    2    0    0  0.23021196404E+03  0.46809108049E+02  0.55321735255E+03  0.89165480227E+03  0.65864270000E+03 0. -1.
    8880022    1    1    2    0    0 -0.23021196404E+03 -0.46809108049E+02 -0.71585026828E+03  0.76877948763E+03  0.15294330000E+03 0.  0.
<mgrwt>
<rscale>  0 0.55642245E+03</rscale>
<asrwt>0</asrwt>
<pdfrwt beam="1">  1        2 0.11521549E+00 0.69928453E+03</pdfrwt>
<pdfrwt beam="2">  1       -2 0.14023594E+00 0.69928453E+03</pdfrwt>
<totfact> 0.13712252E+01</totfact>
</mgrwt>
</event>
<event>
 4    2  0.2930016E-007  0.8509030E+03  0.7818608E-02  0.9609955E-01
         -2   -1    0    0    0  501 -0.00000000000E+00  0.00000000000E+00  0.41970840788E+03  0.41970840789E+03  0.25500000000E-02 0.  1.
          2   -1    0    0  501    0  0.00000000000E+00 -0.00000000000E+00 -0.14257281869E+04  0.14257281869E+04  0.25500000000E-02 0. -1.
    8880023    1    1    2    0    0 -0.30393963884E+03 -0.44479922818E+03 -0.21745612684E+03  0.87824998196E+03  0.65864270000E+03 0.  0.
    8880022    1    1    2    0    0  0.30393963884E+03  0.44479922818E+03 -0.78856365214E+03  0.96718661278E+03  0.15294330000E+03 0.  0.
<mgrwt>
<rscale>  0 0.76640801E+03</rscale>
<asrwt>0</asrwt>
<pdfrwt beam="1">  1        2 0.21934279E+00 0.85090297E+03</pdfrwt>
<pdfrwt beam="2">  1       -2 0.64570525E-01 0.85090297E+03</pdfrwt>
<totfact> 0.31326821E+01</totfact>
</mgrwt>
</event>
<event>
 4    2  0.2972384E-007  0.8155285E+03  0.7818608E-02  0.9678174E-01
          2   -1    0    0  501    0  0.00000000000E+00  0.00000000000E+00  0.32193440815E+04  0.32193440815E+04  0.25500000000E-02 0. -1.
         -2   -1    0    0    0  501 -0.00000000000E+00 -0.00000000000E+00 -0.46441318334E+03  0.46441318334E+03  0.25500000000E-02 0.  1.
    8880023    1    1    2    0    0  0.47820115657E+03  0.50992390621E+02  0.30098508104E+04  0.31183791747E+04  0.65864270000E+03 0. -1.
    8880022    1    1    2    0    0 -0.47820115657E+03 -0.50992390621E+02 -0.25491991230E+03  0.56537809009E+03  0.15294330000E+03 0.  0.
<mgrwt>
<rscale>  0 0.72331290E+03</rscale>
<asrwt>0</asrwt>
<pdfrwt beam="1">  1        2 0.49528371E+00 0.81552853E+03</pdfrwt>
<pdfrwt beam="2">  1       -2 0.71448181E-01 0.81552853E+03</pdfrwt>
<totfact> 0.23759808E+00</totfact>
</mgrwt>
</event>
<event>
 4    2  0.2930016E-007  0.6842361E+03  0.7818608E-02  0.1007022E+00
          2   -1    0    0  501    0  0.00000000000E+00  0.00000000000E+00  0.15889036506E+04  0.15889036506E+04  0.25500000000E-02 0. -1.
         -2   -1    0    0    0  501 -0.00000000000E+00 -0.00000000000E+00 -0.29853026436E+03  0.29853026437E+03  0.25500000000E-02 0.  1.
    8880023    1    1    2    0    0 -0.15254778176E+03 -0.10534690657E+03  0.14469630061E+04  0.16005876870E+04  0.65864270000E+03 0. -1.
    8880022    1    1    2    0    0  0.15254778176E+03  0.10534690657E+03 -0.15658961987E+03  0.28684622799E+03  0.15294330000E+03 0.  0.
<mgrwt>
<rscale>  0 0.52675455E+03</rscale>
<asrwt>0</asrwt>
<pdfrwt beam="1">  1        2 0.24444672E+00 0.68423607E+03</pdfrwt>
<pdfrwt beam="2">  1       -2 0.45927733E-01 0.68423607E+03</pdfrwt>
<totfact> 0.52399674E+01</totfact>
</mgrwt>
</event>
<event>
 4    2  0.2930016E-007  0.8700667E+03  0.7818608E-02  0.9575902E-01
          2   -1    0    0  501    0  0.00000000000E+00  0.00000000000E+00  0.28863864156E+04  0.28863864156E+04  0.25500000000E-02 0. -1.
         -2   -1    0    0    0  501 -0.00000000000E+00 -0.00000000000E+00 -0.36286978457E+03  0.36286978458E+03  0.25500000000E-02 0.  1.
    8880023    1    1    2    0    0  0.27409325690E+03  0.49807510441E+03  0.25141624257E+04  0.26604565082E+04  0.65864270000E+03 0. -1.
    8880022    1    1    2    0    0 -0.27409325690E+03 -0.49807510441E+03  0.93542053680E+01  0.58879969199E+03  0.15294330000E+03 0.  0.
<mgrwt>
<rscale>  0 0.78911921E+03</rscale>
<asrwt>0</asrwt>
<pdfrwt beam="1">  1        2 0.44405947E+00 0.87006674E+03</pdfrwt>
<pdfrwt beam="2">  1       -2 0.55826118E-01 0.87006674E+03</pdfrwt>
<totfact> 0.64184995E+00</totfact>
</mgrwt>
</event>
<event>
 4    2  0.2990131E-007  0.6985820E+03  0.7818608E-02  0.1000313E+00
         -2   -1    0    0    0  501 -0.00000000000E+00  0.00000000000E+00  0.58119059078E+03  0.58119059079E+03  0.25500000000E-02 0.  1.
          2   -1    0    0  501    0  0.00000000000E+00 -0.00000000000E+00 -0.26967707470E+04  0.26967707470E+04  0.25500000000E-02 0. -1.
    8880023    1    1    2    0    0 -0.15007336275E+03 -0.17800178709E+03 -0.26146753821E+04  0.27063895156E+04  0.65864270000E+03 0. -1.
    8880022    1    1    2    0    0  0.15007336275E+03  0.17800178709E+03  0.49909522585E+03  0.57157182216E+03  0.15294330000E+03 0.  0.
<mgrwt>
<rscale>  0 0.55512986E+03</rscale>
<asrwt>0</asrwt>
<pdfrwt beam="1">  1        2 0.41488780E+00 0.69858203E+03</pdfrwt>
<pdfrwt beam="2">  1       -2 0.89413938E-01 0.69858203E+03</pdfrwt>
<totfact> 0.30551797E+00</totfact>
</mgrwt>
</event>
<event>
 4    2  0.2930016E-007  0.7876747E+03  0.7818608E-02  0.9738108E-01
         -2   -1    0    0    0  501 -0.00000000000E+00  0.00000000000E+00  0.65295818976E+03  0.65295818976E+03  0.25500000000E-02 0.  1.
          2   -1    0    0  501    0  0.00000000000E+00 -0.00000000000E+00 -0.66942066782E+03  0.66942066783E+03  0.25500000000E-02 0. -1.
    8880023    1    1    2    0    0  0.16523357794E+03 -0.39914788730E+03 -0.22457864661E+03  0.81906467754E+03  0.65864270000E+03 0. -1.
    8880022    1    1    2    0    0 -0.16523357794E+03  0.39914788730E+03  0.20811616854E+03  0.50331418005E+03  0.15294330000E+03 0.  0.
<mgrwt>
<rscale>  0 0.68792467E+03</rscale>
<asrwt>0</asrwt>
<pdfrwt beam="1">  1        2 0.10298779E+00 0.78767466E+03</pdfrwt>
<pdfrwt beam="2">  1       -2 0.10045511E+00 0.78767466E+03</pdfrwt>
<totfact> 0.35773838E+01</totfact>
</mgrwt>
</event>
<event>
 4    2  0.2930016E-007  0.7927644E+03  0.7818608E-02  0.9726665E-01
         -2   -1    0    0    0  501 -0.00000000000E+00  0.00000000000E+00  0.35219565441E+03  0.35219565442E+03  0.25500000000E-02 0.  1.
          2   -1    0    0  501    0  0.00000000000E+00 -0.00000000000E+00 -0.26342935483E+04  0.26342935483E+04  0.25500000000E-02 0. -1.
    8880023    1    1    2    0    0  0.25205792254E+03 -0.36212155963E+03 -0.23807020729E+04  0.25092265315E+04  0.65864270000E+03 0.  0.
    8880022    1    1    2    0    0 -0.25205792254E+03  0.36212155963E+03  0.98604178948E+02  0.47726267127E+03  0.15294330000E+03 0.  0.
<mgrwt>
<rscale>  0 0.69451133E+03</rscale>
<asrwt>0</asrwt>
<pdfrwt beam="1">  1        2 0.40527592E+00 0.79276442E+03</pdfrwt>
<pdfrwt beam="2">  1       -2 0.54183949E-01 0.79276442E+03</pdfrwt>
<totfact> 0.97358490E+00</totfact>
</mgrwt>
</event>
<event>
 4    2  0.2930016E-007  0.8467918E+03  0.7818608E-02  0.9617504E-01
          2   -1    0    0  501    0  0.00000000000E+00  0.00000000000E+00  0.15607288556E+04  0.15607288556E+04  0.25500000000E-02 0. -1.
         -2   -1    0    0    0  501 -0.00000000000E+00 -0.00000000000E+00 -0.86343800951E+03  0.86343800952E+03  0.25500000000E-02 0.  1.
    8880023    1    1    2    0    0  0.41744216435E+03  0.33013351983E+03 -0.58379137912E+03  0.10285274338E+04  0.65864270000E+03 0.  1.
    8880022    1    1    2    0    0 -0.41744216435E+03 -0.33013351983E+03  0.12810822252E+04  0.13956394313E+04  0.15294330000E+03 0.  0.
<mgrwt>
<rscale>  0 0.76148381E+03</rscale>
<asrwt>0</asrwt>
<pdfrwt beam="1">  1        2 0.24011213E+00 0.84679177E+03</pdfrwt>
<pdfrwt beam="2">  1       -2 0.13283662E+00 0.84679177E+03</pdfrwt>
<totfact> 0.48843510E+00</totfact>
</mgrwt>
</event>
<event>
 4    2  0.2930016E-007  0.6598243E+03  0.7818608E-02  0.1024337E+00
         -2   -1    0    0    0  501 -0.00000000000E+00  0.00000000000E+00  0.17988880584E+03  0.17988880586E+03  0.25500000000E-02 0.  1.
          2   -1    0    0  501    0  0.00000000000E+00 -0.00000000000E+00 -0.99209816725E+03  0.99209816725E+03  0.25500000000E-02 0. -1.
    8880023    1    1    2    0    0 -0.37001632689E+01 -0.39296078247E+02 -0.52108267592E+03  0.84077061936E+03  0.65864270000E+03 0.  1.
    8880022    1    1    2    0    0  0.37001632689E+01  0.39296078247E+02 -0.29112668549E+03  0.33121635375E+03  0.15294330000E+03 0.  0.
<mgrwt>
<rscale>  0 0.46153433E+03</rscale>
<asrwt>0</asrwt>
<pdfrwt beam="1">  1        2 0.15263048E+00 0.65982428E+03</pdfrwt>
<pdfrwt beam="2">  1       -2 0.27675201E-01 0.65982428E+03</pdfrwt>
<totfact> 0.30722260E+02</totfact>
</mgrwt>
</event>
<event>
 4    2  0.2930016E-007  0.7875320E+03  0.7818608E-02  0.9738433E-01
          2   -1    0    0  501    0  0.00000000000E+00  0.00000000000E+00  0.34301846031E+04  0.34301846031E+04  0.25500000000E-02 0. -1.
         -2   -1    0    0    0  501 -0.00000000000E+00 -0.00000000000E+00 -0.47475435441E+03  0.47475435442E+03  0.25500000000E-02 0.  1.
    8880023    1    1    2    0    0 -0.29095873606E+03 -0.31896613561E+03  0.32607324164E+04  0.33544869175E+04  0.65864270000E+03 0. -1.
    8880022    1    1    2    0    0  0.29095873606E+03  0.31896613561E+03 -0.30530216773E+03  0.55045204005E+03  0.15294330000E+03 0.  1.
<mgrwt>
<rscale>  0 0.68773912E+03</rscale>
<asrwt>0</asrwt>
<pdfrwt beam="1">  1        2 0.52772069E+00 0.78753196E+03</pdfrwt>
<pdfrwt beam="2">  1       -2 0.73039134E-01 0.78753196E+03</pdfrwt>
<totfact> 0.16560051E+00</totfact>
</mgrwt>
</event>
<event>
 4    2  0.2930016E-007  0.7012238E+03  0.7818608E-02  0.9992162E-01
          2   -1    0    0  501    0  0.00000000000E+00  0.00000000000E+00  0.49791044936E+03  0.49791044937E+03  0.25500000000E-02 0. -1.
         -2   -1    0    0    0  501 -0.00000000000E+00 -0.00000000000E+00 -0.52318176895E+03  0.52318176896E+03  0.25500000000E-02 0.  1.
    8880023    1    1    2    0    0  0.24061063212E+03 -0.33415416821E+01  0.10244894068E+03  0.70866821143E+03  0.65864270000E+03 0.  1.
    8880022    1    1    2    0    0 -0.24061063212E+03  0.33415416821E+01 -0.12772026027E+03  0.31242400690E+03  0.15294330000E+03 0.  0.
<mgrwt>
<rscale>  0 0.55995270E+03</rscale>
<asrwt>0</asrwt>
<pdfrwt beam="1">  1        2 0.76601608E-01 0.70122382E+03</pdfrwt>
<pdfrwt beam="2">  1       -2 0.80489503E-01 0.70122382E+03</pdfrwt>
<totfact> 0.85556715E+01</totfact>
</mgrwt>
</event>
<event>
 4    2  0.2930016E-007  0.8172792E+03  0.7818608E-02  0.9674609E-01
          2   -1    0    0  501    0  0.00000000000E+00  0.00000000000E+00  0.39833612199E+03  0.39833612199E+03  0.25500000000E-02 0. -1.
         -2   -1    0    0    0  501 -0.00000000000E+00 -0.00000000000E+00 -0.11015363358E+04  0.11015363358E+04  0.25500000000E-02 0.  1.
    8880023    1    1    2    0    0  0.43658419775E+03 -0.20863690874E+03 -0.44086224622E+03  0.92860370871E+03  0.65864270000E+03 0. -1.
    8880022    1    1    2    0    0 -0.43658419775E+03  0.20863690874E+03 -0.26233796757E+03  0.57126874906E+03  0.15294330000E+03 0.  1.
<mgrwt>
<rscale>  0 0.72548868E+03</rscale>
<asrwt>0</asrwt>
<pdfrwt beam="1">  1        2 0.61282481E-01 0.81727922E+03</pdfrwt>
<pdfrwt beam="2">  1       -2 0.16946713E+00 0.81727922E+03</pdfrwt>
<totfact> 0.17329951E+01</totfact>
</mgrwt>
</event>
<event>
 4    2  0.2930016E-007  0.8457410E+03  0.7818608E-02  0.9619449E-01
         -2   -1    0    0    0  501 -0.00000000000E+00  0.00000000000E+00  0.54082531352E+03  0.54082531352E+03  0.25500000000E-02 0.  1.
          2   -1    0    0  501    0  0.00000000000E+00 -0.00000000000E+00 -0.42950247050E+04  0.42950247050E+04  0.25500000000E-02 0. -1.
    8880023    1    1    2    0    0 -0.73943512650E+02  0.52535696498E+03 -0.40987022883E+04  0.41850493711E+04  0.65864270000E+03 0. -1.
    8880022    1    1    2    0    0  0.73943512650E+02 -0.52535696498E+03  0.34450289687E+03  0.65080064742E+03  0.15294330000E+03 0.  0.
<mgrwt>
<rscale>  0 0.76022202E+03</rscale>
<asrwt>0</asrwt>
<pdfrwt beam="1">  1        2 0.66077301E+00 0.84574097E+03</pdfrwt>
<pdfrwt beam="2">  1       -2 0.83203897E-01 0.84574097E+03</pdfrwt>
<totfact> 0.26731511E-01</totfact>
</mgrwt>
</event>
<event>
 4    2  0.2930016E-007  0.8842896E+03  0.7818608E-02  0.9551738E-01
         -2   -1    0    0    0  501 -0.00000000000E+00  0.00000000000E+00  0.13917432648E+04  0.13917432648E+04  0.25500000000E-02 0.  1.
          2   -1    0    0  501    0  0.00000000000E+00 -0.00000000000E+00 -0.73034656458E+03  0.73034656458E+03  0.25500000000E-02 0. -1.
    8880023    1    1    2    0    0 -0.56293478760E+03 -0.17681153210E+03 -0.34194742720E+03  0.94810133541E+03  0.65864270000E+03 0.  0.
    8880022    1    1    2    0    0  0.56293478760E+03  0.17681153210E+03  0.10033441275E+04  0.11739884940E+04  0.15294330000E+03 0.  0.
<mgrwt>
<rscale>  0 0.80574567E+03</rscale>
<asrwt>0</asrwt>
<pdfrwt beam="1">  1        2 0.11236101E+00 0.88428960E+03</pdfrwt>
<pdfrwt beam="2">  1       -2 0.21411435E+00 0.88428960E+03</pdfrwt>
<totfact> 0.42095540E+00</totfact>
</mgrwt>
</event>
<event>
 4    2  0.2930016E-007  0.1006567E+04  0.7818608E-02  0.9373016E-01
          2   -1    0    0  501    0  0.00000000000E+00  0.00000000000E+00  0.30096795923E+04  0.30096795923E+04  0.25500000000E-02 0. -1.
         -2   -1    0    0    0  501 -0.00000000000E+00 -0.00000000000E+00 -0.57659889937E+03  0.57659889938E+03  0.25500000000E-02 0.  1.
    8880023    1    1    2    0    0  0.71873350420E+03  0.25057819324E+03  0.26035983818E+04  0.27913978615E+04  0.65864270000E+03 0.  0.
    8880022    1    1    2    0    0 -0.71873350420E+03 -0.25057819324E+03 -0.17051768891E+03  0.79488063018E+03  0.15294330000E+03 0.  1.
<mgrwt>
<rscale>  0 0.94330043E+03</rscale>
<asrwt>0</asrwt>
<pdfrwt beam="1">  1        2 0.46302763E+00 0.10065672E+04</pdfrwt>
<pdfrwt beam="2">  1       -2 0.88707523E-01 0.10065672E+04</pdfrwt>
<totfact> 0.19129676E+00</totfact>
</mgrwt>
</event>
<event>
 4    2  0.2930016E-007  0.7394595E+03  0.7818608E-02  0.9861524E-01
         -2   -1    0    0    0  501 -0.00000000000E+00  0.00000000000E+00  0.29166531844E+03  0.29166531845E+03  0.25500000000E-02 0.  1.
          2   -1    0    0  501    0  0.00000000000E+00 -0.00000000000E+00 -0.12821868461E+04  0.12821868461E+04  0.25500000000E-02 0. -1.
    8880023    1    1    2    0    0  0.31648692423E+03  0.11325289787E+03 -0.94773549292E+03  0.12020827604E+04  0.65864270000E+03 0.  0.
    8880022    1    1    2    0    0 -0.31648692423E+03 -0.11325289787E+03 -0.42786034771E+02  0.37176940416E+03  0.15294330000E+03 0.  0.
<mgrwt>
<rscale>  0 0.62162773E+03</rscale>
<asrwt>0</asrwt>
<pdfrwt beam="1">  1        2 0.19725951E+00 0.73945953E+03</pdfrwt>
<pdfrwt beam="2">  1       -2 0.44871588E-01 0.73945953E+03</pdfrwt>
<totfact> 0.81179568E+01</totfact>
</mgrwt>
</event>
<event>
 4    2  0.2930016E-007  0.1070759E+04  0.7818608E-02  0.9294333E-01
         -2   -1    0    0    0  501 -0.00000000000E+00  0.00000000000E+00  0.74909342153E+03  0.74909342153E+03  0.25500000000E-02 0.  1.
          2   -1    0    0  501    0  0.00000000000E+00 -0.00000000000E+00 -0.34934837235E+04  0.34934837235E+04  0.25500000000E-02 0. -1.
    8880023    1    1    2    0    0 -0.37020727405E+03  0.75872310894E+03 -0.31254609548E+04  0.33037903336E+04  0.65864270000E+03 0.  0.
    8880022    1    1    2    0    0  0.37020727405E+03 -0.75872310894E+03  0.38107065288E+03  0.93878681143E+03  0.15294330000E+03 0.  0.
<mgrwt>
<rscale>  0 0.10130626E+04</rscale>
<asrwt>0</asrwt>
<pdfrwt beam="1">  1        2 0.53745903E+00 0.10707588E+04</pdfrwt>
<pdfrwt beam="2">  1       -2 0.11524514E+00 0.10707588E+04</pdfrwt>
<totfact> 0.49116753E-01</totfact>
</mgrwt>
</event>
<event>
 4    2  0.3343491E-007  0.8190592E+03  0.7818608E-02  0.9671007E-01
          2   -1    0    0  501    0  0.00000000000E+00  0.00000000000E+00  0.99858282344E+03  0.99858282344E+03  0.25500000000E-02 0. -1.
         -2   -1    0    0    0  501 -0.00000000000E+00 -0.00000000000E+00 -0.14577028236E+04  0.14577028236E+04  0.25500000000E-02 0.  1.
    8880023    1    1    2    0    0  0.41240377131E+03 -0.25878720968E+03  0.77078364014E+03  0.11247067692E+04  0.65864270000E+03 0. -1.
    8880022    1    1    2    0    0 -0.41240377131E+03  0.25878720968E+03 -0.12299036403E+04  0.13315788778E+04  0.15294330000E+03 0.  0.
<mgrwt>
<rscale>  0 0.72769564E+03</rscale>
<asrwt>0</asrwt>
<pdfrwt beam="1">  1        2 0.15362813E+00 0.81905915E+03</pdfrwt>
<pdfrwt beam="2">  1       -2 0.22426197E+00 0.81905915E+03</pdfrwt>
<totfact> 0.23864310E+00</totfact>
</mgrwt>
</event>
<event>
 4    2  0.3645388E-007  0.1230035E+04  0.7818608E-02  0.9128465E-01
          2   -1    0    0  501    0  0.00000000000E+00  0.00000000000E+00  0.26710557304E+04  0.26710557304E+04  0.25500000000E-02 0. -1.
         -2   -1    0    0    0  501 -0.00000000000E+00 -0.00000000000E+00 -0.14840957372E+04  0.14840957372E+04  0.25500000000E-02 0.  1.
    8880023    1    1    2    0    0  0.10368337154E+04 -0.64439703361E+02  0.23103807333E+04  0.26174120745E+04  0.65864270000E+03 0.  0.
    8880022    1    1    2    0    0 -0.10368337154E+04  0.64439703361E+02 -0.11234207401E+04  0.15377393931E+04  0.15294330000E+03 0.  0.
<mgrwt>
<rscale>  0 0.11823304E+04</rscale>
<asrwt>0</asrwt>
<pdfrwt beam="1">  1        2 0.41093165E+00 0.12300353E+04</pdfrwt>
<pdfrwt beam="2">  1       -2 0.22832242E+00 0.12300353E+04</pdfrwt>
<totfact> 0.23571123E-01</totfact>
</mgrwt>
</event>
<event>
 4    2  0.2930016E-007  0.7688650E+03  0.7818608E-02  0.9782675E-01
          2   -1    0    0  501    0  0.00000000000E+00  0.00000000000E+00  0.29152694448E+04  0.29152694448E+04  0.25500000000E-02 0. -1.
         -2   -1    0    0    0  501 -0.00000000000E+00 -0.00000000000E+00 -0.12568590300E+03  0.12568590302E+03  0.25500000000E-02 0.  1.
    8880023    1    1    2    0    0 -0.39521951846E+03  0.33834395055E+02  0.20262545290E+04  0.21672242285E+04  0.65864270000E+03 0. -1.
    8880022    1    1    2    0    0  0.39521951846E+03 -0.33834395055E+02  0.76332901274E+03  0.87373111926E+03  0.15294330000E+03 0.  1.
<mgrwt>
<rscale>  0 0.66300657E+03</rscale>
<asrwt>0</asrwt>
<pdfrwt beam="1">  1        2 0.44850297E+00 0.76886503E+03</pdfrwt>
<pdfrwt beam="2">  1       -2 0.19336294E-01 0.76886503E+03</pdfrwt>
<totfact> 0.46740575E+01</totfact>
</mgrwt>
</event>
<event>
 4    2  0.2930016E-007  0.7828599E+03  0.7818608E-02  0.9749161E-01
         -2   -1    0    0    0  501 -0.00000000000E+00  0.00000000000E+00  0.10037045354E+04  0.10037045354E+04  0.25500000000E-02 0.  1.
          2   -1    0    0  501    0  0.00000000000E+00 -0.00000000000E+00 -0.11705947764E+04  0.11705947764E+04  0.25500000000E-02 0. -1.
    8880023    1    1    2    0    0  0.72351436719E+02 -0.41692284060E+03 -0.97437893297E+03  0.12499135557E+04  0.65864270000E+03 0. -1.
    8880022    1    1    2    0    0 -0.72351436719E+02  0.41692284060E+03  0.80748869200E+03  0.92438575613E+03  0.15294330000E+03 0.  0.
<mgrwt>
<rscale>  0 0.68163680E+03</rscale>
<asrwt>0</asrwt>
<pdfrwt beam="1">  1        2 0.18009150E+00 0.78285988E+03</pdfrwt>
<pdfrwt beam="2">  1       -2 0.15441608E+00 0.78285988E+03</pdfrwt>
<totfact> 0.55618667E+00</totfact>
</mgrwt>
</event>
<event>
 4    2  0.2930016E-007  0.7738320E+03  0.7818608E-02  0.9770530E-01
          2   -1    0    0  501    0  0.00000000000E+00  0.00000000000E+00  0.37828253185E+04  0.37828253185E+04  0.25500000000E-02 0. -1.
         -2   -1    0    0    0  501 -0.00000000000E+00 -0.00000000000E+00 -0.25110663251E+03  0.25110663253E+03  0.25500000000E-02 0.  1.
    8880023    1    1    2    0    0 -0.40523118968E+03  0.28167971366E+02  0.35154156445E+04  0.35995781852E+04  0.65864270000E+03 0. -1.
    8880022    1    1    2    0    0  0.40523118968E+03 -0.28167971366E+02  0.16303041499E+02  0.43435376581E+03  0.15294330000E+03 0.  0.
<mgrwt>
<rscale>  0 0.66968316E+03</rscale>
<asrwt>0</asrwt>
<pdfrwt beam="1">  1        2 0.58197314E+00 0.77383200E+03</pdfrwt>
<pdfrwt beam="2">  1       -2 0.38631789E-01 0.77383200E+03</pdfrwt>
<totfact> 0.34964532E+00</totfact>
</mgrwt>
</event>
<event>
 4    2  0.2930016E-007  0.6776642E+03  0.7818608E-02  0.1010677E+00
         -2   -1    0    0    0  501 -0.00000000000E+00  0.00000000000E+00  0.21466746194E+03  0.21466746196E+03  0.25500000000E-02 0.  1.
          2   -1    0    0  501    0  0.00000000000E+00 -0.00000000000E+00 -0.14530427710E+04  0.14530427710E+04  0.25500000000E-02 0. -1.
    8880023    1    1    2    0    0  0.15432027975E+02 -0.15868329714E+03 -0.12748686163E+04  0.14437862485E+04  0.65864270000E+03 0.  0.
    8880022    1    1    2    0    0 -0.15432027975E+02  0.15868329714E+03  0.36493307339E+02  0.22392398437E+03  0.15294330000E+03 0.  1.
<mgrwt>
<rscale>  0 0.51206455E+03</rscale>
<asrwt>0</asrwt>
<pdfrwt beam="1">  1        2 0.22354504E+00 0.67766418E+03</pdfrwt>
<pdfrwt beam="2">  1       -2 0.33025764E-01 0.67766418E+03</pdfrwt>
<totfact> 0.11818681E+02</totfact>
</mgrwt>
</event>
<event>
 4    2  0.2930016E-007  0.6606648E+03  0.7818608E-02  0.1023485E+00
          2   -1    0    0  501    0  0.00000000000E+00  0.00000000000E+00  0.40115265746E+03  0.40115265746E+03  0.25500000000E-02 0. -1.
         -2   -1    0    0    0  501 -0.00000000000E+00 -0.00000000000E+00 -0.55419131786E+03  0.55419131787E+03  0.25500000000E-02 0.  1.
    8880023    1    1    2    0    0 -0.46368646803E+02 -0.22752332315E+02  0.86691795950E+02  0.66632829280E+03  0.65864270000E+03 0. -1.
    8880022    1    1    2    0    0  0.46368646803E+02  0.22752332315E+02 -0.23973045636E+03  0.28901568254E+03  0.15294330000E+03 0.  0.
<mgrwt>
<rscale>  0 0.46449533E+03</rscale>
<asrwt>0</asrwt>
<pdfrwt beam="1">  1        2 0.61715794E-01 0.66066476E+03</pdfrwt>
<pdfrwt beam="2">  1       -2 0.85260203E-01 0.66066476E+03</pdfrwt>
<totfact> 0.96290987E+01</totfact>
</mgrwt>
</event>
<event>
 4    2  0.2930016E-007  0.7505613E+03  0.7818608E-02  0.9830186E-01
          2   -1    0    0  501    0  0.00000000000E+00  0.00000000000E+00  0.20729398691E+04  0.20729398691E+04  0.25500000000E-02 0. -1.
         -2   -1    0    0    0  501 -0.00000000000E+00 -0.00000000000E+00 -0.21502453717E+03  0.21502453718E+03  0.25500000000E-02 0.  1.
    8880023    1    1    2    0    0 -0.26051317195E+03 -0.24832427256E+03  0.17142378515E+04  0.18713507621E+04  0.65864270000E+03 0. -1.
    8880022    1    1    2    0    0  0.26051317195E+03  0.24832427256E+03  0.14367748043E+03  0.41661364416E+03  0.15294330000E+03 0.  0.
<mgrwt>
<rscale>  0 0.63767439E+03</rscale>
<asrwt>0</asrwt>
<pdfrwt beam="1">  1        2 0.31891381E+00 0.75056130E+03</pdfrwt>
<pdfrwt beam="2">  1       -2 0.33080700E-01 0.75056130E+03</pdfrwt>
<totfact> 0.53494320E+01</totfact>
</mgrwt>
</event>
<event>
 4    2  0.2930016E-007  0.6877559E+03  0.7818608E-02  0.1005238E+00
          2   -1    0    0  501    0  0.00000000000E+00  0.00000000000E+00  0.28073686230E+04  0.28073686230E+04  0.25500000000E-02 0. -1.
         -2   -1    0    0    0  501 -0.00000000000E+00 -0.00000000000E+00 -0.14247265838E+03  0.14247265841E+03  0.25500000000E-02 0.  1.
    8880023    1    1    2    0    0  0.61543300639E+02 -0.18817643082E+03  0.26027156458E+04  0.26920506842E+04  0.65864270000E+03 0. -1.
    8880022    1    1    2    0    0 -0.61543300639E+02  0.18817643082E+03  0.62180318838E+02  0.25779059726E+03  0.15294330000E+03 0.  0.
<mgrwt>
<rscale>  0 0.53411959E+03</rscale>
<asrwt>0</asrwt>
<pdfrwt beam="1">  1        2 0.43190279E+00 0.68775588E+03</pdfrwt>
<pdfrwt beam="2">  1       -2 0.21918874E-01 0.68775588E+03</pdfrwt>
<totfact> 0.44022343E+01</totfact>
</mgrwt>
</event>
<event>
 4    2  0.2930016E-007  0.1003859E+04  0.7818608E-02  0.9376527E-01
          2   -1    0    0  501    0  0.00000000000E+00  0.00000000000E+00  0.11569167841E+04  0.11569167841E+04  0.25500000000E-02 0. -1.
         -2   -1    0    0    0  501 -0.00000000000E+00 -0.00000000000E+00 -0.12739892548E+04  0.12739892548E+04  0.25500000000E-02 0.  1.
    8880023    1    1    2    0    0  0.67156604891E+03 -0.35060122348E+03 -0.88729090436E+03  0.13397826433E+04  0.65864270000E+03 0. -1.
    8880022    1    1    2    0    0 -0.67156604891E+03  0.35060122348E+03  0.77021843367E+03  0.10911233956E+04  0.15294330000E+03 0.  0.
<mgrwt>
<rscale>  0 0.94032888E+03</rscale>
<asrwt>0</asrwt>
<pdfrwt beam="1">  1        2 0.17798720E+00 0.10038587E+04</pdfrwt>
<pdfrwt beam="2">  1       -2 0.19599835E+00 0.10038587E+04</pdfrwt>
<totfact> 0.28179496E+00</totfact>
</mgrwt>
</event>
<event>
 4    2  0.2930016E-007  0.6852495E+03  0.7818608E-02  0.1006498E+00
         -2   -1    0    0    0  501 -0.00000000000E+00  0.00000000000E+00  0.67639835466E+03  0.67639835467E+03  0.25500000000E-02 0.  1.
          2   -1    0    0  501    0  0.00000000000E+00 -0.00000000000E+00 -0.54271126306E+03  0.54271126307E+03  0.25500000000E-02 0. -1.
    8880023    1    1    2    0    0  0.18908745126E+03 -0.16035496249E+01 -0.27917820579E+03  0.73993737063E+03  0.65864270000E+03 0. -1.
    8880022    1    1    2    0    0 -0.18908745126E+03  0.16035496249E+01  0.41286529739E+03  0.47917224711E+03  0.15294330000E+03 0.  0.
<mgrwt>
<rscale>  0 0.52890699E+03</rscale>
<asrwt>0</asrwt>
<pdfrwt beam="1">  1        2 0.83494041E-01 0.68524947E+03</pdfrwt>
<pdfrwt beam="2">  1       -2 0.10406129E+00 0.68524947E+03</pdfrwt>
<totfact> 0.42724283E+01</totfact>
</mgrwt>
</event>
<event>
 4    2  0.2930016E-007  0.8387032E+03  0.7818608E-02  0.9632630E-01
         -2   -1    0    0    0  501 -0.00000000000E+00  0.00000000000E+00  0.12191666976E+04  0.12191666976E+04  0.25500000000E-02 0.  1.
          2   -1    0    0  501    0  0.00000000000E+00 -0.00000000000E+00 -0.97645219362E+03  0.97645219362E+03  0.25500000000E-02 0. -1.
    8880023    1    1    2    0    0  0.34981786520E+03 -0.38371900407E+03 -0.71065625060E+03  0.10992976511E+04  0.65864270000E+03 0. -1.
    8880022    1    1    2    0    0 -0.34981786520E+03  0.38371900407E+03  0.95337075458E+03  0.10963212401E+04  0.15294330000E+03 0.  0.
<mgrwt>
<rscale>  0 0.75173626E+03</rscale>
<asrwt>0</asrwt>
<pdfrwt beam="1">  1        2 0.15022342E+00 0.83870318E+03</pdfrwt>
<pdfrwt beam="2">  1       -2 0.18756411E+00 0.83870318E+03</pdfrwt>
<totfact> 0.42417538E+00</totfact>
</mgrwt>
</event>
<event>
 4    2  0.2930016E-007  0.7173963E+03  0.7818608E-02  0.9931496E-01
         -2   -1    0    0    0  501 -0.00000000000E+00  0.00000000000E+00  0.16158454737E+03  0.16158454739E+03  0.25500000000E-02 0.  1.
          2   -1    0    0  501    0  0.00000000000E+00 -0.00000000000E+00 -0.22328779903E+04  0.22328779903E+04  0.25500000000E-02 0. -1.
    8880023    1    1    2    0    0  0.28240147514E+03  0.33116164609E+02 -0.18957832266E+04  0.20269808884E+04  0.65864270000E+03 0.  0.
    8880022    1    1    2    0    0 -0.28240147514E+03 -0.33116164609E+02 -0.17551021640E+03  0.36748164933E+03  0.15294330000E+03 0.  0.
<mgrwt>
<rscale>  0 0.58758825E+03</rscale>
<asrwt>0</asrwt>
<pdfrwt beam="1">  1        2 0.34351967E+00 0.71739632E+03</pdfrwt>
<pdfrwt beam="2">  1       -2 0.24859163E-01 0.71739632E+03</pdfrwt>
<totfact> 0.74276600E+01</totfact>
</mgrwt>
</event>
<event>
 4    2  0.2930016E-007  0.7238888E+03  0.7818608E-02  0.9909641E-01
          2   -1    0    0  501    0  0.00000000000E+00  0.00000000000E+00  0.33959867817E+04  0.33959867817E+04  0.25500000000E-02 0. -1.
         -2   -1    0    0    0  501 -0.00000000000E+00 -0.00000000000E+00 -0.10216345041E+03  0.10216345044E+03  0.25500000000E-02 0.  1.
    8880023    1    1    2    0    0 -0.29526633008E+03 -0.54978223857E+02  0.28520825758E+04  0.29425142372E+04  0.65864270000E+03 0. -1.
    8880022    1    1    2    0    0  0.29526633008E+03  0.54978223857E+02  0.44174075548E+03  0.55563599492E+03  0.15294330000E+03 0.  0.
<mgrwt>
<rscale>  0 0.59796326E+03</rscale>
<asrwt>0</asrwt>
<pdfrwt beam="1">  1        2 0.52245949E+00 0.72388882E+03</pdfrwt>
<pdfrwt beam="2">  1       -2 0.15717454E-01 0.72388882E+03</pdfrwt>
<totfact> 0.33407965E+01</totfact>
</mgrwt>
</event>
<event>
 4    2  0.2930016E-007  0.7851813E+03  0.7818608E-02  0.9743804E-01
         -2   -1    0    0    0  501 -0.00000000000E+00  0.00000000000E+00  0.65292897828E+03  0.65292897828E+03  0.25500000000E-02 0.  1.
          2   -1    0    0  501    0  0.00000000000E+00 -0.00000000000E+00 -0.96217185824E+03  0.96217185825E+03  0.25500000000E-02 0. -1.
    8880023    1    1    2    0    0  0.31506812674E+03 -0.28884527663E+03 -0.67239918494E+03  0.10337458046E+04  0.65864270000E+03 0. -1.
    8880022    1    1    2    0    0 -0.31506812674E+03  0.28884527663E+03  0.36315630497E+03  0.58135503195E+03  0.15294330000E+03 0.  0.
<mgrwt>
<rscale>  0 0.68467567E+03</rscale>
<asrwt>0</asrwt>
<pdfrwt beam="1">  1        2 0.14802644E+00 0.78518133E+03</pdfrwt>
<pdfrwt beam="2">  1       -2 0.10045061E+00 0.78518133E+03</pdfrwt>
<totfact> 0.22054408E+01</totfact>
</mgrwt>
</event>
<event>
 4    2  0.2930016E-007  0.1011868E+04  0.7818608E-02  0.9366192E-01
          2   -1    0    0  501    0  0.00000000000E+00  0.00000000000E+00  0.96098663416E+03  0.96098663416E+03  0.25500000000E-02 0. -1.
         -2   -1    0    0    0  501 -0.00000000000E+00 -0.00000000000E+00 -0.15502300349E+04  0.15502300349E+04  0.25500000000E-02 0.  1.
    8880023    1    1    2    0    0  0.61719740974E+03 -0.45731219521E+03 -0.11620628430E+04  0.15408657774E+04  0.65864270000E+03 0.  1.
    8880022    1    1    2    0    0 -0.61719740974E+03  0.45731219521E+03  0.57281944230E+03  0.97035089167E+03  0.15294330000E+03 0.  0.
<mgrwt>
<rscale>  0 0.94910910E+03</rscale>
<asrwt>0</asrwt>
<pdfrwt beam="1">  1        2 0.14784410E+00 0.10118682E+04</pdfrwt>
<pdfrwt beam="2">  1       -2 0.23849693E+00 0.10118682E+04</pdfrwt>
<totfact> 0.20090198E+00</totfact>
</mgrwt>
</event>
<event>
 4    2  0.2930016E-007  0.6871401E+03  0.7818608E-02  0.1005543E+00
         -2   -1    0    0    0  501 -0.00000000000E+00  0.00000000000E+00  0.47251900650E+03  0.47251900651E+03  0.25500000000E-02 0.  1.
          2   -1    0    0  501    0  0.00000000000E+00 -0.00000000000E+00 -0.17729035994E+04  0.17729035994E+04  0.25500000000E-02 0. -1.
    8880023    1    1    2    0    0  0.88752371240E+02 -0.17456906887E+03 -0.16666961190E+04  0.18027860391E+04  0.65864270000E+03 0. -1.
    8880022    1    1    2    0    0 -0.88752371240E+02  0.17456906887E+03  0.36631152608E+03  0.44263656690E+03  0.15294330000E+03 0.  0.
<mgrwt>
<rscale>  0 0.53285304E+03</rscale>
<asrwt>0</asrwt>
<pdfrwt beam="1">  1        2 0.27275440E+00 0.68714012E+03</pdfrwt>
<pdfrwt beam="2">  1       -2 0.72695233E-01 0.68714012E+03</pdfrwt>
<totfact> 0.15878162E+01</totfact>
</mgrwt>
</event>
<event>
 4    2  0.2930016E-007  0.6637343E+03  0.7818608E-02  0.1020620E+00
          2   -1    0    0  501    0  0.00000000000E+00  0.00000000000E+00  0.11380788133E+04  0.11380788133E+04  0.25500000000E-02 0. -1.
         -2   -1    0    0    0  501 -0.00000000000E+00 -0.00000000000E+00 -0.69387136568E+03  0.69387136568E+03  0.25500000000E-02 0.  1.
    8880023    1    1    2    0    0 -0.22588949293E+02  0.78884104941E+02  0.10275829345E+04  0.12233028473E+04  0.65864270000E+03 0. -1.
    8880022    1    1    2    0    0  0.22588949293E+02 -0.78884104941E+02 -0.58337548689E+03  0.60864733168E+03  0.15294330000E+03 0.  0.
<mgrwt>
<rscale>  0 0.47463621E+03</rscale>
<asrwt>0</asrwt>
<pdfrwt beam="1">  1        2 0.17508905E+00 0.66373426E+03</pdfrwt>
<pdfrwt beam="2">  1       -2 0.10674944E+00 0.66373426E+03</pdfrwt>
<totfact> 0.15012810E+01</totfact>
</mgrwt>
</event>
<event>
 4    2  0.2930016E-007  0.6809004E+03  0.7818608E-02  0.1008819E+00
          2   -1    0    0  501    0  0.00000000000E+00  0.00000000000E+00  0.17016315866E+03  0.17016315868E+03  0.25500000000E-02 0. -1.
         -2   -1    0    0    0  501 -0.00000000000E+00 -0.00000000000E+00 -0.22743286841E+04  0.22743286841E+04  0.25500000000E-02 0.  1.
    8880023    1    1    2    0    0 -0.52683115193E+02  0.16443754146E+03 -0.55552825564E+03  0.87877020019E+03  0.65864270000E+03 0. -1.
    8880022    1    1    2    0    0  0.52683115193E+02 -0.16443754146E+03 -0.15486372698E+04  0.15657216426E+04  0.15294330000E+03 0.  0.
<mgrwt>
<rscale>  0 0.51946785E+03</rscale>
<asrwt>0</asrwt>
<pdfrwt beam="1">  1        2 0.26178949E-01 0.68090045E+03</pdfrwt>
<pdfrwt beam="2">  1       -2 0.34989670E+00 0.68090045E+03</pdfrwt>
<totfact> 0.34382369E+00</totfact>
</mgrwt>
</event>
<event>
 4    2  0.2930016E-007  0.9387937E+03  0.7818608E-02  0.9466424E-01
          2   -1    0    0  501    0  0.00000000000E+00  0.00000000000E+00  0.87712930343E+03  0.87712930343E+03  0.25500000000E-02 0. -1.
         -2   -1    0    0    0  501 -0.00000000000E+00 -0.00000000000E+00 -0.13538286395E+04  0.13538286395E+04  0.25500000000E-02 0.  1.
    8880023    1    1    2    0    0 -0.66758015229E+03  0.43129760286E+02  0.47937276325E+03  0.10541024089E+04  0.65864270000E+03 0.  0.
    8880022    1    1    2    0    0  0.66758015229E+03 -0.43129760286E+02 -0.95607209930E+03  0.11768555341E+04  0.15294330000E+03 0.  0.
<mgrwt>
<rscale>  0 0.86805143E+03</rscale>
<asrwt>0</asrwt>
<pdfrwt beam="1">  1        2 0.13494297E+00 0.93879372E+03</pdfrwt>
<pdfrwt beam="2">  1       -2 0.20828133E+00 0.93879372E+03</pdfrwt>
<totfact> 0.35694716E+00</totfact>
</mgrwt>
</event>
<event>
 4    2  0.2930016E-007  0.7116938E+03  0.7818608E-02  0.9951764E-01
          2   -1    0    0  501    0  0.00000000000E+00  0.00000000000E+00  0.15778434377E+04  0.15778434377E+04  0.25500000000E-02 0. -1.
         -2   -1    0    0    0  501 -0.00000000000E+00 -0.00000000000E+00 -0.58456752623E+03  0.58456752624E+03  0.25500000000E-02 0.  1.
    8880023    1    1    2    0    0  0.26855369894E+03  0.24016673066E+02  0.14472070011E+04  0.16127356262E+04  0.65864270000E+03 0. -1.
    8880022    1    1    2    0    0 -0.26855369894E+03 -0.24016673066E+02 -0.45393108960E+03  0.54967533774E+03  0.15294330000E+03 0.  0.
<mgrwt>
<rscale>  0 0.57816848E+03</rscale>
<asrwt>0</asrwt>
<pdfrwt beam="1">  1        2 0.24274514E+00 0.71169382E+03</pdfrwt>
<pdfrwt beam="2">  1       -2 0.89933466E-01 0.71169382E+03</pdfrwt>
<totfact> 0.12528812E+01</totfact>
</mgrwt>
</event>
<event>
 4    2  0.2930016E-007  0.6762011E+03  0.7818608E-02  0.1011560E+00
         -2   -1    0    0    0  501 -0.00000000000E+00  0.00000000000E+00  0.14635171476E+03  0.14635171479E+03  0.25500000000E-02 0.  1.
          2   -1    0    0  501    0  0.00000000000E+00 -0.00000000000E+00 -0.28824921861E+04  0.28824921861E+04  0.25500000000E-02 0. -1.
    8880023    1    1    2    0    0  0.14179609067E+03 -0.57720366721E+02 -0.27298483948E+04  0.28123513715E+04  0.65864270000E+03 0. -1.
    8880022    1    1    2    0    0 -0.14179609067E+03  0.57720366721E+02 -0.62920766251E+01  0.21649252945E+03  0.15294330000E+03 0.  0.
<mgrwt>
<rscale>  0 0.50859464E+03</rscale>
<asrwt>0</asrwt>
<pdfrwt beam="1">  1        2 0.44346030E+00 0.67620114E+03</pdfrwt>
<pdfrwt beam="2">  1       -2 0.22515650E-01 0.67620114E+03</pdfrwt>
<totfact> 0.37950108E+01</totfact>
</mgrwt>
</event>
<event>
 4    2  0.2930016E-007  0.7309054E+03  0.7818608E-02  0.9887278E-01
          2   -1    0    0  501    0  0.00000000000E+00  0.00000000000E+00  0.17474319889E+04  0.17474319889E+04  0.25500000000E-02 0. -1.
         -2   -1    0    0    0  501 -0.00000000000E+00 -0.00000000000E+00 -0.42552397099E+03  0.42552397099E+03  0.25500000000E-02 0.  1.
    8880023    1    1    2    0    0 -0.21356101053E+02 -0.31615886093E+03  0.15771412943E+04  0.17382742525E+04  0.65864270000E+03 0. -1.
    8880022    1    1    2    0    0  0.21356101053E+02  0.31615886093E+03 -0.25523327637E+03  0.43468170743E+03  0.15294330000E+03 0.  0.
<mgrwt>
<rscale>  0 0.60881842E+03</rscale>
<asrwt>0</asrwt>
<pdfrwt beam="1">  1        2 0.26883568E+00 0.73090541E+03</pdfrwt>
<pdfrwt beam="2">  1       -2 0.65465229E-01 0.73090541E+03</pdfrwt>
<totfact> 0.20460437E+01</totfact>
</mgrwt>
</event>
<event>
 4    2  0.2930016E-007  0.9015495E+03  0.7818608E-02  0.9523549E-01
         -2   -1    0    0    0  501 -0.00000000000E+00  0.00000000000E+00  0.26485042867E+04  0.26485042867E+04  0.25500000000E-02 0.  1.
          2   -1    0    0  501    0  0.00000000000E+00 -0.00000000000E+00 -0.94131085226E+03  0.94131085226E+03  0.25500000000E-02 0. -1.
    8880023    1    1    2    0    0 -0.13561144789E+03 -0.60049221284E+03 -0.67396100234E+03  0.11256176089E+04  0.65864270000E+03 0. -1.
    8880022    1    1    2    0    0  0.13561144789E+03  0.60049221284E+03  0.23811544368E+04  0.24641975301E+04  0.15294330000E+03 0.  0.
<mgrwt>
<rscale>  0 0.82569718E+03</rscale>
<asrwt>0</asrwt>
<pdfrwt beam="1">  1        2 0.14481705E+00 0.90154954E+03</pdfrwt>
<pdfrwt beam="2">  1       -2 0.40746220E+00 0.90154954E+03</pdfrwt>
<totfact> 0.18895158E-01</totfact>
</mgrwt>
</event>
<event>
 4    2  0.2930016E-007  0.7858711E+03  0.7818608E-02  0.9742222E-01
         -2   -1    0    0    0  501 -0.00000000000E+00  0.00000000000E+00  0.49329891231E+03  0.49329891232E+03  0.25500000000E-02 0.  1.
          2   -1    0    0  501    0  0.00000000000E+00 -0.00000000000E+00 -0.16164030027E+04  0.16164030027E+04  0.25500000000E-02 0. -1.
    8880023    1    1    2    0    0 -0.18455633192E+03  0.38693954124E+03 -0.13792398659E+04  0.15874180490E+04  0.65864270000E+03 0.  0.
    8880022    1    1    2    0    0  0.18455633192E+03 -0.38693954124E+03  0.25613577552E+03  0.52228386605E+03  0.15294330000E+03 0.  0.
<mgrwt>
<rscale>  0 0.68557607E+03</rscale>
<asrwt>0</asrwt>
<pdfrwt beam="1">  1        2 0.24867738E+00 0.78587114E+03</pdfrwt>
<pdfrwt beam="2">  1       -2 0.75892141E-01 0.78587114E+03</pdfrwt>
<totfact> 0.17351596E+01</totfact>
</mgrwt>
</event>
<event>
 4    2  0.2930016E-007  0.8234914E+03  0.7818608E-02  0.9662131E-01
          2   -1    0    0  501    0  0.00000000000E+00  0.00000000000E+00  0.24527917435E+04  0.24527917435E+04  0.25500000000E-02 0. -1.
         -2   -1    0    0    0  501 -0.00000000000E+00 -0.00000000000E+00 -0.18442269114E+03  0.18442269116E+03  0.25500000000E-02 0.  1.
    8880023    1    1    2    0    0  0.91906787307E+02  0.48567588606E+03  0.14932244732E+04  0.17052441049E+04  0.65864270000E+03 0. -1.
    8880022    1    1    2    0    0 -0.91906787307E+02 -0.48567588606E+03  0.77514457922E+03  0.93197032976E+03  0.15294330000E+03 0.  1.
<mgrwt>
<rscale>  0 0.73316940E+03</rscale>
<asrwt>0</asrwt>
<pdfrwt beam="1">  1        2 0.37735258E+00 0.82349143E+03</pdfrwt>
<pdfrwt beam="2">  1       -2 0.28372722E-01 0.82349143E+03</pdfrwt>
<totfact> 0.43435720E+01</totfact>
</mgrwt>
</event>
<event>
 4    2  0.2930016E-007  0.6757473E+03  0.7818608E-02  0.1011839E+00
         -2   -1    0    0    0  501 -0.00000000000E+00  0.00000000000E+00  0.11491121091E+03  0.11491121094E+03  0.25500000000E-02 0.  1.
          2   -1    0    0  501    0  0.00000000000E+00 -0.00000000000E+00 -0.24816019450E+04  0.24816019450E+04  0.25500000000E-02 0. -1.
    8880023    1    1    2    0    0 -0.69634306329E+02  0.13407201657E+03 -0.22553588954E+04  0.23544167421E+04  0.65864270000E+03 0. -1.
    8880022    1    1    2    0    0  0.69634306329E+02 -0.13407201657E+03 -0.11133183862E+03  0.24209641375E+03  0.15294330000E+03 0.  0.
<mgrwt>
<rscale>  0 0.50750132E+03</rscale>
<asrwt>0</asrwt>
<pdfrwt beam="1">  1        2 0.38178488E+00 0.67574733E+03</pdfrwt>
<pdfrwt beam="2">  1       -2 0.17678650E-01 0.67574733E+03</pdfrwt>
<totfact> 0.98854840E+01</totfact>
</mgrwt>
</event>
<event>
 4    2  0.2930016E-007  0.8194884E+03  0.7818608E-02  0.9670142E-01
          2   -1    0    0  501    0  0.00000000000E+00  0.00000000000E+00  0.85982601714E+03  0.85982601715E+03  0.25500000000E-02 0. -1.
         -2   -1    0    0    0  501 -0.00000000000E+00 -0.00000000000E+00 -0.13948153955E+04  0.13948153955E+04  0.25500000000E-02 0.  1.
    8880023    1    1    2    0    0  0.16507335679E+03 -0.45880470400E+03  0.59617422645E+03  0.10134026268E+04  0.65864270000E+03 0. -1.
    8880022    1    1    2    0    0 -0.16507335679E+03  0.45880470400E+03 -0.11311636048E+04  0.12412387858E+04  0.15294330000E+03 0.  0.
<mgrwt>
<rscale>  0 0.72822706E+03</rscale>
<asrwt>0</asrwt>
<pdfrwt beam="1">  1        2 0.13228093E+00 0.81948836E+03</pdfrwt>
<pdfrwt beam="2">  1       -2 0.21458698E+00 0.81948836E+03</pdfrwt>
<totfact> 0.33937117E+00</totfact>
</mgrwt>
</event>
<event>
 4    2  0.2930016E-007  0.9599395E+03  0.7818608E-02  0.9435955E-01
          2   -1    0    0  501    0  0.00000000000E+00  0.00000000000E+00  0.96951858717E+03  0.96951858717E+03  0.25500000000E-02 0. -1.
         -2   -1    0    0    0  501 -0.00000000000E+00 -0.00000000000E+00 -0.10061710615E+04  0.10061710615E+04  0.25500000000E-02 0.  1.
    8880023    1    1    2    0    0 -0.69271383701E+03 -0.88437957755E+02  0.49946913749E+03  0.10821059828E+04  0.65864270000E+03 0. -1.
    8880022    1    1    2    0    0  0.69271383701E+03  0.88437957755E+02 -0.53612161186E+03  0.89358366596E+03  0.15294330000E+03 0.  0.
<mgrwt>
<rscale>  0 0.89174867E+03</rscale>
<asrwt>0</asrwt>
<pdfrwt beam="1">  1        2 0.14915671E+00 0.95993955E+03</pdfrwt>
<pdfrwt beam="2">  1       -2 0.15479555E+00 0.95993955E+03</pdfrwt>
<totfact> 0.72265338E+00</totfact>
</mgrwt>
</event>
<event>
 4    2  0.2930016E-007  0.1161917E+04  0.7818608E-02  0.9195061E-01
          2   -1    0    0  501    0  0.00000000000E+00  0.00000000000E+00  0.10531880110E+04  0.10531880110E+04  0.25500000000E-02 0. -1.
         -2   -1    0    0    0  501 -0.00000000000E+00 -0.00000000000E+00 -0.16176793679E+04  0.16176793680E+04  0.25500000000E-02 0.  1.
    8880023    1    1    2    0    0 -0.71687404562E+03  0.63429754464E+03 -0.10683196867E+04  0.15784039190E+04  0.65864270000E+03 0.  0.
    8880022    1    1    2    0    0  0.71687404562E+03 -0.63429754464E+03  0.50382832970E+03  0.10924634599E+04  0.15294330000E+03 0.  0.
<mgrwt>
<rscale>  0 0.11104557E+04</rscale>
<asrwt>0</asrwt>
<pdfrwt beam="1">  1        2 0.16202892E+00 0.11619174E+04</pdfrwt>
<pdfrwt beam="2">  1       -2 0.24887375E+00 0.11619174E+04</pdfrwt>
<totfact> 0.14874982E+00</totfact>
</mgrwt>
</event>
<event>
 4    2  0.2930016E-007  0.1206190E+04  0.7818608E-02  0.9151128E-01
          2   -1    0    0  501    0  0.00000000000E+00  0.00000000000E+00  0.17791825033E+04  0.17791825033E+04  0.25500000000E-02 0. -1.
         -2   -1    0    0    0  501 -0.00000000000E+00 -0.00000000000E+00 -0.12881956307E+04  0.12881956307E+04  0.25500000000E-02 0.  1.
    8880023    1    1    2    0    0  0.96201716393E+03  0.30920455628E+03 -0.78003464768E+03  0.14364361243E+04  0.65864270000E+03 0.  0.
    8880022    1    1    2    0    0 -0.96201716393E+03 -0.30920455628E+03  0.12710215202E+04  0.16309420098E+04  0.15294330000E+03 0.  0.
<mgrwt>
<rscale>  0 0.11572419E+04</rscale>
<asrwt>0</asrwt>
<pdfrwt beam="1">  1        2 0.27372038E+00 0.12061902E+04</pdfrwt>
<pdfrwt beam="2">  1       -2 0.19818394E+00 0.12061902E+04</pdfrwt>
<totfact> 0.11747793E+00</totfact>
</mgrwt>
</event>
<event>
 4    2  0.2930016E-007  0.7236692E+03  0.7818608E-02  0.9910361E-01
         -2   -1    0    0    0  501 -0.00000000000E+00  0.00000000000E+00  0.95237863343E+03  0.95237863343E+03  0.25500000000E-02 0.  1.
          2   -1    0    0  501    0  0.00000000000E+00 -0.00000000000E+00 -0.11325520204E+04  0.11325520204E+04  0.25500000000E-02 0. -1.
    8880023    1    1    2    0    0  0.19742440562E+02  0.29916084637E+03 -0.97938525528E+03  0.12177408018E+04  0.65864270000E+03 0. -1.
    8880022    1    1    2    0    0 -0.19742440562E+02 -0.29916084637E+03  0.79921186830E+03  0.86718985200E+03  0.15294330000E+03 0.  0.
<mgrwt>
<rscale>  0 0.59761789E+03</rscale>
<asrwt>0</asrwt>
<pdfrwt beam="1">  1        2 0.17423877E+00 0.72366925E+03</pdfrwt>
<pdfrwt beam="2">  1       -2 0.14651979E+00 0.72366925E+03</pdfrwt>
<totfact> 0.67899122E+00</totfact>
</mgrwt>
</event>
<event>
 4    2  0.2930016E-007  0.7373906E+03  0.7818608E-02  0.9867614E-01
         -2   -1    0    0    0  501 -0.00000000000E+00  0.00000000000E+00  0.31915034954E+03  0.31915034955E+03  0.25500000000E-02 0.  1.
          2   -1    0    0  501    0  0.00000000000E+00 -0.00000000000E+00 -0.19898581634E+04  0.19898581634E+04  0.25500000000E-02 0. -1.
    8880023    1    1    2    0    0 -0.15206818846E+03 -0.29463533045E+03 -0.17809665293E+04  0.19275857171E+04  0.65864270000E+03 0.  0.
    8880022    1    1    2    0    0  0.15206818846E+03  0.29463533045E+03  0.11025871542E+03  0.38142279590E+03  0.15294330000E+03 0.  1.
<mgrwt>
<rscale>  0 0.61856837E+03</rscale>
<asrwt>0</asrwt>
<pdfrwt beam="1">  1        2 0.30613202E+00 0.73739061E+03</pdfrwt>
<pdfrwt beam="2">  1       -2 0.49100055E-01 0.73739061E+03</pdfrwt>
<totfact> 0.27495828E+01</totfact>
</mgrwt>
</event>
<event>
 4    2  0.2930016E-007  0.7758876E+03  0.7818608E-02  0.9765587E-01
          2   -1    0    0  501    0  0.00000000000E+00  0.00000000000E+00  0.11185824867E+04  0.11185824867E+04  0.25500000000E-02 0. -1.
         -2   -1    0    0    0  501 -0.00000000000E+00 -0.00000000000E+00 -0.60540864802E+03  0.60540864802E+03  0.25500000000E-02 0.  1.
    8880023    1    1    2    0    0 -0.14057102075E+03 -0.38526759518E+03  0.86531017569E+03  0.11622234029E+04  0.65864270000E+03 0.  0.
    8880022    1    1    2    0    0  0.14057102075E+03  0.38526759518E+03 -0.35213633697E+03  0.56176773189E+03  0.15294330000E+03 0.  0.
<mgrwt>
<rscale>  0 0.67242479E+03</rscale>
<asrwt>0</asrwt>
<pdfrwt beam="1">  1        2 0.17208961E+00 0.77588758E+03</pdfrwt>
<pdfrwt beam="2">  1       -2 0.93139792E-01 0.77588758E+03</pdfrwt>
<totfact> 0.21024614E+01</totfact>
</mgrwt>
</event>
<event>
 4    2  0.2930016E-007  0.6871909E+03  0.7818608E-02  0.1005517E+00
         -2   -1    0    0    0  501 -0.00000000000E+00  0.00000000000E+00  0.21634183815E+03  0.21634183817E+03  0.25500000000E-02 0.  1.
          2   -1    0    0  501    0  0.00000000000E+00 -0.00000000000E+00 -0.10728861567E+04  0.10728861567E+04  0.25500000000E-02 0. -1.
    8880023    1    1    2    0    0  0.11898302645E+03  0.15576956768E+03 -0.75433173500E+03  0.10204154504E+04  0.65864270000E+03 0. -1.
    8880022    1    1    2    0    0 -0.11898302645E+03 -0.15576956768E+03 -0.10221258357E+03  0.26881254445E+03  0.15294330000E+03 0.  1.
<mgrwt>
<rscale>  0 0.53295780E+03</rscale>
<asrwt>0</asrwt>
<pdfrwt beam="1">  1        2 0.16505941E+00 0.68719089E+03</pdfrwt>
<pdfrwt beam="2">  1       -2 0.33283360E-01 0.68719089E+03</pdfrwt>
<totfact> 0.19377503E+02</totfact>
</mgrwt>
</event>
<event>
 4    2  0.2930016E-007  0.6645465E+03  0.7818608E-02  0.1019917E+00
          2   -1    0    0  501    0  0.00000000000E+00  0.00000000000E+00  0.10971034938E+04  0.10971034938E+04  0.25500000000E-02 0. -1.
         -2   -1    0    0    0  501 -0.00000000000E+00 -0.00000000000E+00 -0.16389296731E+03  0.16389296733E+03  0.25500000000E-02 0.  1.
    8880023    1    1    2    0    0  0.74587812915E+02 -0.47419003643E+02  0.79843547427E+03  0.10388076418E+04  0.65864270000E+03 0. -1.
    8880022    1    1    2    0    0 -0.74587812915E+02  0.47419003643E+02  0.13477505226E+03  0.22218881941E+03  0.15294330000E+03 0.  1.
<mgrwt>
<rscale>  0 0.47716608E+03</rscale>
<asrwt>0</asrwt>
<pdfrwt beam="1">  1        2 0.16878516E+00 0.66454654E+03</pdfrwt>
<pdfrwt beam="2">  1       -2 0.25214302E-01 0.66454654E+03</pdfrwt>
<totfact> 0.31283712E+02</totfact>
</mgrwt>
</event>
<event>
 4    2  0.2930016E-007  0.1004477E+04  0.7818608E-02  0.9375724E-01
         -2   -1    0    0    0  501 -0.00000000000E+00  0.00000000000E+00  0.88405023383E+03  0.88405023383E+03  0.25500000000E-02 0.  1.
          2   -1    0    0  501    0  0.00000000000E+00 -0.00000000000E+00 -0.15499983838E+04  0.15499983838E+04  0.25500000000E-02 0. -1.
    8880023    1    1    2    0    0 -0.62237129901E+03 -0.43337970411E+03 -0.11457224854E+04  0.15236975493E+04  0.65864270000E+03 0.  0.
    8880022    1    1    2    0    0  0.62237129901E+03  0.43337970411E+03  0.47977433543E+03  0.91035106839E+03  0.15294330000E+03 0.  0.
<mgrwt>
<rscale>  0 0.94100751E+03</rscale>
<asrwt>0</asrwt>
<pdfrwt beam="1">  1        2 0.23846129E+00 0.10044771E+04</pdfrwt>
<pdfrwt beam="2">  1       -2 0.13600773E+00 0.10044771E+04</pdfrwt>
<totfact> 0.45724608E+00</totfact>
</mgrwt>
</event>
<event>
 4    2  0.2930016E-007  0.8554631E+03  0.7818608E-02  0.9601685E-01
          2   -1    0    0  501    0  0.00000000000E+00  0.00000000000E+00  0.12330039052E+04  0.12330039052E+04  0.25500000000E-02 0. -1.
         -2   -1    0    0    0  501 -0.00000000000E+00 -0.00000000000E+00 -0.92618927962E+03  0.92618927962E+03  0.25500000000E-02 0.  1.
    8880023    1    1    2    0    0 -0.52196037025E+03 -0.15988853044E+03  0.96561231953E+03  0.12900481883E+04  0.65864270000E+03 0.  0.
    8880022    1    1    2    0    0  0.52196037025E+03  0.15988853044E+03 -0.65879769399E+03  0.86914499647E+03  0.15294330000E+03 0.  0.
<mgrwt>
<rscale>  0 0.77184745E+03</rscale>
<asrwt>0</asrwt>
<pdfrwt beam="1">  1        2 0.18969291E+00 0.85546314E+03</pdfrwt>
<pdfrwt beam="2">  1       -2 0.14249066E+00 0.85546314E+03</pdfrwt>
<totfact> 0.62565948E+00</totfact>
</mgrwt>
</event>
<event>
 4    2  0.2930016E-007  0.1557276E+04  0.7818608E-02  0.8870216E-01
         -2   -1    0    0    0  501 -0.00000000000E+00  0.00000000000E+00  0.12496495264E+04  0.12496495264E+04  0.25500000000E-02 0.  1.
          2   -1    0    0  501    0  0.00000000000E+00 -0.00000000000E+00 -0.18600938261E+04  0.18600938261E+04  0.25500000000E-02 0. -1.
    8880023    1    1    2    0    0 -0.42025148621E+03 -0.13471029233E+04  0.18155556873E+02  0.15573815936E+04  0.65864270000E+03 0.  0.
    8880022    1    1    2    0    0  0.42025148621E+03  0.13471029233E+04 -0.62859985661E+03  0.15523617589E+04  0.15294330000E+03 0.  0.
<mgrwt>
<rscale>  0 0.15215988E+04</rscale>
<asrwt>0</asrwt>
<pdfrwt beam="1">  1        2 0.28616828E+00 0.15572758E+04</pdfrwt>
<pdfrwt beam="2">  1       -2 0.19225377E+00 0.15572758E+04</pdfrwt>
<totfact> 0.11190863E+00</totfact>
</mgrwt>
</event>
<event>
 4    2  0.2930016E-007  0.9666223E+03  0.7818608E-02  0.9426591E-01
          2   -1    0    0  501    0  0.00000000000E+00  0.00000000000E+00  0.42760660114E+04  0.42760660114E+04  0.25500000000E-02 0. -1.
         -2   -1    0    0    0  501 -0.00000000000E+00 -0.00000000000E+00 -0.16750996344E+03  0.16750996346E+03  0.25500000000E-02 0.  1.
    8880023    1    1    2    0    0  0.70335026898E+03 -0.76464245019E+02  0.22361808065E+04  0.24361574635E+04  0.65864270000E+03 0.  1.
    8880022    1    1    2    0    0 -0.70335026898E+03  0.76464245019E+02  0.18723752415E+04  0.20074185113E+04  0.15294330000E+03 0. -1.
<mgrwt>
<rscale>  0 0.89919274E+03</rscale>
<asrwt>0</asrwt>
<pdfrwt beam="1">  1        2 0.65785635E+00 0.96662226E+03</pdfrwt>
<pdfrwt beam="2">  1       -2 0.25770762E-01 0.96662226E+03</pdfrwt>
<totfact> 0.28974087E+00</totfact>
</mgrwt>
</event>
<event>
 4    2  0.2930016E-007  0.7265192E+03  0.7818608E-02  0.9901114E-01
         -2   -1    0    0    0  501 -0.00000000000E+00  0.00000000000E+00  0.10458794511E+04  0.10458794511E+04  0.25500000000E-02 0.  1.
          2   -1    0    0  501    0  0.00000000000E+00 -0.00000000000E+00 -0.38333729659E+03  0.38333729659E+03  0.25500000000E-02 0. -1.
    8880023    1    1    2    0    0 -0.37799724977E+02 -0.30428791296E+03  0.51107591143E+02  0.72831459227E+03  0.65864270000E+03 0. -1.
    8880022    1    1    2    0    0  0.37799724977E+02  0.30428791296E+03  0.61143456336E+03  0.70090215542E+03  0.15294330000E+03 0.  0.
<mgrwt>
<rscale>  0 0.60207307E+03</rscale>
<asrwt>0</asrwt>
<pdfrwt beam="1">  1        2 0.58974969E-01 0.72651921E+03</pdfrwt>
<pdfrwt beam="2">  1       -2 0.16090453E+00 0.72651921E+03</pdfrwt>
<totfact> 0.21016671E+01</totfact>
</mgrwt>
</event>
<event>
 4    2  0.2930016E-007  0.1116236E+04  0.7818608E-02  0.9243192E-01
         -2   -1    0    0    0  501 -0.00000000000E+00  0.00000000000E+00  0.25332410657E+04  0.25332410657E+04  0.25500000000E-02 0.  1.
          2   -1    0    0  501    0  0.00000000000E+00 -0.00000000000E+00 -0.80229996217E+03  0.80229996217E+03  0.25500000000E-02 0. -1.
    8880023    1    1    2    0    0  0.24272543433E+03 -0.86790335494E+03 -0.25882775319E+03  0.11458507242E+04  0.65864270000E+03 0. -1.
    8880022    1    1    2    0    0 -0.24272543433E+03  0.86790335494E+03  0.19897688567E+04  0.21896903037E+04  0.15294330000E+03 0.  0.
<mgrwt>
<rscale>  0 0.10618529E+04</rscale>
<asrwt>0</asrwt>
<pdfrwt beam="1">  1        2 0.12343076E+00 0.11162357E+04</pdfrwt>
<pdfrwt beam="2">  1       -2 0.38972939E+00 0.11162357E+04</pdfrwt>
<totfact> 0.29693781E-01</totfact>
</mgrwt>
</event>
<event>
 4    2  0.2930016E-007  0.7147086E+03  0.7818608E-02  0.9940915E-01
          2   -1    0    0  501    0  0.00000000000E+00  0.00000000000E+00  0.44848892197E+03  0.44848892198E+03  0.25500000000E-02 0. -1.
         -2   -1    0    0    0  501 -0.00000000000E+00 -0.00000000000E+00 -0.70079155465E+03  0.70079155466E+03  0.25500000000E-02 0.  1.
    8880023    1    1    2    0    0  0.22652042574E+03  0.16027047011E+03  0.43214217957E+02  0.71601382791E+03  0.65864270000E+03 0.  0.
    8880022    1    1    2    0    0 -0.22652042574E+03 -0.16027047011E+03 -0.29551685064E+03  0.43326664872E+03  0.15294330000E+03 0. -1.
<mgrwt>
<rscale>  0 0.58318713E+03</rscale>
<asrwt>0</asrwt>
<pdfrwt beam="1">  1        2 0.68998296E-01 0.71470857E+03</pdfrwt>
<pdfrwt beam="2">  1       -2 0.10781409E+00 0.71470857E+03</pdfrwt>
<totfact> 0.48821662E+01</totfact>
</mgrwt>
</event>
<event>
 4    2  0.2930016E-007  0.7660006E+03  0.7818608E-02  0.9789813E-01
         -2   -1    0    0    0  501 -0.00000000000E+00  0.00000000000E+00  0.21680175445E+03  0.21680175447E+03  0.25500000000E-02 0.  1.
          2   -1    0    0  501    0  0.00000000000E+00 -0.00000000000E+00 -0.21620905008E+04  0.21620905008E+04  0.25500000000E-02 0. -1.
    8880023    1    1    2    0    0  0.37701554135E+03  0.10395219648E+03 -0.17608481157E+04  0.19202455755E+04  0.65864270000E+03 0.  0.
    8880022    1    1    2    0    0 -0.37701554135E+03 -0.10395219648E+03 -0.18444063064E+03  0.45864667972E+03  0.15294330000E+03 0.  0.
<mgrwt>
<rscale>  0 0.65912111E+03</rscale>
<asrwt>0</asrwt>
<pdfrwt beam="1">  1        2 0.33262929E+00 0.76600064E+03</pdfrwt>
<pdfrwt beam="2">  1       -2 0.33354117E-01 0.76600064E+03</pdfrwt>
<totfact> 0.46971229E+01</totfact>
</mgrwt>
</event>
<event>
 4    2  0.2930016E-007  0.7722615E+03  0.7818608E-02  0.9774339E-01
         -2   -1    0    0    0  501 -0.00000000000E+00  0.00000000000E+00  0.13172493503E+04  0.13172493503E+04  0.25500000000E-02 0.  1.
          2   -1    0    0  501    0  0.00000000000E+00 -0.00000000000E+00 -0.63881537169E+03  0.63881537169E+03  0.25500000000E-02 0. -1.
    8880023    1    1    2    0    0  0.26583066148E+03  0.30316927086E+03 -0.34474775579E+03  0.84571790140E+03  0.65864270000E+03 0. -1.
    8880022    1    1    2    0    0 -0.26583066148E+03 -0.30316927086E+03  0.10231817344E+04  0.11103468206E+04  0.15294330000E+03 0.  0.
<mgrwt>
<rscale>  0 0.66758012E+03</rscale>
<asrwt>0</asrwt>
<pdfrwt beam="1">  1        2 0.98279289E-01 0.77226145E+03</pdfrwt>
<pdfrwt beam="2">  1       -2 0.20265374E+00 0.77226145E+03</pdfrwt>
<totfact> 0.59763469E+00</totfact>
</mgrwt>
</event>
<event>
 4    2  0.2930016E-007  0.8152498E+03  0.7818608E-02  0.9678744E-01
          2   -1    0    0  501    0  0.00000000000E+00  0.00000000000E+00  0.25755578530E+04  0.25755578530E+04  0.25500000000E-02 0. -1.
         -2   -1    0    0    0  501 -0.00000000000E+00 -0.00000000000E+00 -0.49508966758E+03  0.49508966759E+03  0.25500000000E-02 0.  1.
    8880023    1    1    2    0    0 -0.46973714922E+03 -0.10084141354E+03  0.23581127765E+04  0.24950607313E+04  0.65864270000E+03 0.  0.
    8880022    1    1    2    0    0  0.46973714922E+03  0.10084141354E+03 -0.27764459106E+03  0.57558678929E+03  0.15294330000E+03 0.  0.
<mgrwt>
<rscale>  0 0.72296599E+03</rscale>
<asrwt>0</asrwt>
<pdfrwt beam="1">  1        2 0.39623967E+00 0.81524977E+03</pdfrwt>
<pdfrwt beam="2">  1       -2 0.76167642E-01 0.81524977E+03</pdfrwt>
<totfact> 0.50486003E+00</totfact>
</mgrwt>
</event>
<event>
 4    2  0.2930016E-007  0.7226949E+03  0.7818608E-02  0.9913571E-01
         -2   -1    0    0    0  501 -0.00000000000E+00  0.00000000000E+00  0.70757469157E+03  0.70757469157E+03  0.25500000000E-02 0.  1.
          2   -1    0    0  501    0  0.00000000000E+00 -0.00000000000E+00 -0.44529644987E+03  0.44529644988E+03  0.25500000000E-02 0. -1.
    8880023    1    1    2    0    0  0.17557738104E+02  0.29693328406E+03 -0.81706432188E+01  0.72274104285E+03  0.65864270000E+03 0. -1.
    8880022    1    1    2    0    0 -0.17557738104E+02 -0.29693328406E+03  0.27044888491E+03  0.43013009860E+03  0.15294330000E+03 0. -1.
<mgrwt>
<rscale>  0 0.59608074E+03</rscale>
<asrwt>0</asrwt>
<pdfrwt beam="1">  1        2 0.68507148E-01 0.72269486E+03</pdfrwt>
<pdfrwt beam="2">  1       -2 0.10885764E+00 0.72269486E+03</pdfrwt>
<totfact> 0.48063813E+01</totfact>
</mgrwt>
</event>
<event>
 4    2  0.2930016E-007  0.1247121E+04  0.7818608E-02  0.9112625E-01
          2   -1    0    0  501    0  0.00000000000E+00  0.00000000000E+00  0.31928968712E+04  0.31928968712E+04  0.25500000000E-02 0. -1.
         -2   -1    0    0    0  501 -0.00000000000E+00 -0.00000000000E+00 -0.45808434017E+03  0.45808434017E+03  0.25500000000E-02 0.  1.
    8880023    1    1    2    0    0 -0.20542856229E+03  0.10388932426E+04  0.94107396947E+03  0.15623477481E+04  0.65864270000E+03 0.  0.
    8880022    1    1    2    0    0  0.20542856229E+03 -0.10388932426E+04  0.17937385615E+04  0.20886334633E+04  0.15294330000E+03 0.  0.
<mgrwt>
<rscale>  0 0.12002644E+04</rscale>
<asrwt>0</asrwt>
<pdfrwt beam="1">  1        2 0.49121491E+00 0.12471208E+04</pdfrwt>
<pdfrwt beam="2">  1       -2 0.70474513E-01 0.12471208E+04</pdfrwt>
<totfact> 0.23827574E+00</totfact>
</mgrwt>
</event>
<event>
 4    2  0.2930016E-007  0.7166778E+03  0.7818608E-02  0.9933992E-01
          2   -1    0    0  501    0  0.00000000000E+00  0.00000000000E+00  0.11923713638E+04  0.11923713638E+04  0.25500000000E-02 0. -1.
         -2   -1    0    0    0  501 -0.00000000000E+00 -0.00000000000E+00 -0.30268881040E+03  0.30268881041E+03  0.25500000000E-02 0.  1.
    8880023    1    1    2    0    0 -0.46012428374E+02 -0.27874667322E+03  0.92689757904E+03  0.11716510486E+04  0.65864270000E+03 0.  0.
    8880022    1    1    2    0    0  0.46012428374E+02  0.27874667322E+03 -0.37215025611E+02  0.32340912563E+03  0.15294330000E+03 0.  0.
<mgrwt>
<rscale>  0 0.58641814E+03</rscale>
<asrwt>0</asrwt>
<pdfrwt beam="1">  1        2 0.18344175E+00 0.71667779E+03</pdfrwt>
<pdfrwt beam="2">  1       -2 0.46567510E-01 0.71667779E+03</pdfrwt>
<totfact> 0.85246272E+01</totfact>
</mgrwt>
</event>
<event>
 4    2  0.2930016E-007  0.7292263E+03  0.7818608E-02  0.9892521E-01
         -2   -1    0    0    0  501 -0.00000000000E+00  0.00000000000E+00  0.17687629991E+03  0.17687629993E+03  0.25500000000E-02 0.  1.
          2   -1    0    0  501    0  0.00000000000E+00 -0.00000000000E+00 -0.18376427267E+04  0.18376427267E+04  0.25500000000E-02 0. -1.
    8880023    1    1    2    0    0  0.30153144680E+03 -0.83901756479E+02 -0.14028941696E+04  0.15811018233E+04  0.65864270000E+03 0.  0.
    8880022    1    1    2    0    0 -0.30153144680E+03  0.83901756479E+02 -0.25787225723E+03  0.43341720342E+03  0.15294330000E+03 0.  0.
<mgrwt>
<rscale>  0 0.60625140E+03</rscale>
<asrwt>0</asrwt>
<pdfrwt beam="1">  1        2 0.28271425E+00 0.72922625E+03</pdfrwt>
<pdfrwt beam="2">  1       -2 0.27211740E-01 0.72922625E+03</pdfrwt>
<totfact> 0.10353416E+02</totfact>
</mgrwt>
</event>
<event>
 4    2  0.2930016E-007  0.1544513E+04  0.7818608E-02  0.8878827E-01
         -2   -1    0    0    0  501 -0.00000000000E+00  0.00000000000E+00  0.64913479816E+03  0.64913479817E+03  0.25500000000E-02 0.  1.
          2   -1    0    0  501    0  0.00000000000E+00 -0.00000000000E+00 -0.35242503520E+04  0.35242503520E+04  0.25500000000E-02 0. -1.
    8880023    1    1    2    0    0 -0.72695620278E+03 -0.11929980267E+04 -0.19637498807E+04  0.24983661486E+04  0.65864270000E+03 0.  0.
    8880022    1    1    2    0    0  0.72695620278E+03  0.11929980267E+04 -0.91136567314E+03  0.16750190016E+04  0.15294330000E+03 0.  0.
<mgrwt>
<rscale>  0 0.15084896E+04</rscale>
<asrwt>0</asrwt>
<pdfrwt beam="1">  1        2 0.54219235E+00 0.15445128E+04</pdfrwt>
<pdfrwt beam="2">  1       -2 0.99866894E-01 0.15445128E+04</pdfrwt>
<totfact> 0.62013177E-01</totfact>
</mgrwt>
</event>
<event>
 4    2  0.2930016E-007  0.1102750E+04  0.7818608E-02  0.9258001E-01
         -2   -1    0    0    0  501 -0.00000000000E+00  0.00000000000E+00  0.95839592261E+03  0.95839592262E+03  0.25500000000E-02 0.  1.
          2   -1    0    0  501    0  0.00000000000E+00 -0.00000000000E+00 -0.10537657780E+04  0.10537657780E+04  0.25500000000E-02 0. -1.
    8880023    1    1    2    0    0  0.60455138235E+03  0.64557312632E+03 -0.15011286284E+03  0.11129200839E+04  0.65864270000E+03 0.  0.
    8880022    1    1    2    0    0 -0.60455138235E+03 -0.64557312632E+03  0.54743007461E+02  0.89924161670E+03  0.15294330000E+03 0.  0.
<mgrwt>
<rscale>  0 0.10474307E+04</rscale>
<asrwt>0</asrwt>
<pdfrwt beam="1">  1        2 0.16211781E+00 0.11027499E+04</pdfrwt>
<pdfrwt beam="2">  1       -2 0.14744553E+00 0.11027499E+04</pdfrwt>
<totfact> 0.71694707E+00</totfact>
</mgrwt>
</event>
<event>
 4    2  0.2930016E-007  0.7579285E+03  0.7818608E-02  0.9810500E-01
         -2   -1    0    0    0  501 -0.00000000000E+00  0.00000000000E+00  0.52538077635E+03  0.52538077636E+03  0.25500000000E-02 0.  1.
          2   -1    0    0  501    0  0.00000000000E+00 -0.00000000000E+00 -0.65951703836E+03  0.65951703837E+03  0.25500000000E-02 0. -1.
    8880023    1    1    2    0    0  0.20110901695E+03  0.31654474577E+03  0.10123529522E+01  0.75792918132E+03  0.65864270000E+03 0.  0.
    8880022    1    1    2    0    0 -0.20110901695E+03 -0.31654474577E+03 -0.13514861496E+03  0.42696863341E+03  0.15294330000E+03 0.  0.
<mgrwt>
<rscale>  0 0.64802078E+03</rscale>
<asrwt>0</asrwt>
<pdfrwt beam="1">  1        2 0.10146416E+00 0.75792851E+03</pdfrwt>
<pdfrwt beam="2">  1       -2 0.80827812E-01 0.75792851E+03</pdfrwt>
<totfact> 0.60349233E+01</totfact>
</mgrwt>
</event>
<event>
 4    2  0.2930016E-007  0.6829425E+03  0.7818608E-02  0.1007706E+00
          2   -1    0    0  501    0  0.00000000000E+00  0.00000000000E+00  0.10908314254E+04  0.10908314254E+04  0.25500000000E-02 0. -1.
         -2   -1    0    0    0  501 -0.00000000000E+00 -0.00000000000E+00 -0.30191188932E+03  0.30191188933E+03  0.25500000000E-02 0.  1.
    8880023    1    1    2    0    0 -0.16212268570E+03 -0.79476178743E+02  0.90127349695E+03  0.11307981034E+04  0.65864270000E+03 0.  0.
    8880022    1    1    2    0    0  0.16212268570E+03  0.79476178743E+02 -0.11235396082E+03  0.26194521132E+03  0.15294330000E+03 0.  0.
<mgrwt>
<rscale>  0 0.52396675E+03</rscale>
<asrwt>0</asrwt>
<pdfrwt beam="1">  1        2 0.16782022E+00 0.68294248E+03</pdfrwt>
<pdfrwt beam="2">  1       -2 0.46447983E-01 0.68294248E+03</pdfrwt>
<totfact> 0.98917312E+01</totfact>
</mgrwt>
</event>
<event>
 4    2  0.2930016E-007  0.7524813E+03  0.7818608E-02  0.9824976E-01
          2   -1    0    0  501    0  0.00000000000E+00  0.00000000000E+00  0.90573608121E+03  0.90573608122E+03  0.25500000000E-02 0. -1.
         -2   -1    0    0    0  501 -0.00000000000E+00 -0.00000000000E+00 -0.71982121564E+03  0.71982121565E+03  0.25500000000E-02 0.  1.
    8880023    1    1    2    0    0  0.31617771403E+03  0.18013756033E+03  0.66541025309E+03  0.10044893721E+04  0.65864270000E+03 0. -1.
    8880022    1    1    2    0    0 -0.31617771403E+03 -0.18013756033E+03 -0.47949538752E+03  0.62106792476E+03  0.15294330000E+03 0.  0.
<mgrwt>
<rscale>  0 0.64039220E+03</rscale>
<asrwt>0</asrwt>
<pdfrwt beam="1">  1        2 0.13934401E+00 0.75248129E+03</pdfrwt>
<pdfrwt beam="2">  1       -2 0.11074173E+00 0.75248129E+03</pdfrwt>
<totfact> 0.19072594E+01</totfact>
</mgrwt>
</event>
<event>
 4    2  0.2930016E-007  0.7335343E+03  0.7818608E-02  0.9879198E-01
         -2   -1    0    0    0  501 -0.00000000000E+00  0.00000000000E+00  0.38601929276E+03  0.38601929277E+03  0.25500000000E-02 0.  1.
          2   -1    0    0  501    0  0.00000000000E+00 -0.00000000000E+00 -0.85502351129E+03  0.85502351130E+03  0.25500000000E-02 0. -1.
    8880023    1    1    2    0    0  0.49899870112E+02  0.31901784385E+03 -0.49161822892E+03  0.88304080936E+03  0.65864270000E+03 0.  0.
    8880022    1    1    2    0    0 -0.49899870112E+02 -0.31901784385E+03  0.22614010391E+02  0.35800199470E+03  0.15294330000E+03 0.  0.
<mgrwt>
<rscale>  0 0.61280125E+03</rscale>
<asrwt>0</asrwt>
<pdfrwt beam="1">  1        2 0.13154208E+00 0.73353431E+03</pdfrwt>
<pdfrwt beam="2">  1       -2 0.59387584E-01 0.73353431E+03</pdfrwt>
<totfact> 0.84522071E+01</totfact>
</mgrwt>
</event>
<event>
 4    2  0.2930016E-007  0.6831544E+03  0.7818608E-02  0.1007593E+00
         -2   -1    0    0    0  501 -0.00000000000E+00  0.00000000000E+00  0.78417712279E+03  0.78417712280E+03  0.25500000000E-02 0.  1.
          2   -1    0    0  501    0  0.00000000000E+00 -0.00000000000E+00 -0.10238321479E+04  0.10238321479E+04  0.25500000000E-02 0. -1.
    8880023    1    1    2    0    0 -0.12651864133E+03 -0.12993348269E+03 -0.88640975316E+03  0.11191166755E+04  0.65864270000E+03 0.  0.
    8880022    1    1    2    0    0  0.12651864133E+03  0.12993348269E+03  0.64675472804E+03  0.68889259525E+03  0.15294330000E+03 0.  0.
<mgrwt>
<rscale>  0 0.52442656E+03</rscale>
<asrwt>0</asrwt>
<pdfrwt beam="1">  1        2 0.15751264E+00 0.68315436E+03</pdfrwt>
<pdfrwt beam="2">  1       -2 0.12064263E+00 0.68315436E+03</pdfrwt>
<totfact> 0.13067378E+01</totfact>
</mgrwt>
</event>
<event>
 4    2  0.2930016E-007  0.6946831E+03  0.7818608E-02  0.1002002E+00
         -2   -1    0    0    0  501 -0.00000000000E+00  0.00000000000E+00  0.96858779212E+03  0.96858779212E+03  0.25500000000E-02 0.  1.
          2   -1    0    0  501    0  0.00000000000E+00 -0.00000000000E+00 -0.46753017769E+03  0.46753017769E+03  0.25500000000E-02 0. -1.
    8880023    1    1    2    0    0  0.19423066404E+03 -0.10511362514E+03 -0.16837369973E+03  0.71479670821E+03  0.65864270000E+03 0. -1.
    8880022    1    1    2    0    0 -0.19423066404E+03  0.10511362514E+03  0.66943131416E+03  0.72132126160E+03  0.15294330000E+03 0.  0.
<mgrwt>
<rscale>  0 0.54781219E+03</rscale>
<asrwt>0</asrwt>
<pdfrwt beam="1">  1        2 0.71927721E-01 0.69468312E+03</pdfrwt>
<pdfrwt beam="2">  1       -2 0.14901350E+00 0.69468312E+03</pdfrwt>
<totfact> 0.20666543E+01</totfact>
</mgrwt>
</event>
<event>
 4    2  0.2930016E-007  0.7315218E+03  0.7818608E-02  0.9885369E-01
          2   -1    0    0  501    0  0.00000000000E+00  0.00000000000E+00  0.11878717982E+04  0.11878717982E+04  0.25500000000E-02 0. -1.
         -2   -1    0    0    0  501 -0.00000000000E+00 -0.00000000000E+00 -0.10470365628E+04  0.10470365628E+04  0.25500000000E-02 0.  1.
    8880023    1    1    2    0    0  0.20949730057E+03  0.23963471440E+03  0.10385011870E+04  0.12702790390E+04  0.65864270000E+03 0. -1.
    8880022    1    1    2    0    0 -0.20949730057E+03 -0.23963471440E+03 -0.89766595155E+03  0.96462932201E+03  0.15294330000E+03 0.  0.
<mgrwt>
<rscale>  0 0.60975614E+03</rscale>
<asrwt>0</asrwt>
<pdfrwt beam="1">  1        2 0.18274951E+00 0.73152178E+03</pdfrwt>
<pdfrwt beam="2">  1       -2 0.16108255E+00 0.73152178E+03</pdfrwt>
<totfact> 0.48809707E+00</totfact>
</mgrwt>
</event>
<event>
 4    2  0.2930016E-007  0.7631806E+03  0.7818608E-02  0.9796942E-01
         -2   -1    0    0    0  501 -0.00000000000E+00  0.00000000000E+00  0.53864592187E+03  0.53864592187E+03  0.25500000000E-02 0.  1.
          2   -1    0    0  501    0  0.00000000000E+00 -0.00000000000E+00 -0.37642535920E+04  0.37642535920E+04  0.25500000000E-02 0. -1.
    8880023    1    1    2    0    0  0.29232915388E+03  0.25135245495E+03 -0.36384891196E+04  0.37176669660E+04  0.65864270000E+03 0.  0.
    8880022    1    1    2    0    0 -0.29232915388E+03 -0.25135245495E+03  0.41288144940E+03  0.58523254788E+03  0.15294330000E+03 0.  0.
<mgrwt>
<rscale>  0 0.65526920E+03</rscale>
<asrwt>0</asrwt>
<pdfrwt beam="1">  1        2 0.57911592E+00 0.76318058E+03</pdfrwt>
<pdfrwt beam="2">  1       -2 0.82868606E-01 0.76318058E+03</pdfrwt>
<totfact> 0.73235562E-01</totfact>
</mgrwt>
</event>
<event>
 4    2  0.2930016E-007  0.8056990E+03  0.7818608E-02  0.9698606E-01
         -2   -1    0    0    0  501 -0.00000000000E+00  0.00000000000E+00  0.18016148587E+04  0.18016148587E+04  0.25500000000E-02 0.  1.
          2   -1    0    0  501    0  0.00000000000E+00 -0.00000000000E+00 -0.75168266284E+03  0.75168266284E+03  0.25500000000E-02 0. -1.
    8880023    1    1    2    0    0  0.31909704072E+03 -0.33692406444E+03 -0.48640370697E+03  0.94113735396E+03  0.65864270000E+03 0. -1.
    8880022    1    1    2    0    0 -0.31909704072E+03  0.33692406444E+03  0.15363359028E+04  0.16121601676E+04  0.15294330000E+03 0.  0.
<mgrwt>
<rscale>  0 0.71099829E+03</rscale>
<asrwt>0</asrwt>
<pdfrwt beam="1">  1        2 0.11564349E+00 0.80569905E+03</pdfrwt>
<pdfrwt beam="2">  1       -2 0.27717152E+00 0.80569905E+03</pdfrwt>
<totfact> 0.16852827E+00</totfact>
</mgrwt>
</event>
<event>
 4    2  0.2930016E-007  0.7316055E+03  0.7818608E-02  0.9885111E-01
         -2   -1    0    0    0  501 -0.00000000000E+00  0.00000000000E+00  0.60733648822E+03  0.60733648823E+03  0.25500000000E-02 0.  1.
          2   -1    0    0  501    0  0.00000000000E+00 -0.00000000000E+00 -0.85455795616E+03  0.85455795617E+03  0.25500000000E-02 0. -1.
    8880023    1    1    2    0    0 -0.24337128944E+03 -0.20544286345E+03 -0.61217274882E+03  0.95394026822E+03  0.65864270000E+03 0. -1.
    8880022    1    1    2    0    0  0.24337128944E+03  0.20544286345E+03  0.36495128088E+03  0.50795417618E+03  0.15294330000E+03 0.  0.
<mgrwt>
<rscale>  0 0.60988326E+03</rscale>
<asrwt>0</asrwt>
<pdfrwt beam="1">  1        2 0.13147046E+00 0.73160547E+03</pdfrwt>
<pdfrwt beam="2">  1       -2 0.93436382E-01 0.73160547E+03</pdfrwt>
<totfact> 0.31023240E+01</totfact>
</mgrwt>
</event>
<event>
 4    2  0.3588873E-007  0.6931856E+03  0.7818608E-02  0.1002674E+00
          2   -1    0    0  501    0  0.00000000000E+00  0.00000000000E+00  0.11588519050E+04  0.11588519050E+04  0.25500000000E-02 0. -1.
         -2   -1    0    0    0  501 -0.00000000000E+00 -0.00000000000E+00 -0.12026642705E+04  0.12026642705E+04  0.25500000000E-02 0.  1.
    8880023    1    1    2    0    0 -0.20278501129E+03 -0.74661756829E+02  0.10377794147E+04  0.12479953760E+04  0.65864270000E+03 0. -1.
    8880022    1    1    2    0    0  0.20278501129E+03  0.74661756829E+02 -0.10815917802E+04  0.11135207995E+04  0.15294330000E+03 0.  0.
<mgrwt>
<rscale>  0 0.54493220E+03</rscale>
<asrwt>0</asrwt>
<pdfrwt beam="1">  1        2 0.17828491E+00 0.69318565E+03</pdfrwt>
<pdfrwt beam="2">  1       -2 0.18502527E+00 0.69318565E+03</pdfrwt>
<totfact> 0.34709656E+00</totfact>
</mgrwt>
</event>
<event>
 4    2  0.2930016E-007  0.7103318E+03  0.7818608E-02  0.9956771E-01
         -2   -1    0    0    0  501 -0.00000000000E+00  0.00000000000E+00  0.74373970524E+03  0.74373970524E+03  0.25500000000E-02 0.  1.
          2   -1    0    0  501    0  0.00000000000E+00 -0.00000000000E+00 -0.77791516561E+03  0.77791516561E+03  0.25500000000E-02 0. -1.
    8880023    1    1    2    0    0 -0.67682835393E+02  0.25725505035E+03 -0.56560013800E+03  0.90800597438E+03  0.65864270000E+03 0. -1.
    8880022    1    1    2    0    0  0.67682835393E+02 -0.25725505035E+03  0.53142467763E+03  0.61364889648E+03  0.15294330000E+03 0.  0.
<mgrwt>
<rscale>  0 0.57587087E+03</rscale>
<asrwt>0</asrwt>
<pdfrwt beam="1">  1        2 0.11967926E+00 0.71033185E+03</pdfrwt>
<pdfrwt beam="2">  1       -2 0.11442149E+00 0.71033185E+03</pdfrwt>
<totfact> 0.21729693E+01</totfact>
</mgrwt>
</event>
<event>
 4    2  0.2930016E-007  0.7538380E+03  0.7818608E-02  0.9821330E-01
          2   -1    0    0  501    0  0.00000000000E+00  0.00000000000E+00  0.26939192337E+04  0.26939192337E+04  0.25500000000E-02 0. -1.
         -2   -1    0    0    0  501 -0.00000000000E+00 -0.00000000000E+00 -0.19952352092E+03  0.19952352094E+03  0.25500000000E-02 0.  1.
    8880023    1    1    2    0    0 -0.12700233940E+03 -0.34399400247E+03  0.23544860627E+04  0.24722209233E+04  0.65864270000E+03 0. -1.
    8880022    1    1    2    0    0  0.12700233940E+03  0.34399400247E+03  0.13990965001E+03  0.42122183126E+03  0.15294330000E+03 0.  0.
<mgrwt>
<rscale>  0 0.64230330E+03</rscale>
<asrwt>0</asrwt>
<pdfrwt beam="1">  1        2 0.41444909E+00 0.75383796E+03</pdfrwt>
<pdfrwt beam="2">  1       -2 0.30695928E-01 0.75383796E+03</pdfrwt>
<totfact> 0.27567930E+01</totfact>
</mgrwt>
</event>
<event>
 4    2  0.2930016E-007  0.9629961E+03  0.7818608E-02  0.9431657E-01
          2   -1    0    0  501    0  0.00000000000E+00  0.00000000000E+00  0.21214095094E+04  0.21214095094E+04  0.25500000000E-02 0. -1.
         -2   -1    0    0    0  501 -0.00000000000E+00 -0.00000000000E+00 -0.50968364810E+03  0.50968364811E+03  0.25500000000E-02 0.  1.
    8880023    1    1    2    0    0  0.98300474500E+02  0.69562074336E+03  0.11398685138E+03  0.96971872748E+03  0.65864270000E+03 0.  0.
    8880022    1    1    2    0    0 -0.98300474500E+02 -0.69562074336E+03  0.14977390099E+04  0.16613744300E+04  0.15294330000E+03 0.  0.
<mgrwt>
<rscale>  0 0.89515594E+03</rscale>
<asrwt>0</asrwt>
<pdfrwt beam="1">  1        2 0.32637070E+00 0.96299606E+03</pdfrwt>
<pdfrwt beam="2">  1       -2 0.78412866E-01 0.96299606E+03</pdfrwt>
<totfact> 0.83347546E+00</totfact>
</mgrwt>
</event>
<event>
 4    2  0.2930016E-007  0.1182918E+04  0.7818608E-02  0.9173909E-01
          2   -1    0    0  501    0  0.00000000000E+00  0.00000000000E+00  0.23871503848E+04  0.23871503848E+04  0.25500000000E-02 0. -1.
         -2   -1    0    0    0  501 -0.00000000000E+00 -0.00000000000E+00 -0.85544438014E+03  0.85544438014E+03  0.25500000000E-02 0.  1.
    8880023    1    1    2    0    0 -0.97174976606E+03  0.14555877900E+03  0.18522774410E+04  0.21977777164E+04  0.65864270000E+03 0.  0.
    8880022    1    1    2    0    0  0.97174976606E+03 -0.14555877900E+03 -0.32057143639E+03  0.10448170485E+04  0.15294330000E+03 0.  0.
<mgrwt>
<rscale>  0 0.11326840E+04</rscale>
<asrwt>0</asrwt>
<pdfrwt beam="1">  1        2 0.36725390E+00 0.11829181E+04</pdfrwt>
<pdfrwt beam="2">  1       -2 0.13160683E+00 0.11829181E+04</pdfrwt>
<totfact> 0.16685335E+00</totfact>
</mgrwt>
</event>
<event>
 4    2  0.2930016E-007  0.7132282E+03  0.7818608E-02  0.9946203E-01
          2   -1    0    0  501    0  0.00000000000E+00  0.00000000000E+00  0.26043621677E+04  0.26043621677E+04  0.25500000000E-02 0. -1.
         -2   -1    0    0    0  501 -0.00000000000E+00 -0.00000000000E+00 -0.36353501549E+03  0.36353501550E+03  0.25500000000E-02 0.  1.
    8880023    1    1    2    0    0  0.12312255453E+03 -0.24438710963E+03  0.24755664826E+04  0.25762616013E+04  0.65864270000E+03 0. -1.
    8880022    1    1    2    0    0 -0.12312255453E+03  0.24438710963E+03 -0.23473933031E+03  0.39163558189E+03  0.15294330000E+03 0.  0.
<mgrwt>
<rscale>  0 0.58073397E+03</rscale>
<asrwt>0</asrwt>
<pdfrwt beam="1">  1        2 0.40067111E+00 0.71322817E+03</pdfrwt>
<pdfrwt beam="2">  1       -2 0.55928463E-01 0.71322817E+03</pdfrwt>
<totfact> 0.96132542E+00</totfact>
</mgrwt>
</event>
<event>
 4    2  0.2930016E-007  0.9861399E+03  0.7818608E-02  0.9399920E-01
          2   -1    0    0  501    0  0.00000000000E+00  0.00000000000E+00  0.35074442572E+04  0.35074442572E+04  0.25500000000E-02 0. -1.
         -2   -1    0    0    0  501 -0.00000000000E+00 -0.00000000000E+00 -0.29452884787E+03  0.29452884788E+03  0.25500000000E-02 0.  1.
    8880023    1    1    2    0    0  0.71748082440E+03 -0.15454096939E+03  0.27485597478E+04  0.29201117339E+04  0.65864270000E+03 0.  0.
    8880022    1    1    2    0    0 -0.71748082440E+03  0.15454096939E+03  0.46435566145E+03  0.88186137116E+03  0.15294330000E+03 0.  1.
<mgrwt>
<rscale>  0 0.92082283E+03</rscale>
<asrwt>0</asrwt>
<pdfrwt beam="1">  1        2 0.53960684E+00 0.98613987E+03</pdfrwt>
<pdfrwt beam="2">  1       -2 0.45312128E-01 0.98613987E+03</pdfrwt>
<totfact> 0.38573084E+00</totfact>
</mgrwt>
</event>
<event>
 4    2  0.2930016E-007  0.7892134E+03  0.7818608E-02  0.9734623E-01
          2   -1    0    0  501    0  0.00000000000E+00  0.00000000000E+00  0.16586858449E+04  0.16586858449E+04  0.25500000000E-02 0. -1.
         -2   -1    0    0    0  501 -0.00000000000E+00 -0.00000000000E+00 -0.50573362070E+03  0.50573362070E+03  0.25500000000E-02 0.  1.
    8880023    1    1    2    0    0  0.34701723970E+03  0.26196669541E+03  0.14251869482E+04  0.16291149614E+04  0.65864270000E+03 0. -1.
    8880022    1    1    2    0    0 -0.34701723970E+03 -0.26196669541E+03 -0.27223472400E+03  0.53530450411E+03  0.15294330000E+03 0.  0.
<mgrwt>
<rscale>  0 0.68992224E+03</rscale>
<asrwt>0</asrwt>
<pdfrwt beam="1">  1        2 0.25518244E+00 0.78921336E+03</pdfrwt>
<pdfrwt beam="2">  1       -2 0.77805172E-01 0.78921336E+03</pdfrwt>
<totfact> 0.15551637E+01</totfact>
</mgrwt>
</event>
<event>
 4    2  0.2930016E-007  0.8826478E+03  0.7818608E-02  0.9554482E-01
          2   -1    0    0  501    0  0.00000000000E+00  0.00000000000E+00  0.19451214076E+04  0.19451214076E+04  0.25500000000E-02 0. -1.
         -2   -1    0    0    0  501 -0.00000000000E+00 -0.00000000000E+00 -0.48338921950E+03  0.48338921950E+03  0.25500000000E-02 0.  1.
    8880023    1    1    2    0    0 -0.52371033555E+03 -0.26642909869E+03  0.15801031072E+04  0.18099151958E+04  0.65864270000E+03 0. -1.
    8880022    1    1    2    0    0  0.52371033555E+03  0.26642909869E+03 -0.11837091909E+03  0.61859543136E+03  0.15294330000E+03 0.  0.
<mgrwt>
<rscale>  0 0.80383548E+03</rscale>
<asrwt>0</asrwt>
<pdfrwt beam="1">  1        2 0.29924945E+00 0.88264783E+03</pdfrwt>
<pdfrwt beam="2">  1       -2 0.74367572E-01 0.88264783E+03</pdfrwt>
<totfact> 0.11843872E+01</totfact>
</mgrwt>
</event>
<event>
 4    2  0.2930016E-007  0.1645643E+04  0.7818608E-02  0.8813099E-01
         -2   -1    0    0    0  501 -0.00000000000E+00  0.00000000000E+00  0.10144208923E+04  0.10144208923E+04  0.25500000000E-02 0.  1.
          2   -1    0    0  501    0  0.00000000000E+00 -0.00000000000E+00 -0.27787941169E+04  0.27787941169E+04  0.25500000000E-02 0. -1.
    8880023    1    1    2    0    0  0.12651340274E+04 -0.82083276176E+03 -0.15529891099E+04  0.22627231186E+04  0.65864270000E+03 0.  0.
    8880022    1    1    2    0    0 -0.12651340274E+04  0.82083276176E+03 -0.21138411471E+03  0.15304918905E+04  0.15294330000E+03 0.  0.
<mgrwt>
<rscale>  0 0.16121814E+04</rscale>
<asrwt>0</asrwt>
<pdfrwt beam="1">  1        2 0.42750678E+00 0.16456430E+04</pdfrwt>
<pdfrwt beam="2">  1       -2 0.15606475E+00 0.16456430E+04</pdfrwt>
<totfact> 0.59769484E-01</totfact>
</mgrwt>
</event>
<event>
 4    2  0.2930016E-007  0.7579972E+03  0.7818608E-02  0.9810320E-01
          2   -1    0    0  501    0  0.00000000000E+00  0.00000000000E+00  0.16875067475E+04  0.16875067475E+04  0.25500000000E-02 0. -1.
         -2   -1    0    0    0  501 -0.00000000000E+00 -0.00000000000E+00 -0.34921836312E+03  0.34921836312E+03  0.25500000000E-02 0.  1.
    8880023    1    1    2    0    0  0.36953846941E+03  0.64737020179E+02  0.14325793566E+04  0.16207539546E+04  0.65864270000E+03 0.  0.
    8880022    1    1    2    0    0 -0.36953846941E+03 -0.64737020179E+02 -0.94290972245E+02  0.41597115599E+03  0.15294330000E+03 0.  0.
<mgrwt>
<rscale>  0 0.64811625E+03</rscale>
<asrwt>0</asrwt>
<pdfrwt beam="1">  1        2 0.25961642E+00 0.75799721E+03</pdfrwt>
<pdfrwt beam="2">  1       -2 0.53725902E-01 0.75799721E+03</pdfrwt>
<totfact> 0.33348119E+01</totfact>
</mgrwt>
</event>
<event>
 4    2  0.2930016E-007  0.8007939E+03  0.7818608E-02  0.9709082E-01
         -2   -1    0    0    0  501 -0.00000000000E+00  0.00000000000E+00  0.49306249473E+03  0.49306249474E+03  0.25500000000E-02 0.  1.
          2   -1    0    0  501    0  0.00000000000E+00 -0.00000000000E+00 -0.10199955396E+04  0.10199955396E+04  0.25500000000E-02 0. -1.
    8880023    1    1    2    0    0  0.32395992803E+03 -0.32017283866E+03 -0.63330441156E+03  0.10209531652E+04  0.65864270000E+03 0. -1.
    8880022    1    1    2    0    0 -0.32395992803E+03  0.32017283866E+03  0.10637136667E+03  0.49210486916E+03  0.15294330000E+03 0.  0.
<mgrwt>
<rscale>  0 0.70478614E+03</rscale>
<asrwt>0</asrwt>
<pdfrwt beam="1">  1        2 0.15692239E+00 0.80079391E+03</pdfrwt>
<pdfrwt beam="2">  1       -2 0.75855769E-01 0.80079391E+03</pdfrwt>
<totfact> 0.38516506E+01</totfact>
</mgrwt>
</event>
<event>
 4    2  0.2930016E-007  0.6891272E+03  0.7818608E-02  0.1004570E+00
          2   -1    0    0  501    0  0.00000000000E+00  0.00000000000E+00  0.32824563359E+03  0.32824563360E+03  0.25500000000E-02 0. -1.
         -2   -1    0    0    0  501 -0.00000000000E+00 -0.00000000000E+00 -0.10692562108E+04  0.10692562108E+04  0.25500000000E-02 0.  1.
    8880023    1    1    2    0    0 -0.49175734235E+02  0.19664136567E+03 -0.85355040677E+02  0.69439309383E+03  0.65864270000E+03 0. -1.
    8880022    1    1    2    0    0  0.49175734235E+02 -0.19664136567E+03 -0.65565553652E+03  0.70310875056E+03  0.15294330000E+03 0.  0.
<mgrwt>
<rscale>  0 0.53690909E+03</rscale>
<asrwt>0</asrwt>
<pdfrwt beam="1">  1        2 0.50499329E-01 0.68912719E+03</pdfrwt>
<pdfrwt beam="2">  1       -2 0.16450095E+00 0.68912719E+03</pdfrwt>
<totfact> 0.23606333E+01</totfact>
</mgrwt>
</event>
<event>
 4    2  0.2930016E-007  0.6647930E+03  0.7818608E-02  0.1019708E+00
          2   -1    0    0  501    0  0.00000000000E+00  0.00000000000E+00  0.11458323943E+04  0.11458323943E+04  0.25500000000E-02 0. -1.
         -2   -1    0    0    0  501 -0.00000000000E+00 -0.00000000000E+00 -0.15481786378E+03  0.15481786381E+03  0.25500000000E-02 0.  1.
    8880023    1    1    2    0    0 -0.73552142635E+02  0.52245715076E+02  0.78063197866E+03  0.10253467827E+04  0.65864270000E+03 0.  0.
    8880022    1    1    2    0    0  0.73552142635E+02 -0.52245715076E+02  0.21038255186E+03  0.27530347541E+03  0.15294330000E+03 0.  1.
<mgrwt>
<rscale>  0 0.47792238E+03</rscale>
<asrwt>0</asrwt>
<pdfrwt beam="1">  1        2 0.17628191E+00 0.66479300E+03</pdfrwt>
<pdfrwt beam="2">  1       -2 0.23818133E-01 0.66479300E+03</pdfrwt>
<totfact> 0.32379183E+02</totfact>
</mgrwt>
</event>
<event>
 4    2  0.2930016E-007  0.7687999E+03  0.7818608E-02  0.9782836E-01
          2   -1    0    0  501    0  0.00000000000E+00  0.00000000000E+00  0.27975786096E+04  0.27975786096E+04  0.25500000000E-02 0. -1.
         -2   -1    0    0    0  501 -0.00000000000E+00 -0.00000000000E+00 -0.38554334882E+03  0.38554334883E+03  0.25500000000E-02 0.  1.
    8880023    1    1    2    0    0  0.23850718285E+03  0.31679241460E+03  0.26052029460E+04  0.27162723918E+04  0.65864270000E+03 0.  0.
    8880022    1    1    2    0    0 -0.23850718285E+03 -0.31679241460E+03 -0.19316768525E+03  0.46684956662E+03  0.15294330000E+03 0.  0.
<mgrwt>
<rscale>  0 0.66291854E+03</rscale>
<asrwt>0</asrwt>
<pdfrwt beam="1">  1        2 0.43039672E+00 0.76879992E+03</pdfrwt>
<pdfrwt beam="2">  1       -2 0.59314360E-01 0.76879992E+03</pdfrwt>
<totfact> 0.64960637E+00</totfact>
</mgrwt>
</event>
<event>
 4    2  0.2930016E-007  0.7234373E+03  0.7818608E-02  0.9911122E-01
          2   -1    0    0  501    0  0.00000000000E+00  0.00000000000E+00  0.25910846096E+04  0.25910846096E+04  0.25500000000E-02 0. -1.
         -2   -1    0    0    0  501 -0.00000000000E+00 -0.00000000000E+00 -0.22445420486E+03  0.22445420488E+03  0.25500000000E-02 0.  1.
    8880023    1    1    2    0    0  0.29806130717E+03 -0.26661603005E+02  0.23715450407E+04  0.24794328929E+04  0.65864270000E+03 0. -1.
    8880022    1    1    2    0    0 -0.29806130717E+03  0.26661603005E+02 -0.49146359183E+01  0.33610592165E+03  0.15294330000E+03 0.  0.
<mgrwt>
<rscale>  0 0.59725270E+03</rscale>
<asrwt>0</asrwt>
<pdfrwt beam="1">  1        2 0.39862840E+00 0.72343734E+03</pdfrwt>
<pdfrwt beam="2">  1       -2 0.34531417E-01 0.72343734E+03</pdfrwt>
<totfact> 0.25443600E+01</totfact>
</mgrwt>
</event>
<event>
 4    2  0.3811601E-007  0.6894955E+03  0.7818608E-02  0.1004393E+00
         -2   -1    0    0    0  501 -0.00000000000E+00  0.00000000000E+00  0.90337554458E+03  0.90337554458E+03  0.25500000000E-02 0.  1.
          2   -1    0    0  501    0  0.00000000000E+00 -0.00000000000E+00 -0.16730529673E+04  0.16730529673E+04  0.25500000000E-02 0. -1.
    8880023    1    1    2    0    0 -0.15215900881E+03  0.13579925981E+03 -0.15816364723E+04  0.17253921119E+04  0.65864270000E+03 0. -1.
    8880022    1    1    2    0    0  0.15215900881E+03 -0.13579925981E+03  0.81195904959E+03  0.85103640001E+03  0.15294330000E+03 0.  0.
<mgrwt>
<rscale>  0 0.53765116E+03</rscale>
<asrwt>0</asrwt>
<pdfrwt beam="1">  1        2 0.25739276E+00 0.68949547E+03</pdfrwt>
<pdfrwt beam="2">  1       -2 0.13898085E+00 0.68949547E+03</pdfrwt>
<totfact> 0.38648688E+00</totfact>
</mgrwt>
</event>
<event>
 4    2  0.2930016E-007  0.7157167E+03  0.7818608E-02  0.9937355E-01
          2   -1    0    0  501    0  0.00000000000E+00  0.00000000000E+00  0.13862030798E+04  0.13862030798E+04  0.25500000000E-02 0. -1.
         -2   -1    0    0    0  501 -0.00000000000E+00 -0.00000000000E+00 -0.35464525825E+03  0.35464525826E+03  0.25500000000E-02 0.  1.
    8880023    1    1    2    0    0 -0.27335223336E+02 -0.27873451141E+03  0.11868542156E+04  0.13859557271E+04  0.65864270000E+03 0. -1.
    8880022    1    1    2    0    0  0.27335223336E+02  0.27873451141E+03 -0.15529639402E+03  0.35489261094E+03  0.15294330000E+03 0.  0.
<mgrwt>
<rscale>  0 0.58484566E+03</rscale>
<asrwt>0</asrwt>
<pdfrwt beam="1">  1        2 0.21326202E+00 0.71571667E+03</pdfrwt>
<pdfrwt beam="2">  1       -2 0.54560808E-01 0.71571667E+03</pdfrwt>
<totfact> 0.47700744E+01</totfact>
</mgrwt>
</event>
<event>
 4    2  0.2930016E-007  0.7539938E+03  0.7818608E-02  0.9820913E-01
          2   -1    0    0  501    0  0.00000000000E+00  0.00000000000E+00  0.86176638271E+03  0.86176638272E+03  0.25500000000E-02 0. -1.
         -2   -1    0    0    0  501 -0.00000000000E+00 -0.00000000000E+00 -0.68900612188E+03  0.68900612189E+03  0.25500000000E-02 0.  1.
    8880023    1    1    2    0    0 -0.20049036618E+03 -0.30740849835E+03  0.60261974054E+03  0.96522387545E+03  0.65864270000E+03 0.  0.
    8880022    1    1    2    0    0  0.20049036618E+03  0.30740849835E+03 -0.42985947971E+03  0.58554862915E+03  0.15294330000E+03 0.  0.
<mgrwt>
<rscale>  0 0.64252227E+03</rscale>
<asrwt>0</asrwt>
<pdfrwt beam="1">  1        2 0.13257944E+00 0.75399375E+03</pdfrwt>
<pdfrwt beam="2">  1       -2 0.10600094E+00 0.75399375E+03</pdfrwt>
<totfact> 0.22704729E+01</totfact>
</mgrwt>
</event>
<event>
 4    2  0.2930016E-007  0.6938304E+03  0.7818608E-02  0.1002383E+00
         -2   -1    0    0    0  501 -0.00000000000E+00  0.00000000000E+00  0.13911214242E+03  0.13911214244E+03  0.25500000000E-02 0.  1.
          2   -1    0    0  501    0  0.00000000000E+00 -0.00000000000E+00 -0.21251109135E+04  0.21251109135E+04  0.25500000000E-02 0. -1.
    8880023    1    1    2    0    0 -0.21676726404E+03 -0.24544470632E+02 -0.18261697350E+04  0.19535343828E+04  0.65864270000E+03 0.  0.
    8880022    1    1    2    0    0  0.21676726404E+03  0.24544470632E+02 -0.15982903613E+03  0.31068867312E+03  0.15294330000E+03 0.  0.
<mgrwt>
<rscale>  0 0.54617730E+03</rscale>
<asrwt>0</asrwt>
<pdfrwt beam="1">  1        2 0.32694012E+00 0.69383044E+03</pdfrwt>
<pdfrwt beam="2">  1       -2 0.21401870E-01 0.69383044E+03</pdfrwt>
<totfact> 0.11147943E+02</totfact>
</mgrwt>
</event>
<event>
 4    2  0.2930016E-007  0.9983937E+03  0.7818608E-02  0.9383662E-01
         -2   -1    0    0    0  501 -0.00000000000E+00  0.00000000000E+00  0.42103859448E+03  0.42103859449E+03  0.25500000000E-02 0.  1.
          2   -1    0    0  501    0  0.00000000000E+00 -0.00000000000E+00 -0.30058838855E+04  0.30058838855E+04  0.25500000000E-02 0. -1.
    8880023    1    1    2    0    0 -0.73737215701E+03 -0.13878785992E+03 -0.24549931116E+04  0.26502417158E+04  0.65864270000E+03 0.  0.
    8880022    1    1    2    0    0  0.73737215701E+03  0.13878785992E+03 -0.12985217948E+03  0.77668076423E+03  0.15294330000E+03 0.  1.
<mgrwt>
<rscale>  0 0.93432501E+03</rscale>
<asrwt>0</asrwt>
<pdfrwt beam="1">  1        2 0.46244366E+00 0.99839370E+03</pdfrwt>
<pdfrwt beam="2">  1       -2 0.64775170E-01 0.99839370E+03</pdfrwt>
<totfact> 0.38838866E+00</totfact>
</mgrwt>
</event>
<event>
 4    2  0.2930016E-007  0.9099136E+03  0.7818608E-02  0.9510301E-01
          2   -1    0    0  501    0  0.00000000000E+00  0.00000000000E+00  0.98967174509E+03  0.98967174510E+03  0.25500000000E-02 0. -1.
         -2   -1    0    0    0  501 -0.00000000000E+00 -0.00000000000E+00 -0.13099343914E+04  0.13099343914E+04  0.25500000000E-02 0.  1.
    8880023    1    1    2    0    0 -0.55246677872E+03  0.29818296497E+03  0.66102807951E+03  0.11246781541E+04  0.65864270000E+03 0. -1.
    8880022    1    1    2    0    0  0.55246677872E+03 -0.29818296497E+03 -0.98129072581E+03  0.11749279824E+04  0.15294330000E+03 0.  0.
<mgrwt>
<rscale>  0 0.83528628E+03</rscale>
<asrwt>0</asrwt>
<pdfrwt beam="1">  1        2 0.15225719E+00 0.90991364E+03</pdfrwt>
<pdfrwt beam="2">  1       -2 0.20152837E+00 0.90991364E+03</pdfrwt>
<totfact> 0.33330104E+00</totfact>
</mgrwt>
</event>
<event>
 4    2  0.2930016E-007  0.1215109E+04  0.7818608E-02  0.9142573E-01
          2   -1    0    0  501    0  0.00000000000E+00  0.00000000000E+00  0.15728968185E+04  0.15728968185E+04  0.25500000000E-02 0. -1.
         -2   -1    0    0    0  501 -0.00000000000E+00 -0.00000000000E+00 -0.10145347989E+04  0.10145347989E+04  0.25500000000E-02 0.  1.
    8880023    1    1    2    0    0  0.10161397991E+04  0.10069592172E+03  0.88640768419E+03  0.15040640109E+04  0.65864270000E+03 0.  0.
    8880022    1    1    2    0    0 -0.10161397991E+04 -0.10069592172E+03 -0.32804566452E+03  0.10833676065E+04  0.15294330000E+03 0.  0.
<mgrwt>
<rscale>  0 0.11666343E+04</rscale>
<asrwt>0</asrwt>
<pdfrwt beam="1">  1        2 0.24198413E+00 0.12151090E+04</pdfrwt>
<pdfrwt beam="2">  1       -2 0.15608228E+00 0.12151090E+04</pdfrwt>
<totfact> 0.30185107E+00</totfact>
</mgrwt>
</event>
<event>
 4    2  0.2930016E-007  0.6604082E+03  0.7818608E-02  0.1023742E+00
         -2   -1    0    0    0  501 -0.00000000000E+00  0.00000000000E+00  0.11747815816E+04  0.11747815816E+04  0.25500000000E-02 0.  1.
          2   -1    0    0  501    0  0.00000000000E+00 -0.00000000000E+00 -0.42687239956E+03  0.42687239957E+03  0.25500000000E-02 0. -1.
    8880023    1    1    2    0    0 -0.47626600103E+02 -0.77811117080E+01 -0.16014347873E+03  0.67954762804E+03  0.65864270000E+03 0. -1.
    8880022    1    1    2    0    0  0.47626600103E+02  0.77811117080E+01  0.90805266076E+03  0.92210635312E+03  0.15294330000E+03 0.  0.
<mgrwt>
<rscale>  0 0.46360090E+03</rscale>
<asrwt>0</asrwt>
<pdfrwt beam="1">  1        2 0.65672677E-01 0.66040824E+03</pdfrwt>
<pdfrwt beam="2">  1       -2 0.18073563E+00 0.66040824E+03</pdfrwt>
<totfact> 0.13574273E+01</totfact>
</mgrwt>
</event>
<event>
 4    2  0.2930016E-007  0.6714509E+03  0.7818608E-02  0.1014643E+00
         -2   -1    0    0    0  501 -0.00000000000E+00  0.00000000000E+00  0.33701319687E+03  0.33701319688E+03  0.25500000000E-02 0.  1.
          2   -1    0    0  501    0  0.00000000000E+00 -0.00000000000E+00 -0.12746592908E+04  0.12746592908E+04  0.25500000000E-02 0. -1.
    8880023    1    1    2    0    0 -0.77242277794E+02 -0.10521285163E+03 -0.11421393466E+04  0.13248881488E+04  0.65864270000E+03 0. -1.
    8880022    1    1    2    0    0  0.77242277794E+02  0.10521285163E+03  0.20449325265E+03  0.28678433887E+03  0.15294330000E+03 0.  0.
<mgrwt>
<rscale>  0 0.49670172E+03</rscale>
<asrwt>0</asrwt>
<pdfrwt beam="1">  1        2 0.19610143E+00 0.67145091E+03</pdfrwt>
<pdfrwt beam="2">  1       -2 0.51848185E-01 0.67145091E+03</pdfrwt>
<totfact> 0.61645353E+01</totfact>
</mgrwt>
</event>
<event>
 4    2  0.2983220E-007  0.8003411E+03  0.7818608E-02  0.9710059E-01
          2   -1    0    0  501    0  0.00000000000E+00  0.00000000000E+00  0.91543138930E+03  0.91543138930E+03  0.25500000000E-02 0. -1.
         -2   -1    0    0    0  501 -0.00000000000E+00 -0.00000000000E+00 -0.17209186894E+04  0.17209186894E+04  0.25500000000E-02 0.  1.
    8880023    1    1    2    0    0  0.22011631524E+03 -0.39784978447E+03  0.69565761554E+03  0.10604175440E+04  0.65864270000E+03 0.  0.
    8880022    1    1    2    0    0 -0.22011631524E+03  0.39784978447E+03 -0.15011449157E+04  0.15759325348E+04  0.15294330000E+03 0.  0.
<mgrwt>
<rscale>  0 0.70421026E+03</rscale>
<asrwt>0</asrwt>
<pdfrwt beam="1">  1        2 0.14083560E+00 0.80034108E+03</pdfrwt>
<pdfrwt beam="2">  1       -2 0.26475672E+00 0.80034108E+03</pdfrwt>
<totfact> 0.15352888E+00</totfact>
</mgrwt>
</event>
<event>
 4    2  0.2930016E-007  0.8707515E+03  0.7818608E-02  0.9574717E-01
         -2   -1    0    0    0  501 -0.00000000000E+00  0.00000000000E+00  0.55522833357E+03  0.55522833357E+03  0.25500000000E-02 0.  1.
          2   -1    0    0  501    0  0.00000000000E+00 -0.00000000000E+00 -0.15898869044E+04  0.15898869044E+04  0.25500000000E-02 0. -1.
    8880023    1    1    2    0    0 -0.17425742351E+03 -0.54224749167E+03 -0.12447426000E+04  0.15190761464E+04  0.65864270000E+03 0. -1.
    8880022    1    1    2    0    0  0.17425742351E+03  0.54224749167E+03  0.21008402920E+03  0.62603909160E+03  0.15294330000E+03 0.  0.
<mgrwt>
<rscale>  0 0.78992391E+03</rscale>
<asrwt>0</asrwt>
<pdfrwt beam="1">  1        2 0.24459798E+00 0.87075151E+03</pdfrwt>
<pdfrwt beam="2">  1       -2 0.85419744E-01 0.87075151E+03</pdfrwt>
<totfact> 0.13609256E+01</totfact>
</mgrwt>
</event>
<event>
 4    2  0.2930016E-007  0.6833203E+03  0.7818608E-02  0.1007505E+00
         -2   -1    0    0    0  501 -0.00000000000E+00  0.00000000000E+00  0.56769734735E+03  0.56769734735E+03  0.25500000000E-02 0.  1.
          2   -1    0    0  501    0  0.00000000000E+00 -0.00000000000E+00 -0.14151535078E+04  0.14151535078E+04  0.25500000000E-02 0. -1.
    8880023    1    1    2    0    0 -0.17246763538E+03  0.58063823913E+02 -0.13017074695E+04  0.14701595272E+04  0.65864270000E+03 0. -1.
    8880022    1    1    2    0    0  0.17246763538E+03 -0.58063823913E+02  0.45425130911E+03  0.51269132794E+03  0.15294330000E+03 0.  0.
<mgrwt>
<rscale>  0 0.52478589E+03</rscale>
<asrwt>0</asrwt>
<pdfrwt beam="1">  1        2 0.21771592E+00 0.68332035E+03</pdfrwt>
<pdfrwt beam="2">  1       -2 0.87338054E-01 0.68332035E+03</pdfrwt>
<totfact> 0.16569579E+01</totfact>
</mgrwt>
</event>
<event>
 4    2  0.2930016E-007  0.6652395E+03  0.7818608E-02  0.1019333E+00
          2   -1    0    0  501    0  0.00000000000E+00  0.00000000000E+00  0.21514082313E+04  0.21514082313E+04  0.25500000000E-02 0. -1.
         -2   -1    0    0    0  501 -0.00000000000E+00 -0.00000000000E+00 -0.12590296251E+03  0.12590296253E+03  0.25500000000E-02 0.  1.
    8880023    1    1    2    0    0  0.77367962309E+02  0.52417882355E+02  0.19850690402E+04  0.20935717654E+04  0.65864270000E+03 0. -1.
    8880022    1    1    2    0    0 -0.77367962309E+02 -0.52417882355E+02  0.40436228572E+02  0.18373942848E+03  0.15294330000E+03 0.  0.
<mgrwt>
<rscale>  0 0.47927975E+03</rscale>
<asrwt>0</asrwt>
<pdfrwt beam="1">  1        2 0.33098587E+00 0.66523954E+03</pdfrwt>
<pdfrwt beam="2">  1       -2 0.19369687E-01 0.66523954E+03</pdfrwt>
<totfact> 0.12886400E+02</totfact>
</mgrwt>
</event>
<event>
 4    2  0.2930016E-007  0.6874048E+03  0.7818608E-02  0.1005411E+00
         -2   -1    0    0    0  501 -0.00000000000E+00  0.00000000000E+00  0.21270162392E+03  0.21270162393E+03  0.25500000000E-02 0.  1.
          2   -1    0    0  501    0  0.00000000000E+00 -0.00000000000E+00 -0.13066472571E+04  0.13066472571E+04  0.25500000000E-02 0. -1.
    8880023    1    1    2    0    0  0.56828462077E+02 -0.18837644217E+03 -0.43159201525E+03  0.81166312714E+03  0.65864270000E+03 0.  1.
    8880022    1    1    2    0    0 -0.56828462077E+02  0.18837644217E+03 -0.66235361792E+03  0.70768575388E+03  0.15294330000E+03 0.  0.
<mgrwt>
<rscale>  0 0.53339854E+03</rscale>
<asrwt>0</asrwt>
<pdfrwt beam="1">  1        2 0.20102265E+00 0.68740480E+03</pdfrwt>
<pdfrwt beam="2">  1       -2 0.32723327E-01 0.68740480E+03</pdfrwt>
<totfact> 0.14539107E+02</totfact>
</mgrwt>
</event>
<event>
 4    2  0.2930016E-007  0.8597540E+03  0.7818608E-02  0.9594001E-01
         -2   -1    0    0    0  501 -0.00000000000E+00  0.00000000000E+00  0.31593381455E+03  0.31593381456E+03  0.25500000000E-02 0.  1.
          2   -1    0    0  501    0  0.00000000000E+00 -0.00000000000E+00 -0.22522382532E+04  0.22522382533E+04  0.25500000000E-02 0. -1.
    8880023    1    1    2    0    0  0.45933989049E+03  0.30720278189E+03 -0.17754479703E+04  0.19726612445E+04  0.65864270000E+03 0.  1.
    8880022    1    1    2    0    0 -0.45933989049E+03 -0.30720278189E+03 -0.16085646839E+03  0.59551082327E+03  0.15294330000E+03 0.  0.
<mgrwt>
<rscale>  0 0.77694493E+03</rscale>
<asrwt>0</asrwt>
<pdfrwt beam="1">  1        2 0.34649818E+00 0.85975397E+03</pdfrwt>
<pdfrwt beam="2">  1       -2 0.48605204E-01 0.85975397E+03</pdfrwt>
<totfact> 0.19813865E+01</totfact>
</mgrwt>
</event>
<event>
 4    2  0.2930016E-007  0.8324363E+03  0.7818608E-02  0.9644611E-01
          2   -1    0    0  501    0  0.00000000000E+00  0.00000000000E+00  0.45730392096E+03  0.45730392097E+03  0.25500000000E-02 0. -1.
         -2   -1    0    0    0  501 -0.00000000000E+00 -0.00000000000E+00 -0.20981716476E+04  0.20981716476E+04  0.25500000000E-02 0.  1.
    8880023    1    1    2    0    0  0.12251032220E+03 -0.49409630110E+03 -0.18663125704E+01  0.83243836000E+03  0.65864270000E+03 0.  0.
    8880022    1    1    2    0    0 -0.12251032220E+03  0.49409630110E+03 -0.16390014141E+04  0.17230372086E+04  0.15294330000E+03 0.  0.
<mgrwt>
<rscale>  0 0.74412624E+03</rscale>
<asrwt>0</asrwt>
<pdfrwt beam="1">  1        2 0.70354450E-01 0.83243627E+03</pdfrwt>
<pdfrwt beam="2">  1       -2 0.32279563E+00 0.83243627E+03</pdfrwt>
<totfact> 0.16240762E+00</totfact>
</mgrwt>
</event>
<event>
 4    2  0.2930016E-007  0.7274767E+03  0.7818608E-02  0.9898054E-01
          2   -1    0    0  501    0  0.00000000000E+00  0.00000000000E+00  0.30047584534E+04  0.30047584534E+04  0.25500000000E-02 0. -1.
         -2   -1    0    0    0  501 -0.00000000000E+00 -0.00000000000E+00 -0.15898404654E+03  0.15898404656E+03  0.25500000000E-02 0.  1.
    8880023    1    1    2    0    0  0.30741732914E+03  0.30112243397E+02  0.26879398552E+04  0.27846441484E+04  0.65864270000E+03 0.  0.
    8880022    1    1    2    0    0 -0.30741732914E+03 -0.30112243397E+02  0.15783455160E+03  0.37909835156E+03  0.15294330000E+03 0.  0.
<mgrwt>
<rscale>  0 0.60355676E+03</rscale>
<asrwt>0</asrwt>
<pdfrwt beam="1">  1        2 0.46227049E+00 0.72747671E+03</pdfrwt>
<pdfrwt beam="2">  1       -2 0.24459086E-01 0.72747671E+03</pdfrwt>
<totfact> 0.27377531E+01</totfact>
</mgrwt>
</event>
<event>
 4    2  0.2930016E-007  0.9768510E+03  0.7818608E-02  0.9412491E-01
          2   -1    0    0  501    0  0.00000000000E+00  0.00000000000E+00  0.10294367835E+04  0.10294367835E+04  0.25500000000E-02 0. -1.
         -2   -1    0    0    0  501 -0.00000000000E+00 -0.00000000000E+00 -0.79937910419E+03  0.79937910419E+03  0.25500000000E-02 0.  1.
    8880023    1    1    2    0    0  0.48642137114E+03 -0.53274933375E+03  0.42613483573E+03  0.10657526483E+04  0.65864270000E+03 0. -1.
    8880022    1    1    2    0    0 -0.48642137114E+03  0.53274933375E+03 -0.19607715645E+03  0.76306323933E+03  0.15294330000E+03 0.  0.
<mgrwt>
<rscale>  0 0.91054844E+03</rscale>
<asrwt>0</asrwt>
<pdfrwt beam="1">  1        2 0.15837489E+00 0.97685097E+03</pdfrwt>
<pdfrwt beam="2">  1       -2 0.12298140E+00 0.97685097E+03</pdfrwt>
<totfact> 0.11979587E+01</totfact>
</mgrwt>
</event>
<event>
 4    2  0.2930016E-007  0.7944310E+03  0.7818608E-02  0.9722969E-01
         -2   -1    0    0    0  501 -0.00000000000E+00  0.00000000000E+00  0.11399029138E+04  0.11399029138E+04  0.25500000000E-02 0.  1.
          2   -1    0    0  501    0  0.00000000000E+00 -0.00000000000E+00 -0.15009395044E+04  0.15009395044E+04  0.25500000000E-02 0. -1.
    8880023    1    1    2    0    0  0.10293332677E+03 -0.43210540167E+03 -0.13384095270E+04  0.15564255897E+04  0.65864270000E+03 0. -1.
    8880022    1    1    2    0    0 -0.10293332677E+03  0.43210540167E+03  0.97737293645E+03  0.10844168285E+04  0.15294330000E+03 0.  0.
<mgrwt>
<rscale>  0 0.69665524E+03</rscale>
<asrwt>0</asrwt>
<pdfrwt beam="1">  1        2 0.23091377E+00 0.79443096E+03</pdfrwt>
<pdfrwt beam="2">  1       -2 0.17536968E+00 0.79443096E+03</pdfrwt>
<totfact> 0.25296822E+00</totfact>
</mgrwt>
</event>
<event>
 4    2  0.2930016E-007  0.8418654E+03  0.7818608E-02  0.9626673E-01
          2   -1    0    0  501    0  0.00000000000E+00  0.00000000000E+00  0.63428290741E+03  0.63428290742E+03  0.25500000000E-02 0. -1.
         -2   -1    0    0    0  501 -0.00000000000E+00 -0.00000000000E+00 -0.79183786768E+03  0.79183786768E+03  0.25500000000E-02 0.  1.
    8880023    1    1    2    0    0  0.52326225300E+03  0.33522331791E+02  0.46286732432E+02  0.84313688094E+03  0.65864270000E+03 0.  0.
    8880022    1    1    2    0    0 -0.52326225300E+03 -0.33522331791E+02 -0.20384169270E+03  0.58298389415E+03  0.15294330000E+03 0.  0.
<mgrwt>
<rscale>  0 0.75555671E+03</rscale>
<asrwt>0</asrwt>
<pdfrwt beam="1">  1        2 0.97581986E-01 0.84186539E+03</pdfrwt>
<pdfrwt beam="2">  1       -2 0.12182121E+00 0.84186539E+03</pdfrwt>
<totfact> 0.23834302E+01</totfact>
</mgrwt>
</event>
<event>
 4    2  0.2930016E-007  0.8397912E+03  0.7818608E-02  0.9630574E-01
          2   -1    0    0  501    0  0.00000000000E+00  0.00000000000E+00  0.28402012773E+04  0.28402012773E+04  0.25500000000E-02 0. -1.
         -2   -1    0    0    0  501 -0.00000000000E+00 -0.00000000000E+00 -0.48292643702E+03  0.48292643702E+03  0.25500000000E-02 0.  1.
    8880023    1    1    2    0    0  0.31738296696E+03  0.41316722536E+03  0.25971281949E+04  0.27295281957E+04  0.65864270000E+03 0. -1.
    8880022    1    1    2    0    0 -0.31738296696E+03 -0.41316722536E+03 -0.23985335463E+03  0.59359951867E+03  0.15294330000E+03 0.  0.
<mgrwt>
<rscale>  0 0.75305223E+03</rscale>
<asrwt>0</asrwt>
<pdfrwt beam="1">  1        2 0.43695403E+00 0.83979123E+03</pdfrwt>
<pdfrwt beam="2">  1       -2 0.74296377E-01 0.83979123E+03</pdfrwt>
<totfact> 0.37204233E+00</totfact>
</mgrwt>
</event>
<event>
 4    2  0.2930016E-007  0.1015560E+04  0.7818608E-02  0.9361477E-01
          2   -1    0    0  501    0  0.00000000000E+00  0.00000000000E+00  0.17542872731E+04  0.17542872731E+04  0.25500000000E-02 0. -1.
         -2   -1    0    0    0  501 -0.00000000000E+00 -0.00000000000E+00 -0.53875989947E+03  0.53875989948E+03  0.25500000000E-02 0.  1.
    8880023    1    1    2    0    0  0.43156465673E+02 -0.77180974228E+03  0.24832559824E+03  0.10454800657E+04  0.65864270000E+03 0.  0.
    8880022    1    1    2    0    0 -0.43156465673E+02  0.77180974228E+03  0.96720177539E+03  0.12475671069E+04  0.15294330000E+03 0.  0.
<mgrwt>
<rscale>  0 0.95314926E+03</rscale>
<asrwt>0</asrwt>
<pdfrwt beam="1">  1        2 0.26989035E+00 0.10155604E+04</pdfrwt>
<pdfrwt beam="2">  1       -2 0.82886138E-01 0.10155604E+04</pdfrwt>
<totfact> 0.11642181E+01</totfact>
</mgrwt>
</event>
<event>
 4    2  0.2930016E-007  0.6709909E+03  0.7818608E-02  0.1014962E+00
          2   -1    0    0  501    0  0.00000000000E+00  0.00000000000E+00  0.93995826707E+03  0.93995826708E+03  0.25500000000E-02 0. -1.
         -2   -1    0    0    0  501 -0.00000000000E+00 -0.00000000000E+00 -0.48672798767E+03  0.48672798767E+03  0.25500000000E-02 0.  1.
    8880023    1    1    2    0    0  0.11213295093E+03  0.62006170731E+02  0.78922907831E+03  0.10359108592E+04  0.65864270000E+03 0. -1.
    8880022    1    1    2    0    0 -0.11213295093E+03 -0.62006170731E+02 -0.33599879890E+03  0.39077539555E+03  0.15294330000E+03 0.  0.
<mgrwt>
<rscale>  0 0.49549216E+03</rscale>
<asrwt>0</asrwt>
<pdfrwt beam="1">  1        2 0.14460896E+00 0.67099089E+03</pdfrwt>
<pdfrwt beam="2">  1       -2 0.74881230E-01 0.67099089E+03</pdfrwt>
<totfact> 0.45166294E+01</totfact>
</mgrwt>
</event>
<event>
 4    2  0.2930016E-007  0.7918690E+03  0.7818608E-02  0.9728661E-01
          2   -1    0    0  501    0  0.00000000000E+00  0.00000000000E+00  0.14644341007E+04  0.14644341007E+04  0.25500000000E-02 0. -1.
         -2   -1    0    0    0  501 -0.00000000000E+00 -0.00000000000E+00 -0.26987325659E+03  0.26987325660E+03  0.25500000000E-02 0.  1.
    8880023    1    1    2    0    0  0.36350767007E+03 -0.24720117724E+03  0.75012748188E+03  0.10907555609E+04  0.65864270000E+03 0. -1.
    8880022    1    1    2    0    0 -0.36350767007E+03  0.24720117724E+03  0.44443336226E+03  0.64355179646E+03  0.15294330000E+03 0.  1.
<mgrwt>
<rscale>  0 0.69335683E+03</rscale>
<asrwt>0</asrwt>
<pdfrwt beam="1">  1        2 0.22529755E+00 0.79186896E+03</pdfrwt>
<pdfrwt beam="2">  1       -2 0.41518963E-01 0.79186896E+03</pdfrwt>
<totfact> 0.74211978E+01</totfact>
</mgrwt>
</event>
<event>
 4    2  0.2930016E-007  0.6645461E+03  0.7818608E-02  0.1019917E+00
          2   -1    0    0  501    0  0.00000000000E+00  0.00000000000E+00  0.15882919818E+04  0.15882919818E+04  0.25500000000E-02 0. -1.
         -2   -1    0    0    0  501 -0.00000000000E+00 -0.00000000000E+00 -0.29507018361E+03  0.29507018362E+03  0.25500000000E-02 0.  1.
    8880023    1    1    2    0    0 -0.88354221049E+02  0.22099240282E+01  0.14823968730E+04  0.16245374872E+04  0.65864270000E+03 0. -1.
    8880022    1    1    2    0    0  0.88354221049E+02 -0.22099240282E+01 -0.18917507474E+03  0.25882467823E+03  0.15294330000E+03 0.  0.
<mgrwt>
<rscale>  0 0.47716480E+03</rscale>
<asrwt>0</asrwt>
<pdfrwt beam="1">  1        2 0.24435261E+00 0.66454613E+03</pdfrwt>
<pdfrwt beam="2">  1       -2 0.45395413E-01 0.66454613E+03</pdfrwt>
<totfact> 0.53800753E+01</totfact>
</mgrwt>
</event>
<event>
 4    2  0.2930016E-007  0.8569393E+03  0.7818608E-02  0.9599031E-01
          2   -1    0    0  501    0  0.00000000000E+00  0.00000000000E+00  0.27505404524E+04  0.27505404524E+04  0.25500000000E-02 0. -1.
         -2   -1    0    0    0  501 -0.00000000000E+00 -0.00000000000E+00 -0.28173001281E+03  0.28173001282E+03  0.25500000000E-02 0.  1.
    8880023    1    1    2    0    0  0.42796971743E+03  0.34260287948E+03  0.22749803776E+04  0.24310246269E+04  0.65864270000E+03 0. -1.
    8880022    1    1    2    0    0 -0.42796971743E+03 -0.34260287948E+03  0.19383006195E+03  0.60124583824E+03  0.15294330000E+03 0.  0.
<mgrwt>
<rscale>  0 0.77360338E+03</rscale>
<asrwt>0</asrwt>
<pdfrwt beam="1">  1        2 0.42316005E+00 0.85693933E+03</pdfrwt>
<pdfrwt beam="2">  1       -2 0.43343080E-01 0.85693933E+03</pdfrwt>
<totfact> 0.12963850E+01</totfact>
</mgrwt>
</event>
<event>
 4    2  0.2930016E-007  0.6944636E+03  0.7818608E-02  0.1002099E+00
          2   -1    0    0  501    0  0.00000000000E+00  0.00000000000E+00  0.92147913573E+03  0.92147913574E+03  0.25500000000E-02 0. -1.
         -2   -1    0    0    0  501 -0.00000000000E+00 -0.00000000000E+00 -0.27980402862E+03  0.27980402863E+03  0.25500000000E-02 0.  1.
    8880023    1    1    2    0    0 -0.21106351143E+03 -0.62623354512E+02  0.62234188181E+03  0.93251762155E+03  0.65864270000E+03 0. -1.
    8880022    1    1    2    0    0  0.21106351143E+03  0.62623354512E+02  0.19333225300E+02  0.26876554281E+03  0.15294330000E+03 0.  0.
<mgrwt>
<rscale>  0 0.54739255E+03</rscale>
<asrwt>0</asrwt>
<pdfrwt beam="1">  1        2 0.14176602E+00 0.69446360E+03</pdfrwt>
<pdfrwt beam="2">  1       -2 0.43046774E-01 0.69446360E+03</pdfrwt>
<totfact> 0.14729857E+02</totfact>
</mgrwt>
</event>
<event>
 4    2  0.2930016E-007  0.9259739E+03  0.7818608E-02  0.9485559E-01
          2   -1    0    0  501    0  0.00000000000E+00  0.00000000000E+00  0.13126300113E+04  0.13126300113E+04  0.25500000000E-02 0. -1.
         -2   -1    0    0    0  501 -0.00000000000E+00 -0.00000000000E+00 -0.48660413641E+03  0.48660413642E+03  0.25500000000E-02 0.  1.
    8880023    1    1    2    0    0 -0.40218056944E+03 -0.51173061675E+03  0.41775571886E+03  0.10158481587E+04  0.65864270000E+03 0. -1.
    8880022    1    1    2    0    0  0.40218056944E+03  0.51173061675E+03  0.40827015607E+03  0.78338598910E+03  0.15294330000E+03 0. -1.
<mgrwt>
<rscale>  0 0.85356893E+03</rscale>
<asrwt>0</asrwt>
<pdfrwt beam="1">  1        2 0.20194308E+00 0.92597389E+03</pdfrwt>
<pdfrwt beam="2">  1       -2 0.74862175E-01 0.92597389E+03</pdfrwt>
<totfact> 0.26134667E+01</totfact>
</mgrwt>
</event>
<event>
 4    2  0.2930016E-007  0.7922399E+03  0.7818608E-02  0.9727833E-01
         -2   -1    0    0    0  501 -0.00000000000E+00  0.00000000000E+00  0.59915489059E+03  0.59915489059E+03  0.25500000000E-02 0.  1.
          2   -1    0    0  501    0  0.00000000000E+00 -0.00000000000E+00 -0.76742579322E+03  0.76742579322E+03  0.25500000000E-02 0. -1.
    8880023    1    1    2    0    0  0.33239041954E+03  0.28870480895E+03 -0.35028810147E+03  0.86622503890E+03  0.65864270000E+03 0.  0.
    8880022    1    1    2    0    0 -0.33239041954E+03 -0.28870480895E+03  0.18201719884E+03  0.50035564492E+03  0.15294330000E+03 0.  0.
<mgrwt>
<rscale>  0 0.69383529E+03</rscale>
<asrwt>0</asrwt>
<pdfrwt beam="1">  1        2 0.11806551E+00 0.79223990E+03</pdfrwt>
<pdfrwt beam="2">  1       -2 0.92177675E-01 0.79223990E+03</pdfrwt>
<totfact> 0.36760364E+01</totfact>
</mgrwt>
</event>
<event>
 4    2  0.2930016E-007  0.1627089E+04  0.7818608E-02  0.8824745E-01
         -2   -1    0    0    0  501 -0.00000000000E+00  0.00000000000E+00  0.21205333274E+04  0.21205333274E+04  0.25500000000E-02 0.  1.
          2   -1    0    0  501    0  0.00000000000E+00 -0.00000000000E+00 -0.13716237977E+04  0.13716237977E+04  0.25500000000E-02 0. -1.
    8880023    1    1    2    0    0 -0.76435099070E+03 -0.12764701150E+04 -0.31421975447E+03  0.16571519700E+04  0.65864270000E+03 0.  0.
    8880022    1    1    2    0    0  0.76435099070E+03  0.12764701150E+04  0.10631292842E+04  0.18350051551E+04  0.15294330000E+03 0.  0.
<mgrwt>
<rscale>  0 0.15931869E+04</rscale>
<asrwt>0</asrwt>
<pdfrwt beam="1">  1        2 0.21101905E+00 0.16270890E+04</pdfrwt>
<pdfrwt beam="2">  1       -2 0.32623590E+00 0.16270890E+04</pdfrwt>
<totfact> 0.30627808E-01</totfact>
</mgrwt>
</event>
<event>
 4    2  0.2930016E-007  0.1085046E+04  0.7818608E-02  0.9277892E-01
          2   -1    0    0  501    0  0.00000000000E+00  0.00000000000E+00  0.32389530858E+04  0.32389530858E+04  0.25500000000E-02 0. -1.
         -2   -1    0    0    0  501 -0.00000000000E+00 -0.00000000000E+00 -0.99478569025E+03  0.99478569025E+03  0.25500000000E-02 0.  1.
    8880023    1    1    2    0    0  0.86223764536E+03 -0.77319340870E+01  0.29280408313E+04  0.31226185895E+04  0.65864270000E+03 0. -1.
    8880022    1    1    2    0    0 -0.86223764536E+03  0.77319340870E+01 -0.68387343569E+03  0.11111201865E+04  0.15294330000E+03 0.  0.
<mgrwt>
<rscale>  0 0.10284393E+04</rscale>
<asrwt>0</asrwt>
<pdfrwt beam="1">  1        2 0.49830048E+00 0.10850455E+04</pdfrwt>
<pdfrwt beam="2">  1       -2 0.15304395E+00 0.10850455E+04</pdfrwt>
<totfact> 0.34987106E-01</totfact>
</mgrwt>
</event>
<event>
 4    2  0.2930016E-007  0.7225444E+03  0.7818608E-02  0.9914069E-01
          2   -1    0    0  501    0  0.00000000000E+00  0.00000000000E+00  0.12699692614E+04  0.12699692614E+04  0.25500000000E-02 0. -1.
         -2   -1    0    0    0  501 -0.00000000000E+00 -0.00000000000E+00 -0.30253020981E+03  0.30253020982E+03  0.25500000000E-02 0.  1.
    8880023    1    1    2    0    0 -0.27781120432E+03  0.10526695413E+03  0.10033421149E+04  0.12364326924E+04  0.65864270000E+03 0. -1.
    8880022    1    1    2    0    0  0.27781120432E+03 -0.10526695413E+03 -0.35903063342E+02  0.33606677886E+03  0.15294330000E+03 0.  0.
<mgrwt>
<rscale>  0 0.59584273E+03</rscale>
<asrwt>0</asrwt>
<pdfrwt beam="1">  1        2 0.19537988E+00 0.72254440E+03</pdfrwt>
<pdfrwt beam="2">  1       -2 0.46543110E-01 0.72254440E+03</pdfrwt>
<totfact> 0.76812493E+01</totfact>
</mgrwt>
</event>
<event>
 4    2  0.2930016E-007  0.7473507E+03  0.7818608E-02  0.9839030E-01
         -2   -1    0    0    0  501 -0.00000000000E+00  0.00000000000E+00  0.38857440258E+03  0.38857440259E+03  0.25500000000E-02 0.  1.
          2   -1    0    0  501    0  0.00000000000E+00 -0.00000000000E+00 -0.19689096542E+04  0.19689096542E+04  0.25500000000E-02 0. -1.
    8880023    1    1    2    0    0  0.27399545065E+02  0.35209686015E+03 -0.17752031954E+04  0.19261047545E+04  0.65864270000E+03 0.  0.
    8880022    1    1    2    0    0 -0.27399545065E+02 -0.35209686015E+03  0.19486794373E+03  0.43137930236E+03  0.15294330000E+03 0.  0.
<mgrwt>
<rscale>  0 0.63309383E+03</rscale>
<asrwt>0</asrwt>
<pdfrwt beam="1">  1        2 0.30290917E+00 0.74735075E+03</pdfrwt>
<pdfrwt beam="2">  1       -2 0.59780679E-01 0.74735075E+03</pdfrwt>
<totfact> 0.18762232E+01</totfact>
</mgrwt>
</event>
<event>
 4    2  0.2930016E-007  0.7432635E+03  0.7818608E-02  0.9850541E-01
         -2   -1    0    0    0  501 -0.00000000000E+00  0.00000000000E+00  0.37291259368E+03  0.37291259369E+03  0.25500000000E-02 0.  1.
          2   -1    0    0  501    0  0.00000000000E+00 -0.00000000000E+00 -0.86291954014E+03  0.86291954014E+03  0.25500000000E-02 0. -1.
    8880023    1    1    2    0    0 -0.17197699459E+03 -0.29841968331E+03 -0.41605128088E+03  0.85178592888E+03  0.65864270000E+03 0. -1.
    8880022    1    1    2    0    0  0.17197699459E+03  0.29841968331E+03 -0.73955665578E+02  0.38404620495E+03  0.15294330000E+03 0. -1.
<mgrwt>
<rscale>  0 0.62719353E+03</rscale>
<asrwt>0</asrwt>
<pdfrwt beam="1">  1        2 0.13275685E+00 0.74326348E+03</pdfrwt>
<pdfrwt beam="2">  1       -2 0.57371168E-01 0.74326348E+03</pdfrwt>
<totfact> 0.89683303E+01</totfact>
</mgrwt>
</event>
<event>
 4    2  0.2930016E-007  0.6688342E+03  0.7818608E-02  0.1016513E+00
          2   -1    0    0  501    0  0.00000000000E+00  0.00000000000E+00  0.17670558834E+03  0.17670558836E+03  0.25500000000E-02 0. -1.
         -2   -1    0    0    0  501 -0.00000000000E+00 -0.00000000000E+00 -0.23407284984E+04  0.23407284984E+04  0.25500000000E-02 0.  1.
    8880023    1    1    2    0    0  0.11553858402E+03 -0.13411718664E+02 -0.48186610896E+03  0.82433863904E+03  0.65864270000E+03 0. -1.
    8880022    1    1    2    0    0 -0.11553858402E+03  0.13411718664E+02 -0.16821568011E+04  0.16930954477E+04  0.15294330000E+03 0.  0.
<mgrwt>
<rscale>  0 0.48966335E+03</rscale>
<asrwt>0</asrwt>
<pdfrwt beam="1">  1        2 0.27185477E-01 0.66883424E+03</pdfrwt>
<pdfrwt beam="2">  1       -2 0.36011206E+00 0.66883424E+03</pdfrwt>
<totfact> 0.28501690E+00</totfact>
</mgrwt>
</event>
<event>
 4    2  0.2930016E-007  0.7388090E+03  0.7818608E-02  0.9863430E-01
          2   -1    0    0  501    0  0.00000000000E+00  0.00000000000E+00  0.57280862886E+03  0.57280862887E+03  0.25500000000E-02 0. -1.
         -2   -1    0    0    0  501 -0.00000000000E+00 -0.00000000000E+00 -0.78453630456E+03  0.78453630457E+03  0.25500000000E-02 0.  1.
    8880023    1    1    2    0    0 -0.31398636903E+03  0.11593550816E+03  0.23804548507E+03  0.77621153123E+03  0.65864270000E+03 0. -1.
    8880022    1    1    2    0    0  0.31398636903E+03 -0.11593550816E+03 -0.44977316077E+03  0.58113340220E+03  0.15294330000E+03 0.  1.
<mgrwt>
<rscale>  0 0.62066824E+03</rscale>
<asrwt>0</asrwt>
<pdfrwt beam="1">  1        2 0.88124405E-01 0.73880897E+03</pdfrwt>
<pdfrwt beam="2">  1       -2 0.12069789E+00 0.73880897E+03</pdfrwt>
<totfact> 0.27825676E+01</totfact>
</mgrwt>
</event>
<event>
 4    2  0.2930016E-007  0.8712604E+03  0.7818608E-02  0.9573839E-01
         -2   -1    0    0    0  501 -0.00000000000E+00  0.00000000000E+00  0.31134945142E+03  0.31134945143E+03  0.25500000000E-02 0.  1.
          2   -1    0    0  501    0  0.00000000000E+00 -0.00000000000E+00 -0.39780257473E+04  0.39780257473E+04  0.25500000000E-02 0. -1.
    8880023    1    1    2    0    0 -0.55926005263E+03  0.11186022349E+03 -0.35896661577E+04  0.36938865502E+04  0.65864270000E+03 0. -1.
    8880022    1    1    2    0    0  0.55926005263E+03 -0.11186022349E+03 -0.77010138170E+02  0.59548864847E+03  0.15294330000E+03 0.  0.
<mgrwt>
<rscale>  0 0.79052166E+03</rscale>
<asrwt>0</asrwt>
<pdfrwt beam="1">  1        2 0.61200393E+00 0.87126042E+03</pdfrwt>
<pdfrwt beam="2">  1       -2 0.47899918E-01 0.87126042E+03</pdfrwt>
<totfact> 0.15894880E+00</totfact>
</mgrwt>
</event>
<event>
 4    2  0.2935346E-007  0.9926009E+03  0.7818608E-02  0.9391303E-01
          2   -1    0    0  501    0  0.00000000000E+00  0.00000000000E+00  0.22191473978E+04  0.22191473978E+04  0.25500000000E-02 0. -1.
         -2   -1    0    0    0  501 -0.00000000000E+00 -0.00000000000E+00 -0.12757786463E+04  0.12757786463E+04  0.25500000000E-02 0.  1.
    8880023    1    1    2    0    0  0.16546038280E+03  0.72392617882E+03  0.19774999373E+04  0.22126369921E+04  0.65864270000E+03 0.  0.
    8880022    1    1    2    0    0 -0.16546038280E+03 -0.72392617882E+03 -0.10341311857E+04  0.12822890520E+04  0.15294330000E+03 0.  0.
<mgrwt>
<rscale>  0 0.92794911E+03</rscale>
<asrwt>0</asrwt>
<pdfrwt beam="1">  1        2 0.34140729E+00 0.99260085E+03</pdfrwt>
<pdfrwt beam="2">  1       -2 0.19627364E+00 0.99260085E+03</pdfrwt>
<totfact> 0.71096096E-01</totfact>
</mgrwt>
</event>
<event>
 4    2  0.2930016E-007  0.9747528E+03  0.7818608E-02  0.9415361E-01
          2   -1    0    0  501    0  0.00000000000E+00  0.00000000000E+00  0.40578136963E+04  0.40578136963E+04  0.25500000000E-02 0. -1.
         -2   -1    0    0    0  501 -0.00000000000E+00 -0.00000000000E+00 -0.18944716456E+03  0.18944716458E+03  0.25500000000E-02 0.  1.
    8880023    1    1    2    0    0  0.71856070227E+03  0.18147007727E+01  0.26613893033E+04  0.28342787453E+04  0.65864270000E+03 0.  0.
    8880022    1    1    2    0    0 -0.71856070227E+03 -0.18147007727E+01  0.12069772284E+04  0.14129821155E+04  0.15294330000E+03 0.  0.
<mgrwt>
<rscale>  0 0.90822274E+03</rscale>
<asrwt>0</asrwt>
<pdfrwt beam="1">  1        2 0.62427900E+00 0.97475278E+03</pdfrwt>
<pdfrwt beam="2">  1       -2 0.29145719E-01 0.97475278E+03</pdfrwt>
<totfact> 0.35215438E+00</totfact>
</mgrwt>
</event>
<event>
 4    2  0.2930016E-007  0.1059481E+04  0.7818608E-02  0.9307570E-01
         -2   -1    0    0    0  501 -0.00000000000E+00  0.00000000000E+00  0.33598777687E+03  0.33598777688E+03  0.25500000000E-02 0.  1.
          2   -1    0    0  501    0  0.00000000000E+00 -0.00000000000E+00 -0.28460574436E+04  0.28460574436E+04  0.25500000000E-02 0. -1.
    8880023    1    1    2    0    0  0.82969977774E+03 -0.16958608649E+02 -0.10260339390E+04  0.14748712371E+04  0.65864270000E+03 0.  0.
    8880022    1    1    2    0    0 -0.82969977774E+03  0.16958608649E+02 -0.14840357277E+04  0.17071739834E+04  0.15294330000E+03 0.  0.
<mgrwt>
<rscale>  0 0.10008892E+04</rscale>
<asrwt>0</asrwt>
<pdfrwt beam="1">  1        2 0.43785498E+00 0.10594808E+04</pdfrwt>
<pdfrwt beam="2">  1       -2 0.51690429E-01 0.10594808E+04</pdfrwt>
<totfact> 0.77526895E+00</totfact>
</mgrwt>
</event>
<event>
 4    2  0.2930016E-007  0.7781149E+03  0.7818608E-02  0.9760284E-01
         -2   -1    0    0    0  501 -0.00000000000E+00  0.00000000000E+00  0.14036770094E+03  0.14036770096E+03  0.25500000000E-02 0.  1.
          2   -1    0    0  501    0  0.00000000000E+00 -0.00000000000E+00 -0.26499330163E+04  0.26499330163E+04  0.25500000000E-02 0. -1.
    8880023    1    1    2    0    0 -0.21294833920E+03 -0.35539503385E+03 -0.16095926687E+04  0.17878063068E+04  0.65864270000E+03 0. -1.
    8880022    1    1    2    0    0  0.21294833920E+03  0.35539503385E+03 -0.89997264673E+03  0.10024944105E+04  0.15294330000E+03 0.  1.
<mgrwt>
<rscale>  0 0.67538197E+03</rscale>
<asrwt>0</asrwt>
<pdfrwt beam="1">  1        2 0.40768196E+00 0.77811492E+03</pdfrwt>
<pdfrwt beam="2">  1       -2 0.21595033E-01 0.77811492E+03</pdfrwt>
<totfact> 0.55145394E+01</totfact>
</mgrwt>
</event>
<event>
 4    2  0.2930016E-007  0.6701287E+03  0.7818608E-02  0.1015571E+00
          2   -1    0    0  501    0  0.00000000000E+00  0.00000000000E+00  0.15093584693E+04  0.15093584693E+04  0.25500000000E-02 0. -1.
         -2   -1    0    0    0  501 -0.00000000000E+00 -0.00000000000E+00 -0.14434710853E+03  0.14434710855E+03  0.25500000000E-02 0.  1.
    8880023    1    1    2    0    0 -0.10616790958E+03  0.63171105473E+02  0.12686315723E+04  0.14347468369E+04  0.65864270000E+03 0. -1.
    8880022    1    1    2    0    0  0.10616790958E+03 -0.63171105473E+02  0.96379788516E+02  0.21895874095E+03  0.15294330000E+03 0.  0.
<mgrwt>
<rscale>  0 0.49319397E+03</rscale>
<asrwt>0</asrwt>
<pdfrwt beam="1">  1        2 0.23220899E+00 0.67012866E+03</pdfrwt>
<pdfrwt beam="2">  1       -2 0.22207248E-01 0.67012866E+03</pdfrwt>
<totfact> 0.22697070E+02</totfact>
</mgrwt>
</event>
<event>
 4    2  0.2930016E-007  0.8436202E+03  0.7818608E-02  0.9623391E-01
          2   -1    0    0  501    0  0.00000000000E+00  0.00000000000E+00  0.40535345951E+04  0.40535345951E+04  0.25500000000E-02 0. -1.
         -2   -1    0    0    0  501 -0.00000000000E+00 -0.00000000000E+00 -0.29179442492E+03  0.29179442493E+03  0.25500000000E-02 0.  1.
    8880023    1    1    2    0    0  0.48979938938E+02  0.52486746114E+03  0.36977058424E+04  0.37927198142E+04  0.65864270000E+03 0. -1.
    8880022    1    1    2    0    0 -0.48979938938E+02 -0.52486746114E+03  0.64034327788E+02  0.55260920579E+03  0.15294330000E+03 0.  0.
<mgrwt>
<rscale>  0 0.75767142E+03</rscale>
<asrwt>0</asrwt>
<pdfrwt beam="1">  1        2 0.62362068E+00 0.84362023E+03</pdfrwt>
<pdfrwt beam="2">  1       -2 0.44891452E-01 0.84362023E+03</pdfrwt>
<totfact> 0.15862470E+00</totfact>
</mgrwt>
</event>
<event>
 4    2  0.2930016E-007  0.7148470E+03  0.7818608E-02  0.9940424E-01
         -2   -1    0    0    0  501 -0.00000000000E+00  0.00000000000E+00  0.14216648402E+03  0.14216648405E+03  0.25500000000E-02 0.  1.
          2   -1    0    0  501    0  0.00000000000E+00 -0.00000000000E+00 -0.38410593081E+04  0.38410593081E+04  0.25500000000E-02 0. -1.
    8880023    1    1    2    0    0 -0.14458006713E+03  0.23726074548E+03 -0.35700219044E+04  0.36408876200E+04  0.65864270000E+03 0. -1.
    8880022    1    1    2    0    0  0.14458006713E+03 -0.23726074548E+03 -0.12887091964E+03  0.34233817213E+03  0.15294330000E+03 0.  0.
<mgrwt>
<rscale>  0 0.58341548E+03</rscale>
<asrwt>0</asrwt>
<pdfrwt beam="1">  1        2 0.59093212E+00 0.71484702E+03</pdfrwt>
<pdfrwt beam="2">  1       -2 0.21871770E-01 0.71484702E+03</pdfrwt>
<totfact> 0.91737825E+00</totfact>
</mgrwt>
</event>
<event>
 4    2  0.2930016E-007  0.7153714E+03  0.7818608E-02  0.9938571E-01
          2   -1    0    0  501    0  0.00000000000E+00  0.00000000000E+00  0.33411096438E+03  0.33411096438E+03  0.25500000000E-02 0. -1.
         -2   -1    0    0    0  501 -0.00000000000E+00 -0.00000000000E+00 -0.20176652791E+04  0.20176652791E+04  0.25500000000E-02 0.  1.
    8880023    1    1    2    0    0  0.27912774350E+03  0.58047711550E+01 -0.83344792857E+02  0.72021007583E+03  0.65864270000E+03 0. -1.
    8880022    1    1    2    0    0 -0.27912774350E+03 -0.58047711550E+01 -0.16002095219E+04  0.16315661677E+04  0.15294330000E+03 0.  0.
<mgrwt>
<rscale>  0 0.58427865E+03</rscale>
<asrwt>0</asrwt>
<pdfrwt beam="1">  1        2 0.51401688E-01 0.71537137E+03</pdfrwt>
<pdfrwt beam="2">  1       -2 0.31041004E+00 0.71537137E+03</pdfrwt>
<totfact> 0.27989583E+00</totfact>
</mgrwt>
</event>
<event>
 4    2  0.2930016E-007  0.1146078E+04  0.7818608E-02  0.9211409E-01
          2   -1    0    0  501    0  0.00000000000E+00  0.00000000000E+00  0.17339021426E+04  0.17339021426E+04  0.25500000000E-02 0. -1.
         -2   -1    0    0    0  501 -0.00000000000E+00 -0.00000000000E+00 -0.71988282919E+03  0.71988282920E+03  0.25500000000E-02 0.  1.
    8880023    1    1    2    0    0  0.71198926770E+03  0.61053741034E+03  0.97166151044E+03  0.15025381672E+04  0.65864270000E+03 0. -1.
    8880022    1    1    2    0    0 -0.71198926770E+03 -0.61053741034E+03  0.42357802941E+02  0.95124680458E+03  0.15294330000E+03 0.  1.
<mgrwt>
<rscale>  0 0.10936446E+04</rscale>
<asrwt>0</asrwt>
<pdfrwt beam="1">  1        2 0.26675417E+00 0.11460780E+04</pdfrwt>
<pdfrwt beam="2">  1       -2 0.11075121E+00 0.11460780E+04</pdfrwt>
<totfact> 0.59557803E+00</totfact>
</mgrwt>
</event>
<event>
 4    2  0.3009538E-007  0.8577250E+03  0.7818608E-02  0.9597623E-01
         -2   -1    0    0    0  501 -0.00000000000E+00  0.00000000000E+00  0.12258905761E+04  0.12258905761E+04  0.25500000000E-02 0.  1.
          2   -1    0    0  501    0  0.00000000000E+00 -0.00000000000E+00 -0.13891721412E+04  0.13891721412E+04  0.25500000000E-02 0. -1.
    8880023    1    1    2    0    0 -0.33662220427E+03 -0.43424353221E+03 -0.11743488371E+04  0.14542308452E+04  0.65864270000E+03 0. -1.
    8880022    1    1    2    0    0  0.33662220427E+03  0.43424353221E+03  0.10110672720E+04  0.11608318721E+04  0.15294330000E+03 0.  0.
<mgrwt>
<rscale>  0 0.77453697E+03</rscale>
<asrwt>0</asrwt>
<pdfrwt beam="1">  1        2 0.21371879E+00 0.85772499E+03</pdfrwt>
<pdfrwt beam="2">  1       -2 0.18859855E+00 0.85772499E+03</pdfrwt>
<totfact> 0.23518261E+00</totfact>
</mgrwt>
</event>
<event>
 4    2  0.2930016E-007  0.1628785E+04  0.7818608E-02  0.8823673E-01
         -2   -1    0    0    0  501 -0.00000000000E+00  0.00000000000E+00  0.15985160874E+04  0.15985160874E+04  0.25500000000E-02 0.  1.
          2   -1    0    0  501    0  0.00000000000E+00 -0.00000000000E+00 -0.19348936390E+04  0.19348936390E+04  0.25500000000E-02 0. -1.
    8880023    1    1    2    0    0  0.12881374329E+04 -0.74821884399E+03  0.63528321097E+03  0.17482918661E+04  0.65864270000E+03 0. -1.
    8880022    1    1    2    0    0 -0.12881374329E+04  0.74821884399E+03 -0.97166076260E+03  0.17851178603E+04  0.15294330000E+03 0.  0.
<mgrwt>
<rscale>  0 0.15949234E+04</rscale>
<asrwt>0</asrwt>
<pdfrwt beam="1">  1        2 0.29767594E+00 0.16287847E+04</pdfrwt>
<pdfrwt beam="2">  1       -2 0.24592555E+00 0.16287847E+04</pdfrwt>
<totfact> 0.45761703E-01</totfact>
</mgrwt>
</event>
<event>
 4    2  0.2930016E-007  0.9382666E+03  0.7818608E-02  0.9467201E-01
         -2   -1    0    0    0  501 -0.00000000000E+00  0.00000000000E+00  0.48444139574E+03  0.48444139574E+03  0.25500000000E-02 0.  1.
          2   -1    0    0  501    0  0.00000000000E+00 -0.00000000000E+00 -0.15528482345E+04  0.15528482345E+04  0.25500000000E-02 0. -1.
    8880023    1    1    2    0    0  0.51895363347E+03  0.42097636330E+03 -0.96159621110E+03  0.13435071461E+04  0.65864270000E+03 0. -1.
    8880022    1    1    2    0    0 -0.51895363347E+03 -0.42097636330E+03 -0.10681062768E+03  0.69378248417E+03  0.15294330000E+03 0.  1.
<mgrwt>
<rscale>  0 0.86745774E+03</rscale>
<asrwt>0</asrwt>
<pdfrwt beam="1">  1        2 0.23889973E+00 0.93826658E+03</pdfrwt>
<pdfrwt beam="2">  1       -2 0.74529446E-01 0.93826658E+03</pdfrwt>
<totfact> 0.19265807E+01</totfact>
</mgrwt>
</event>
<event>
 4    2  0.2930016E-007  0.7001722E+03  0.7818608E-02  0.9996488E-01
         -2   -1    0    0    0  501 -0.00000000000E+00  0.00000000000E+00  0.67748731636E+03  0.67748731637E+03  0.25500000000E-02 0.  1.
          2   -1    0    0  501    0  0.00000000000E+00 -0.00000000000E+00 -0.36622148558E+03  0.36622148559E+03  0.25500000000E-02 0. -1.
    8880023    1    1    2    0    0  0.20093489924E+03  0.12671259637E+03  0.14222481734E+03  0.71447114759E+03  0.65864270000E+03 0. -1.
    8880022    1    1    2    0    0 -0.20093489924E+03 -0.12671259637E+03  0.16904101344E+03  0.32923765437E+03  0.15294330000E+03 0.  0.
<mgrwt>
<rscale>  0 0.55804518E+03</rscale>
<asrwt>0</asrwt>
<pdfrwt beam="1">  1        2 0.56341767E-01 0.70017221E+03</pdfrwt>
<pdfrwt beam="2">  1       -2 0.10422882E+00 0.70017221E+03</pdfrwt>
<totfact> 0.66604213E+01</totfact>
</mgrwt>
</event>
<event>
 4    2  0.2930016E-007  0.8333982E+03  0.7818608E-02  0.9642756E-01
         -2   -1    0    0    0  501 -0.00000000000E+00  0.00000000000E+00  0.62201973392E+03  0.62201973392E+03  0.25500000000E-02 0.  1.
          2   -1    0    0  501    0  0.00000000000E+00 -0.00000000000E+00 -0.92718962980E+03  0.92718962980E+03  0.25500000000E-02 0. -1.
    8880023    1    1    2    0    0  0.27438936480E+03 -0.43064229806E+03 -0.51125138158E+03  0.97771698043E+03  0.65864270000E+03 0. -1.
    8880022    1    1    2    0    0 -0.27438936480E+03  0.43064229806E+03  0.20608148571E+03  0.57149238329E+03  0.15294330000E+03 0.  0.
<mgrwt>
<rscale>  0 0.74529774E+03</rscale>
<asrwt>0</asrwt>
<pdfrwt beam="1">  1        2 0.14264456E+00 0.83339818E+03</pdfrwt>
<pdfrwt beam="2">  1       -2 0.95695344E-01 0.83339818E+03</pdfrwt>
<totfact> 0.25957271E+01</totfact>
</mgrwt>
</event>
<event>
 4    2  0.2930016E-007  0.9153111E+03  0.7818608E-02  0.9501886E-01
          2   -1    0    0  501    0  0.00000000000E+00  0.00000000000E+00  0.18024809770E+04  0.18024809770E+04  0.25500000000E-02 0. -1.
         -2   -1    0    0    0  501 -0.00000000000E+00 -0.00000000000E+00 -0.13736849097E+04  0.13736849097E+04  0.25500000000E-02 0.  1.
    8880023    1    1    2    0    0  0.52323716837E+03 -0.36084206619E+03  0.15951459858E+04  0.18390989787E+04  0.65864270000E+03 0.  0.
    8880022    1    1    2    0    0 -0.52323716837E+03  0.36084206619E+03 -0.11663499185E+04  0.13370669080E+04  0.15294330000E+03 0.  0.
<mgrwt>
<rscale>  0 0.84144895E+03</rscale>
<asrwt>0</asrwt>
<pdfrwt beam="1">  1        2 0.27730476E+00 0.91531106E+03</pdfrwt>
<pdfrwt beam="2">  1       -2 0.21133614E+00 0.91531106E+03</pdfrwt>
<totfact> 0.97550656E-01</totfact>
</mgrwt>
</event>
<event>
 4    2  0.2930016E-007  0.8051812E+03  0.7818608E-02  0.9699703E-01
          2   -1    0    0  501    0  0.00000000000E+00  0.00000000000E+00  0.13003825054E+04  0.13003825054E+04  0.25500000000E-02 0. -1.
         -2   -1    0    0    0  501 -0.00000000000E+00 -0.00000000000E+00 -0.60997360700E+03  0.60997360701E+03  0.25500000000E-02 0.  1.
    8880023    1    1    2    0    0 -0.25855871299E+03  0.38425763572E+03  0.10363521086E+04  0.13123804471E+04  0.65864270000E+03 0. -1.
    8880022    1    1    2    0    0  0.25855871299E+03 -0.38425763572E+03 -0.34594321016E+03  0.59797566534E+03  0.15294330000E+03 0.  0.
<mgrwt>
<rscale>  0 0.71034464E+03</rscale>
<asrwt>0</asrwt>
<pdfrwt beam="1">  1        2 0.20005885E+00 0.80518119E+03</pdfrwt>
<pdfrwt beam="2">  1       -2 0.93842093E-01 0.80518119E+03</pdfrwt>
<totfact> 0.16074473E+01</totfact>
</mgrwt>
</event>
<event>
 4    2  0.2930016E-007  0.6912630E+03  0.7818608E-02  0.1003558E+00
         -2   -1    0    0    0  501 -0.00000000000E+00  0.00000000000E+00  0.36895423324E+03  0.36895423325E+03  0.25500000000E-02 0.  1.
          2   -1    0    0  501    0  0.00000000000E+00 -0.00000000000E+00 -0.74049735042E+03  0.74049735042E+03  0.25500000000E-02 0. -1.
    8880023    1    1    2    0    0  0.18081649127E+03  0.10648812727E+03 -0.46541432707E+03  0.83333968276E+03  0.65864270000E+03 0. -1.
    8880022    1    1    2    0    0 -0.18081649127E+03 -0.10648812727E+03  0.93871209888E+02  0.27611190091E+03  0.15294330000E+03 0.  0.
<mgrwt>
<rscale>  0 0.54117271E+03</rscale>
<asrwt>0</asrwt>
<pdfrwt beam="1">  1        2 0.11392267E+00 0.69126300E+03</pdfrwt>
<pdfrwt beam="2">  1       -2 0.56762190E-01 0.69126300E+03</pdfrwt>
<totfact> 0.11269640E+02</totfact>
</mgrwt>
</event>
<event>
 4    2  0.2930016E-007  0.1283511E+04  0.7818608E-02  0.9079932E-01
          2   -1    0    0  501    0  0.00000000000E+00  0.00000000000E+00  0.13171938153E+04  0.13171938153E+04  0.25500000000E-02 0. -1.
         -2   -1    0    0    0  501 -0.00000000000E+00 -0.00000000000E+00 -0.23447040630E+04  0.23447040630E+04  0.25500000000E-02 0.  1.
    8880023    1    1    2    0    0  0.70058286645E+03 -0.85016043625E+03  0.80732143583E+03  0.15163005069E+04  0.65864270000E+03 0.  0.
    8880022    1    1    2    0    0 -0.70058286645E+03  0.85016043625E+03 -0.18348316836E+04  0.21455973714E+04  0.15294330000E+03 0.  0.
<mgrwt>
<rscale>  0 0.12383544E+04</rscale>
<asrwt>0</asrwt>
<pdfrwt beam="1">  1        2 0.20264520E+00 0.12835105E+04</pdfrwt>
<pdfrwt beam="2">  1       -2 0.36072370E+00 0.12835105E+04</pdfrwt>
<totfact> 0.20851406E-01</totfact>
</mgrwt>
</event>
<event>
 4    2  0.2930016E-007  0.6676912E+03  0.7818608E-02  0.1017375E+00
          2   -1    0    0  501    0  0.00000000000E+00  0.00000000000E+00  0.28818490913E+03  0.28818490914E+03  0.25500000000E-02 0. -1.
         -2   -1    0    0    0  501 -0.00000000000E+00 -0.00000000000E+00 -0.10074599664E+04  0.10074599664E+04  0.25500000000E-02 0.  1.
    8880023    1    1    2    0    0  0.10628978851E+03 -0.26529537619E+02 -0.13416961416E+03  0.68103819800E+03  0.65864270000E+03 0. -1.
    8880022    1    1    2    0    0 -0.10628978851E+03  0.26529537619E+02 -0.58510544315E+03  0.61460667758E+03  0.15294330000E+03 0.  0.
<mgrwt>
<rscale>  0 0.48645917E+03</rscale>
<asrwt>0</asrwt>
<pdfrwt beam="1">  1        2 0.44336140E-01 0.66769120E+03</pdfrwt>
<pdfrwt beam="2">  1       -2 0.15499384E+00 0.66769120E+03</pdfrwt>
<totfact> 0.32095382E+01</totfact>
</mgrwt>
</event>
<event>
 4    2  0.2930016E-007  0.8284583E+03  0.7818608E-02  0.9652340E-01
          2   -1    0    0  501    0  0.00000000000E+00  0.00000000000E+00  0.11368966962E+04  0.11368966962E+04  0.25500000000E-02 0. -1.
         -2   -1    0    0    0  501 -0.00000000000E+00 -0.00000000000E+00 -0.47004391062E+03  0.47004391063E+03  0.25500000000E-02 0.  1.
    8880023    1    1    2    0    0  0.22186707273E+03 -0.45089677024E+03  0.69432204737E+03  0.10809376518E+04  0.65864270000E+03 0.  0.
    8880022    1    1    2    0    0 -0.22186707273E+03  0.45089677024E+03 -0.27469261759E+02  0.52600295506E+03  0.15294330000E+03 0.  0.
<mgrwt>
<rscale>  0 0.73926777E+03</rscale>
<asrwt>0</asrwt>
<pdfrwt beam="1">  1        2 0.17490718E+00 0.82845827E+03</pdfrwt>
<pdfrwt beam="2">  1       -2 0.72314448E-01 0.82845827E+03</pdfrwt>
<totfact> 0.36155425E+01</totfact>
</mgrwt>
</event>
<event>
 4    2  0.2930016E-007  0.6679013E+03  0.7818608E-02  0.1017214E+00
          2   -1    0    0  501    0  0.00000000000E+00  0.00000000000E+00  0.25017270876E+04  0.25017270876E+04  0.25500000000E-02 0. -1.
         -2   -1    0    0    0  501 -0.00000000000E+00 -0.00000000000E+00 -0.73771627577E+02  0.73771627621E+02  0.25500000000E-02 0.  1.
    8880023    1    1    2    0    0 -0.29164141734E+02  0.10691785861E+03  0.18086333896E+04  0.19280163173E+04  0.65864270000E+03 0.  1.
    8880022    1    1    2    0    0  0.29164141734E+02 -0.10691785861E+03  0.61932207042E+03  0.64748239789E+03  0.15294330000E+03 0. -1.
<mgrwt>
<rscale>  0 0.48705459E+03</rscale>
<asrwt>0</asrwt>
<pdfrwt beam="1">  1        2 0.38488109E+00 0.66790133E+03</pdfrwt>
<pdfrwt beam="2">  1       -2 0.11349481E-01 0.66790133E+03</pdfrwt>
<totfact> 0.20288931E+02</totfact>
</mgrwt>
</event>
<event>
 4    2  0.2930016E-007  0.7757681E+03  0.7818608E-02  0.9765873E-01
          2   -1    0    0  501    0  0.00000000000E+00  0.00000000000E+00  0.29695860454E+03  0.29695860455E+03  0.25500000000E-02 0. -1.
         -2   -1    0    0    0  501 -0.00000000000E+00 -0.00000000000E+00 -0.23331419554E+04  0.23331419554E+04  0.25500000000E-02 0.  1.
    8880023    1    1    2    0    0  0.20488856738E+02 -0.40937287114E+03 -0.28718994988E+03  0.82722077733E+03  0.65864270000E+03 0. -1.
    8880022    1    1    2    0    0 -0.20488856738E+02  0.40937287114E+03 -0.17489934010E+04  0.18028797826E+04  0.15294330000E+03 0.  0.
<mgrwt>
<rscale>  0 0.67226577E+03</rscale>
<asrwt>0</asrwt>
<pdfrwt beam="1">  1        2 0.45685941E-01 0.77576810E+03</pdfrwt>
<pdfrwt beam="2">  1       -2 0.35894490E+00 0.77576810E+03</pdfrwt>
<totfact> 0.15921088E+00</totfact>
</mgrwt>
</event>
<event>
 4    2  0.2930016E-007  0.7795063E+03  0.7818608E-02  0.9756998E-01
         -2   -1    0    0    0  501 -0.00000000000E+00  0.00000000000E+00  0.23490601108E+03  0.23490601109E+03  0.25500000000E-02 0.  1.
          2   -1    0    0  501    0  0.00000000000E+00 -0.00000000000E+00 -0.21687094788E+04  0.21687094788E+04  0.25500000000E-02 0. -1.
    8880023    1    1    2    0    0  0.34509698854E+02 -0.41548636529E+03 -0.17633148570E+04  0.19279287669E+04  0.65864270000E+03 0. -1.
    8880022    1    1    2    0    0 -0.34509698854E+02  0.41548636529E+03 -0.17048861077E+03  0.47568672304E+03  0.15294330000E+03 0.  0.
<mgrwt>
<rscale>  0 0.67722229E+03</rscale>
<asrwt>0</asrwt>
<pdfrwt beam="1">  1        2 0.33364760E+00 0.77950628E+03</pdfrwt>
<pdfrwt beam="2">  1       -2 0.36139388E-01 0.77950628E+03</pdfrwt>
<totfact> 0.39920119E+01</totfact>
</mgrwt>
</event>
<event>
 4    2  0.2930016E-007  0.7426727E+03  0.7818608E-02  0.9852229E-01
         -2   -1    0    0    0  501 -0.00000000000E+00  0.00000000000E+00  0.41930261384E+03  0.41930261384E+03  0.25500000000E-02 0.  1.
          2   -1    0    0  501    0  0.00000000000E+00 -0.00000000000E+00 -0.10629817987E+04  0.10629817987E+04  0.25500000000E-02 0. -1.
    8880023    1    1    2    0    0 -0.83295759959E+02 -0.33288798494E+03 -0.78523150899E+03  0.10808104936E+04  0.65864270000E+03 0. -1.
    8880022    1    1    2    0    0  0.83295759959E+02  0.33288798494E+03  0.14155232409E+03  0.40147391897E+03  0.15294330000E+03 0.  0.
<mgrwt>
<rscale>  0 0.62633403E+03</rscale>
<asrwt>0</asrwt>
<pdfrwt beam="1">  1        2 0.16353566E+00 0.74267274E+03</pdfrwt>
<pdfrwt beam="2">  1       -2 0.64508095E-01 0.74267274E+03</pdfrwt>
<totfact> 0.51831888E+01</totfact>
</mgrwt>
</event>
<event>
 4    2  0.3560929E-007  0.7365537E+03  0.7818608E-02  0.9870102E-01
         -2   -1    0    0    0  501 -0.00000000000E+00  0.00000000000E+00  0.98635871897E+03  0.98635871898E+03  0.25500000000E-02 0.  1.
          2   -1    0    0  501    0  0.00000000000E+00 -0.00000000000E+00 -0.24391892572E+04  0.24391892572E+04  0.25500000000E-02 0. -1.
    8880023    1    1    2    0    0 -0.29155148745E+01  0.32968560636E+03 -0.23472527924E+04  0.24601030419E+04  0.65864270000E+03 0. -1.
    8880022    1    1    2    0    0  0.29155148745E+01 -0.32968560636E+03  0.89442225417E+03  0.96544493424E+03  0.15294330000E+03 0.  0.
<mgrwt>
<rscale>  0 0.61732401E+03</rscale>
<asrwt>0</asrwt>
<pdfrwt beam="1">  1        2 0.37525988E+00 0.73655367E+03</pdfrwt>
<pdfrwt beam="2">  1       -2 0.15174750E+00 0.73655367E+03</pdfrwt>
<totfact> 0.11553884E+00</totfact>
</mgrwt>
</event>
<event>
 4    2  0.2930016E-007  0.6619532E+03  0.7818608E-02  0.1022239E+00
          2   -1    0    0  501    0  0.00000000000E+00  0.00000000000E+00  0.14998490248E+04  0.14998490248E+04  0.25500000000E-02 0. -1.
         -2   -1    0    0    0  501 -0.00000000000E+00 -0.00000000000E+00 -0.12605654917E+03  0.12605654920E+03  0.25500000000E-02 0.  1.
    8880023    1    1    2    0    0  0.58302278809E+02  0.31188537995E+02  0.12625565865E+04  0.14255634749E+04  0.65864270000E+03 0. -1.
    8880022    1    1    2    0    0 -0.58302278809E+02 -0.31188537995E+02  0.11123588908E+03  0.20034209905E+03  0.15294330000E+03 0. -1.
<mgrwt>
<rscale>  0 0.46887257E+03</rscale>
<asrwt>0</asrwt>
<pdfrwt beam="1">  1        2 0.23074600E+00 0.66195324E+03</pdfrwt>
<pdfrwt beam="2">  1       -2 0.19393316E-01 0.66195324E+03</pdfrwt>
<totfact> 0.29161005E+02</totfact>
</mgrwt>
</event>
<event>
 4    2  0.2930016E-007  0.7295494E+03  0.7818608E-02  0.9891507E-01
          2   -1    0    0  501    0  0.00000000000E+00  0.00000000000E+00  0.15948200925E+04  0.15948200925E+04  0.25500000000E-02 0. -1.
         -2   -1    0    0    0  501 -0.00000000000E+00 -0.00000000000E+00 -0.50045475508E+03  0.50045475509E+03  0.25500000000E-02 0.  1.
    8880023    1    1    2    0    0 -0.23681330597E+03 -0.20579499734E+03  0.14335945940E+04  0.16085508351E+04  0.65864270000E+03 0. -1.
    8880022    1    1    2    0    0  0.23681330597E+03  0.20579499734E+03 -0.33922925659E+03  0.48672401251E+03  0.15294330000E+03 0.  0.
<mgrwt>
<rscale>  0 0.60674686E+03</rscale>
<asrwt>0</asrwt>
<pdfrwt beam="1">  1        2 0.24535694E+00 0.72954940E+03</pdfrwt>
<pdfrwt beam="2">  1       -2 0.76993040E-01 0.72954940E+03</pdfrwt>
<totfact> 0.17394297E+01</totfact>
</mgrwt>
</event>
<event>
 4    2  0.2930016E-007  0.7089212E+03  0.7818608E-02  0.9962029E-01
          2   -1    0    0  501    0  0.00000000000E+00  0.00000000000E+00  0.14162185529E+04  0.14162185529E+04  0.25500000000E-02 0. -1.
         -2   -1    0    0    0  501 -0.00000000000E+00 -0.00000000000E+00 -0.72245807595E+03  0.72245807596E+03  0.25500000000E-02 0.  1.
    8880023    1    1    2    0    0  0.55190295798E+02 -0.25634568597E+03  0.12886687352E+04  0.14707944774E+04  0.65864270000E+03 0. -1.
    8880022    1    1    2    0    0 -0.55190295798E+02  0.25634568597E+03 -0.59490825825E+03  0.66788215144E+03  0.15294330000E+03 0.  0.
<mgrwt>
<rscale>  0 0.57347016E+03</rscale>
<asrwt>0</asrwt>
<pdfrwt beam="1">  1        2 0.21787978E+00 0.70892121E+03</pdfrwt>
<pdfrwt beam="2">  1       -2 0.11114740E+00 0.70892121E+03</pdfrwt>
<totfact> 0.93391610E+00</totfact>
</mgrwt>
</event>
<event>
 4    2  0.2930016E-007  0.7393356E+03  0.7818608E-02  0.9861887E-01
          2   -1    0    0  501    0  0.00000000000E+00  0.00000000000E+00  0.36337495343E+03  0.36337495344E+03  0.25500000000E-02 0. -1.
         -2   -1    0    0    0  501 -0.00000000000E+00 -0.00000000000E+00 -0.85336605656E+03  0.85336605656E+03  0.25500000000E-02 0.  1.
    8880023    1    1    2    0    0 -0.13004866325E+03  0.30966799018E+03 -0.38213409585E+03  0.83225212071E+03  0.65864270000E+03 0.  0.
    8880022    1    1    2    0    0  0.13004866325E+03 -0.30966799018E+03 -0.10785700728E+03  0.38448888930E+03  0.15294330000E+03 0.  1.
<mgrwt>
<rscale>  0 0.62144512E+03</rscale>
<asrwt>0</asrwt>
<pdfrwt beam="1">  1        2 0.55903839E-01 0.73933560E+03</pdfrwt>
<pdfrwt beam="2">  1       -2 0.13128708E+00 0.73933560E+03</pdfrwt>
<totfact> 0.37986395E+01</totfact>
</mgrwt>
</event>
<event>
 4    2  0.2930016E-007  0.6729590E+03  0.7818608E-02  0.1013625E+00
          2   -1    0    0  501    0  0.00000000000E+00  0.00000000000E+00  0.13747032974E+04  0.13747032974E+04  0.25500000000E-02 0. -1.
         -2   -1    0    0    0  501 -0.00000000000E+00 -0.00000000000E+00 -0.32416549858E+03  0.32416549859E+03  0.25500000000E-02 0.  1.
    8880023    1    1    2    0    0 -0.60099313871E+02  0.12430470914E+03  0.12451977466E+04  0.14154120328E+04  0.65864270000E+03 0. -1.
    8880022    1    1    2    0    0  0.60099313871E+02 -0.12430470914E+03 -0.19465994785E+03  0.28345676311E+03  0.15294330000E+03 0.  0.
<mgrwt>
<rscale>  0 0.50059080E+03</rscale>
<asrwt>0</asrwt>
<pdfrwt beam="1">  1        2 0.21149282E+00 0.67295898E+03</pdfrwt>
<pdfrwt beam="2">  1       -2 0.49871614E-01 0.67295898E+03</pdfrwt>
<totfact> 0.58488367E+01</totfact>
</mgrwt>
</event>
<event>
 4    2  0.2930016E-007  0.1018855E+04  0.7818608E-02  0.9357295E-01
          2   -1    0    0  501    0  0.00000000000E+00  0.00000000000E+00  0.42027874829E+04  0.42027874829E+04  0.25500000000E-02 0. -1.
         -2   -1    0    0    0  501 -0.00000000000E+00 -0.00000000000E+00 -0.22571709967E+03  0.22571709968E+03  0.25500000000E-02 0.  1.
    8880023    1    1    2    0    0  0.70289521584E+03  0.33195460331E+03  0.30134120368E+04  0.31809932180E+04  0.65864270000E+03 0. -1.
    8880022    1    1    2    0    0 -0.70289521584E+03 -0.33195460331E+03  0.96365834640E+03  0.12475113646E+04  0.15294330000E+03 0.  0.
<mgrwt>
<rscale>  0 0.95675066E+03</rscale>
<asrwt>0</asrwt>
<pdfrwt beam="1">  1        2 0.64658272E+00 0.10188551E+04</pdfrwt>
<pdfrwt beam="2">  1       -2 0.34725706E-01 0.10188551E+04</pdfrwt>
<totfact> 0.19044994E+00</totfact>
</mgrwt>
</event>
<event>
 4    2  0.2930016E-007  0.1033223E+04  0.7818608E-02  0.9339327E-01
          2   -1    0    0  501    0  0.00000000000E+00  0.00000000000E+00  0.14971015825E+04  0.14971015825E+04  0.25500000000E-02 0. -1.
         -2   -1    0    0    0  501 -0.00000000000E+00 -0.00000000000E+00 -0.95468495420E+03  0.95468495421E+03  0.25500000000E-02 0.  1.
    8880023    1    1    2    0    0  0.49975657243E+03  0.61966361576E+03  0.10677494603E+04  0.14858124864E+04  0.65864270000E+03 0. -1.
    8880022    1    1    2    0    0 -0.49975657243E+03 -0.61966361576E+03 -0.52533283206E+03  0.96597405030E+03  0.15294330000E+03 0.  0.
<mgrwt>
<rscale>  0 0.97241596E+03</rscale>
<asrwt>0</asrwt>
<pdfrwt beam="1">  1        2 0.23032332E+00 0.10332230E+04</pdfrwt>
<pdfrwt beam="2">  1       -2 0.14687461E+00 0.10332230E+04</pdfrwt>
<totfact> 0.39921019E+00</totfact>
</mgrwt>
</event>
<event>
 4    2  0.2930016E-007  0.8810257E+03  0.7818608E-02  0.9557205E-01
          2   -1    0    0  501    0  0.00000000000E+00  0.00000000000E+00  0.21250668162E+04  0.21250668162E+04  0.25500000000E-02 0. -1.
         -2   -1    0    0    0  501 -0.00000000000E+00 -0.00000000000E+00 -0.81716142918E+03  0.81716142918E+03  0.25500000000E-02 0.  1.
    8880023    1    1    2    0    0  0.58280450623E+03 -0.52297633935E+02  0.19009447346E+04  0.20951842939E+04  0.65864270000E+03 0.  0.
    8880022    1    1    2    0    0 -0.58280450623E+03  0.52297633935E+02 -0.59303934758E+03  0.84704395151E+03  0.15294330000E+03 0.  0.
<mgrwt>
<rscale>  0 0.80194594E+03</rscale>
<asrwt>0</asrwt>
<pdfrwt beam="1">  1        2 0.32693335E+00 0.88102573E+03</pdfrwt>
<pdfrwt beam="2">  1       -2 0.12571714E+00 0.88102573E+03</pdfrwt>
<totfact> 0.27360526E+00</totfact>
</mgrwt>
</event>
<event>
 4    2  0.2930016E-007  0.7451506E+03  0.7818608E-02  0.9845190E-01
          2   -1    0    0  501    0  0.00000000000E+00  0.00000000000E+00  0.13626268577E+04  0.13626268577E+04  0.25500000000E-02 0. -1.
         -2   -1    0    0    0  501 -0.00000000000E+00 -0.00000000000E+00 -0.41213867637E+03  0.41213867638E+03  0.25500000000E-02 0.  1.
    8880023    1    1    2    0    0 -0.26514155661E+03  0.22613956402E+03  0.11303305020E+04  0.13538450419E+04  0.65864270000E+03 0. -1.
    8880022    1    1    2    0    0  0.26514155661E+03 -0.22613956402E+03 -0.17984232064E+03  0.42092049221E+03  0.15294330000E+03 0.  0.
<mgrwt>
<rscale>  0 0.62992760E+03</rscale>
<asrwt>0</asrwt>
<pdfrwt beam="1">  1        2 0.20963490E+00 0.74515056E+03</pdfrwt>
<pdfrwt beam="2">  1       -2 0.63405949E-01 0.74515056E+03</pdfrwt>
<totfact> 0.35754631E+01</totfact>
</mgrwt>
</event>
<event>
 4    2  0.2930016E-007  0.7452283E+03  0.7818608E-02  0.9844971E-01
         -2   -1    0    0    0  501 -0.00000000000E+00  0.00000000000E+00  0.19335469997E+03  0.19335469999E+03  0.25500000000E-02 0.  1.
          2   -1    0    0  501    0  0.00000000000E+00 -0.00000000000E+00 -0.17071643719E+04  0.17071643719E+04  0.25500000000E-02 0. -1.
    8880023    1    1    2    0    0  0.12454941526E+03  0.32564149399E+03 -0.81231626344E+03  0.11023714699E+04  0.65864270000E+03 0.  1.
    8880022    1    1    2    0    0 -0.12454941526E+03 -0.32564149399E+03 -0.70149340850E+03  0.79814760204E+03  0.15294330000E+03 0.  1.
<mgrwt>
<rscale>  0 0.63003980E+03</rscale>
<asrwt>0</asrwt>
<pdfrwt beam="1">  1        2 0.26264066E+00 0.74522825E+03</pdfrwt>
<pdfrwt beam="2">  1       -2 0.29746878E-01 0.74522825E+03</pdfrwt>
<totfact> 0.10336921E+02</totfact>
</mgrwt>
</event>
<event>
 4    2  0.2930016E-007  0.1282810E+04  0.7818608E-02  0.9080548E-01
         -2   -1    0    0    0  501 -0.00000000000E+00  0.00000000000E+00  0.96674919662E+03  0.96674919662E+03  0.25500000000E-02 0.  1.
          2   -1    0    0  501    0  0.00000000000E+00 -0.00000000000E+00 -0.27445660187E+04  0.27445660187E+04  0.25500000000E-02 0. -1.
    8880023    1    1    2    0    0 -0.42141304201E+03 -0.10169577347E+04 -0.21799733334E+04  0.25294042632E+04  0.65864270000E+03 0.  0.
    8880022    1    1    2    0    0  0.42141304201E+03  0.10169577347E+04  0.40215651132E+03  0.11819109521E+04  0.15294330000E+03 0.  0.
<mgrwt>
<rscale>  0 0.12376227E+04</rscale>
<asrwt>0</asrwt>
<pdfrwt beam="1">  1        2 0.42224092E+00 0.12828103E+04</pdfrwt>
<pdfrwt beam="2">  1       -2 0.14873065E+00 0.12828103E+04</pdfrwt>
<totfact> 0.74263938E-01</totfact>
</mgrwt>
</event>
<event>
 4    2  0.2930016E-007  0.7456382E+03  0.7818608E-02  0.9843818E-01
         -2   -1    0    0    0  501 -0.00000000000E+00  0.00000000000E+00  0.34243042237E+03  0.34243042238E+03  0.25500000000E-02 0.  1.
          2   -1    0    0  501    0  0.00000000000E+00 -0.00000000000E+00 -0.10646004431E+04  0.10646004431E+04  0.25500000000E-02 0. -1.
    8880023    1    1    2    0    0 -0.28404703832E+03  0.20367458824E+03 -0.70338311867E+03  0.10250483285E+04  0.65864270000E+03 0. -1.
    8880022    1    1    2    0    0  0.28404703832E+03 -0.20367458824E+03 -0.18786902093E+02  0.38198253701E+03  0.15294330000E+03 0.  0.
<mgrwt>
<rscale>  0 0.63063126E+03</rscale>
<asrwt>0</asrwt>
<pdfrwt beam="1">  1        2 0.16378468E+00 0.74563816E+03</pdfrwt>
<pdfrwt beam="2">  1       -2 0.52681604E-01 0.74563816E+03</pdfrwt>
<totfact> 0.79098588E+01</totfact>
</mgrwt>
</event>
<event>
 4    2  0.2930016E-007  0.6989735E+03  0.7818608E-02  0.1000149E+00
          2   -1    0    0  501    0  0.00000000000E+00  0.00000000000E+00  0.46282673984E+03  0.46282673985E+03  0.25500000000E-02 0. -1.
         -2   -1    0    0    0  501 -0.00000000000E+00 -0.00000000000E+00 -0.25944492707E+04  0.25944492707E+04  0.25500000000E-02 0.  1.
    8880023    1    1    2    0    0 -0.14526251920E+03 -0.18344616643E+03  0.18564590343E+03  0.72320695737E+03  0.65864270000E+03 0. -1.
    8880022    1    1    2    0    0  0.14526251920E+03  0.18344616643E+03 -0.23172684343E+04  0.23340690532E+04  0.15294330000E+03 0.  0.
<mgrwt>
<rscale>  0 0.55585102E+03</rscale>
<asrwt>0</asrwt>
<pdfrwt beam="1">  1        2 0.71204115E-01 0.69897346E+03</pdfrwt>
<pdfrwt beam="2">  1       -2 0.39914603E+00 0.69897346E+03</pdfrwt>
<totfact> 0.54387892E-01</totfact>
</mgrwt>
</event>
<event>
 4    2  0.2930016E-007  0.7039001E+03  0.7818608E-02  0.9981391E-01
          2   -1    0    0  501    0  0.00000000000E+00  0.00000000000E+00  0.16010909011E+04  0.16010909011E+04  0.25500000000E-02 0. -1.
         -2   -1    0    0    0  501 -0.00000000000E+00 -0.00000000000E+00 -0.18074641867E+03  0.18074641868E+03  0.25500000000E-02 0.  1.
    8880023    1    1    2    0    0  0.17908220706E+02 -0.24767811032E+03  0.12740236684E+04  0.14555451434E+04  0.65864270000E+03 0.  0.
    8880022    1    1    2    0    0 -0.17908220706E+02  0.24767811032E+03  0.14632081402E+03  0.32629217632E+03  0.15294330000E+03 0.  0.
<mgrwt>
<rscale>  0 0.56473786E+03</rscale>
<asrwt>0</asrwt>
<pdfrwt beam="1">  1        2 0.24632168E+00 0.70390010E+03</pdfrwt>
<pdfrwt beam="2">  1       -2 0.27807141E-01 0.70390010E+03</pdfrwt>
<totfact> 0.13434354E+02</totfact>
</mgrwt>
</event>
<event>
 4    2  0.2930016E-007  0.1520804E+04  0.7818608E-02  0.8895084E-01
         -2   -1    0    0    0  501 -0.00000000000E+00  0.00000000000E+00  0.55253164617E+03  0.55253164618E+03  0.25500000000E-02 0.  1.
          2   -1    0    0  501    0  0.00000000000E+00 -0.00000000000E+00 -0.39495347453E+04  0.39495347453E+04  0.25500000000E-02 0. -1.
    8880023    1    1    2    0    0  0.30836968648E+03  0.13356428329E+04 -0.22078286626E+04  0.26809235815E+04  0.65864270000E+03 0.  1.
    8880022    1    1    2    0    0 -0.30836968648E+03 -0.13356428329E+04 -0.11891744365E+04  0.18211428099E+04  0.15294330000E+03 0.  0.
<mgrwt>
<rscale>  0 0.14841176E+04</rscale>
<asrwt>0</asrwt>
<pdfrwt beam="1">  1        2 0.60762071E+00 0.15208037E+04</pdfrwt>
<pdfrwt beam="2">  1       -2 0.85004871E-01 0.15208037E+04</pdfrwt>
<totfact> 0.43886228E-01</totfact>
</mgrwt>
</event>
<event>
 4    2  0.2930016E-007  0.6731075E+03  0.7818608E-02  0.1013527E+00
          2   -1    0    0  501    0  0.00000000000E+00  0.00000000000E+00  0.46583826675E+03  0.46583826675E+03  0.25500000000E-02 0. -1.
         -2   -1    0    0    0  501 -0.00000000000E+00 -0.00000000000E+00 -0.56932582559E+03  0.56932582560E+03  0.25500000000E-02 0.  1.
    8880023    1    1    2    0    0 -0.13125533452E+03 -0.45116503715E+02  0.16828041855E+03  0.69382416164E+03  0.65864270000E+03 0. -1.
    8880022    1    1    2    0    0  0.13125533452E+03  0.45116503715E+02 -0.27176797739E+03  0.34133993071E+03  0.15294330000E+03 0.  0.
<mgrwt>
<rscale>  0 0.50096767E+03</rscale>
<asrwt>0</asrwt>
<pdfrwt beam="1">  1        2 0.71667426E-01 0.67310747E+03</pdfrwt>
<pdfrwt beam="2">  1       -2 0.87588588E-01 0.67310747E+03</pdfrwt>
<totfact> 0.76384326E+01</totfact>
</mgrwt>
</event>
<event>
 4    2  0.2930016E-007  0.7631564E+03  0.7818608E-02  0.9797003E-01
         -2   -1    0    0    0  501 -0.00000000000E+00  0.00000000000E+00  0.17754658678E+03  0.17754658680E+03  0.25500000000E-02 0.  1.
          2   -1    0    0  501    0  0.00000000000E+00 -0.00000000000E+00 -0.34601962414E+04  0.34601962414E+04  0.25500000000E-02 0. -1.
    8880023    1    1    2    0    0  0.25682519775E+03  0.28746889530E+03 -0.30856359743E+04  0.31786093060E+04  0.65864270000E+03 0. -1.
    8880022    1    1    2    0    0 -0.25682519775E+03 -0.28746889530E+03 -0.19701368030E+03  0.45913352220E+03  0.15294330000E+03 0.  0.
<mgrwt>
<rscale>  0 0.65523612E+03</rscale>
<asrwt>0</asrwt>
<pdfrwt beam="1">  1        2 0.53233783E+00 0.76315644E+03</pdfrwt>
<pdfrwt beam="2">  1       -2 0.27314862E-01 0.76315644E+03</pdfrwt>
<totfact> 0.11361978E+01</totfact>
</mgrwt>
</event>
<event>
 4    2  0.2930016E-007  0.8062184E+03  0.7818608E-02  0.9697509E-01
          2   -1    0    0  501    0  0.00000000000E+00  0.00000000000E+00  0.15802808018E+04  0.15802808018E+04  0.25500000000E-02 0. -1.
         -2   -1    0    0    0  501 -0.00000000000E+00 -0.00000000000E+00 -0.10761162667E+04  0.10761162667E+04  0.25500000000E-02 0.  1.
    8880023    1    1    2    0    0 -0.42717793687E+03  0.18356701254E+03  0.14114659378E+04  0.16254919679E+04  0.65864270000E+03 0.  0.
    8880022    1    1    2    0    0  0.42717793687E+03 -0.18356701254E+03 -0.90730140273E+03  0.10309051005E+04  0.15294330000E+03 0.  0.
<mgrwt>
<rscale>  0 0.71165327E+03</rscale>
<asrwt>0</asrwt>
<pdfrwt beam="1">  1        2 0.24312012E+00 0.80621836E+03</pdfrwt>
<pdfrwt beam="2">  1       -2 0.16555635E+00 0.80621836E+03</pdfrwt>
<totfact> 0.26770808E+00</totfact>
</mgrwt>
</event>
<event>
 4    2  0.2930016E-007  0.6798063E+03  0.7818608E-02  0.1009433E+00
         -2   -1    0    0    0  501 -0.00000000000E+00  0.00000000000E+00  0.69767580444E+03  0.69767580444E+03  0.25500000000E-02 0.  1.
          2   -1    0    0  501    0  0.00000000000E+00 -0.00000000000E+00 -0.41137986189E+03  0.41137986190E+03  0.25500000000E-02 0. -1.
    8880023    1    1    2    0    0 -0.16421509050E+02  0.16750139363E+03 -0.73127779191E+02  0.68372820710E+03  0.65864270000E+03 0. -1.
    8880022    1    1    2    0    0  0.16421509050E+02 -0.16750139363E+03  0.35942372174E+03  0.42532745925E+03  0.15294330000E+03 0.  0.
<mgrwt>
<rscale>  0 0.51700428E+03</rscale>
<asrwt>0</asrwt>
<pdfrwt beam="1">  1        2 0.63289210E-01 0.67980629E+03</pdfrwt>
<pdfrwt beam="2">  1       -2 0.10733474E+00 0.67980629E+03</pdfrwt>
<totfact> 0.54551586E+01</totfact>
</mgrwt>
</event>
<event>
 4    2  0.2930016E-007  0.7171076E+03  0.7818608E-02  0.9932497E-01
         -2   -1    0    0    0  501 -0.00000000000E+00  0.00000000000E+00  0.10186299415E+04  0.10186299415E+04  0.25500000000E-02 0.  1.
          2   -1    0    0  501    0  0.00000000000E+00 -0.00000000000E+00 -0.50989423804E+03  0.50989423805E+03  0.25500000000E-02 0. -1.
    8880023    1    1    2    0    0  0.24815139567E+03  0.13730988674E+03 -0.20465565296E+03  0.74573940671E+03  0.65864270000E+03 0. -1.
    8880022    1    1    2    0    0 -0.24815139567E+03 -0.13730988674E+03  0.71339135645E+03  0.78278477287E+03  0.15294330000E+03 0.  0.
<mgrwt>
<rscale>  0 0.58711865E+03</rscale>
<asrwt>0</asrwt>
<pdfrwt beam="1">  1        2 0.78445267E-01 0.71710761E+03</pdfrwt>
<pdfrwt beam="2">  1       -2 0.15671230E+00 0.71710761E+03</pdfrwt>
<totfact> 0.16319155E+01</totfact>
</mgrwt>
</event>
<event>
 4    2  0.2930016E-007  0.7036459E+03  0.7818608E-02  0.9982400E-01
          2   -1    0    0  501    0  0.00000000000E+00  0.00000000000E+00  0.31729111380E+04  0.31729111380E+04  0.25500000000E-02 0. -1.
         -2   -1    0    0    0  501 -0.00000000000E+00 -0.00000000000E+00 -0.26343761151E+03  0.26343761152E+03  0.25500000000E-02 0.  1.
    8880023    1    1    2    0    0  0.24602250699E+03  0.27933753668E+02  0.30378388475E+04  0.31182659345E+04  0.65864270000E+03 0. -1.
    8880022    1    1    2    0    0 -0.24602250699E+03 -0.27933753668E+02 -0.12836532104E+03  0.31808281500E+03  0.15294330000E+03 0.  0.
<mgrwt>
<rscale>  0 0.56428750E+03</rscale>
<asrwt>0</asrwt>
<pdfrwt beam="1">  1        2 0.48814017E+00 0.70364592E+03</pdfrwt>
<pdfrwt beam="2">  1       -2 0.40528864E-01 0.70364592E+03</pdfrwt>
<totfact> 0.84012322E+00</totfact>
</mgrwt>
</event>
<event>
 4    2  0.2930016E-007  0.9429433E+03  0.7818608E-02  0.9460341E-01
         -2   -1    0    0    0  501 -0.00000000000E+00  0.00000000000E+00  0.65336276150E+03  0.65336276150E+03  0.25500000000E-02 0.  1.
          2   -1    0    0  501    0  0.00000000000E+00 -0.00000000000E+00 -0.11831516712E+04  0.11831516712E+04  0.25500000000E-02 0. -1.
    8880023    1    1    2    0    0  0.18617914294E+03 -0.64859011945E+03  0.34664809401E+02  0.94358024120E+03  0.65864270000E+03 0.  0.
    8880022    1    1    2    0    0 -0.18617914294E+03  0.64859011945E+03 -0.56445371907E+03  0.89293419147E+03  0.15294330000E+03 0.  0.
<mgrwt>
<rscale>  0 0.87271967E+03</rscale>
<asrwt>0</asrwt>
<pdfrwt beam="1">  1        2 0.18202333E+00 0.94294328E+03</pdfrwt>
<pdfrwt beam="2">  1       -2 0.10051735E+00 0.94294328E+03</pdfrwt>
<totfact> 0.15804525E+01</totfact>
</mgrwt>
</event>
<event>
 4    2  0.2930016E-007  0.6996223E+03  0.7818608E-02  0.9998772E-01
         -2   -1    0    0    0  501 -0.00000000000E+00  0.00000000000E+00  0.15325998524E+03  0.15325998526E+03  0.25500000000E-02 0.  1.
          2   -1    0    0  501    0  0.00000000000E+00 -0.00000000000E+00 -0.24860609994E+04  0.24860609994E+04  0.25500000000E-02 0. -1.
    8880023    1    1    2    0    0 -0.19547199202E+03  0.13210524352E+03 -0.22345052232E+04  0.23414706690E+04  0.65864270000E+03 0. -1.
    8880022    1    1    2    0    0  0.19547199202E+03 -0.13210524352E+03 -0.98295791047E+02  0.29785031574E+03  0.15294330000E+03 0.  0.
<mgrwt>
<rscale>  0 0.55704122E+03</rscale>
<asrwt>0</asrwt>
<pdfrwt beam="1">  1        2 0.38247089E+00 0.69962226E+03</pdfrwt>
<pdfrwt beam="2">  1       -2 0.23578461E-01 0.69962226E+03</pdfrwt>
<totfact> 0.59138112E+01</totfact>
</mgrwt>
</event>
<event>
 4    2  0.2930016E-007  0.1094463E+04  0.7818608E-02  0.9267246E-01
          2   -1    0    0  501    0  0.00000000000E+00  0.00000000000E+00  0.27476775987E+04  0.27476775987E+04  0.25500000000E-02 0. -1.
         -2   -1    0    0    0  501 -0.00000000000E+00 -0.00000000000E+00 -0.61843213161E+03  0.61843213161E+03  0.25500000000E-02 0.  1.
    8880023    1    1    2    0    0  0.32485335343E+03 -0.81148644423E+03  0.22189792230E+04  0.24742107729E+04  0.65864270000E+03 0. -1.
    8880022    1    1    2    0    0 -0.32485335343E+03  0.81148644423E+03 -0.89733755825E+02  0.89189895748E+03  0.15294330000E+03 0.  0.
<mgrwt>
<rscale>  0 0.10385503E+04</rscale>
<asrwt>0</asrwt>
<pdfrwt beam="1">  1        2 0.42271963E+00 0.10944634E+04</pdfrwt>
<pdfrwt beam="2">  1       -2 0.95143405E-01 0.10944634E+04</pdfrwt>
<totfact> 0.23110094E+00</totfact>
</mgrwt>
</event>
<event>
 4    2  0.2930016E-007  0.9860906E+03  0.7818608E-02  0.9399986E-01
          2   -1    0    0  501    0  0.00000000000E+00  0.00000000000E+00  0.47328760730E+04  0.47328760730E+04  0.25500000000E-02 0. -1.
         -2   -1    0    0    0  501 -0.00000000000E+00 -0.00000000000E+00 -0.19932195674E+03  0.19932195676E+03  0.25500000000E-02 0.  1.
    8880023    1    1    2    0    0  0.60208764692E+03 -0.41958895267E+03  0.36123512714E+04  0.37445235128E+04  0.65864270000E+03 0. -1.
    8880022    1    1    2    0    0 -0.60208764692E+03  0.41958895267E+03  0.92120284481E+03  0.11876745169E+04  0.15294330000E+03 0.  0.
<mgrwt>
<rscale>  0 0.92076839E+03</rscale>
<asrwt>0</asrwt>
<pdfrwt beam="1">  1        2 0.72813475E+00 0.98609058E+03</pdfrwt>
<pdfrwt beam="2">  1       -2 0.30664918E-01 0.98609058E+03</pdfrwt>
<totfact> 0.75902797E-01</totfact>
</mgrwt>
</event>
<event>
 4    2  0.2930016E-007  0.9882624E+03  0.7818608E-02  0.9397078E-01
         -2   -1    0    0    0  501 -0.00000000000E+00  0.00000000000E+00  0.20414069295E+04  0.20414069295E+04  0.25500000000E-02 0.  1.
          2   -1    0    0  501    0  0.00000000000E+00 -0.00000000000E+00 -0.41209404872E+03  0.41209404872E+03  0.25500000000E-02 0. -1.
    8880023    1    1    2    0    0 -0.73676178307E+03  0.58728639800E+01  0.12977480579E+04  0.16311997558E+04  0.65864270000E+03 0.  0.
    8880022    1    1    2    0    0  0.73676178307E+03 -0.58728639800E+01  0.33156482293E+03  0.82230122239E+03  0.15294330000E+03 0.  0.
<mgrwt>
<rscale>  0 0.92316572E+03</rscale>
<asrwt>0</asrwt>
<pdfrwt beam="1">  1        2 0.63399084E-01 0.98826243E+03</pdfrwt>
<pdfrwt beam="2">  1       -2 0.31406261E+00 0.98826243E+03</pdfrwt>
<totfact> 0.20263400E+00</totfact>
</mgrwt>
</event>
<event>
 4    2  0.2930016E-007  0.7271951E+03  0.7818608E-02  0.9898952E-01
         -2   -1    0    0    0  501 -0.00000000000E+00  0.00000000000E+00  0.42439603034E+03  0.42439603035E+03  0.25500000000E-02 0.  1.
          2   -1    0    0  501    0  0.00000000000E+00 -0.00000000000E+00 -0.14009332878E+04  0.14009332878E+04  0.25500000000E-02 0. -1.
    8880023    1    1    2    0    0  0.45780852618E+02 -0.30480582681E+03 -0.12084564156E+04  0.14103827825E+04  0.65864270000E+03 0. -1.
    8880022    1    1    2    0    0 -0.45780852618E+02  0.30480582681E+03  0.23191915814E+03  0.41494653565E+03  0.15294330000E+03 0.  0.
<mgrwt>
<rscale>  0 0.60312103E+03</rscale>
<asrwt>0</asrwt>
<pdfrwt beam="1">  1        2 0.21552820E+00 0.72719508E+03</pdfrwt>
<pdfrwt beam="2">  1       -2 0.65291698E-01 0.72719508E+03</pdfrwt>
<totfact> 0.32003818E+01</totfact>
</mgrwt>
</event>
<event>
 4    2  0.2930016E-007  0.7002229E+03  0.7818608E-02  0.9996278E-01
          2   -1    0    0  501    0  0.00000000000E+00  0.00000000000E+00  0.16193219715E+04  0.16193219715E+04  0.25500000000E-02 0. -1.
         -2   -1    0    0    0  501 -0.00000000000E+00 -0.00000000000E+00 -0.44392906173E+03  0.44392906173E+03  0.25500000000E-02 0.  1.
    8880023    1    1    2    0    0 -0.13939174213E+03 -0.19254051501E+03  0.14863482819E+04  0.16430287061E+04  0.65864270000E+03 0. -1.
    8880022    1    1    2    0    0  0.13939174213E+03  0.19254051501E+03 -0.31095537217E+03  0.42022232709E+03  0.15294330000E+03 0.  0.
<mgrwt>
<rscale>  0 0.55813750E+03</rscale>
<asrwt>0</asrwt>
<pdfrwt beam="1">  1        2 0.24912646E+00 0.70022290E+03</pdfrwt>
<pdfrwt beam="2">  1       -2 0.68296778E-01 0.70022290E+03</pdfrwt>
<totfact> 0.22032918E+01</totfact>
</mgrwt>
</event>
<event>
 4    2  0.2930016E-007  0.6994240E+03  0.7818608E-02  0.9999599E-01
         -2   -1    0    0    0  501 -0.00000000000E+00  0.00000000000E+00  0.11368936480E+03  0.11368936483E+03  0.25500000000E-02 0.  1.
          2   -1    0    0  501    0  0.00000000000E+00 -0.00000000000E+00 -0.21143182184E+04  0.21143182184E+04  0.25500000000E-02 0. -1.
    8880023    1    1    2    0    0 -0.10244829411E+01  0.23533534850E+03 -0.13961678190E+04  0.15615628584E+04  0.65864270000E+03 0.  0.
    8880022    1    1    2    0    0  0.10244829411E+01 -0.23533534850E+03 -0.60446103459E+03  0.66644472477E+03  0.15294330000E+03 0.  1.
<mgrwt>
<rscale>  0 0.55667826E+03</rscale>
<asrwt>0</asrwt>
<pdfrwt beam="1">  1        2 0.32527970E+00 0.69942404E+03</pdfrwt>
<pdfrwt beam="2">  1       -2 0.17490673E-01 0.69942404E+03</pdfrwt>
<totfact> 0.16047213E+02</totfact>
</mgrwt>
</event>
<event>
 4    2  0.2930016E-007  0.7688358E+03  0.7818608E-02  0.9782747E-01
         -2   -1    0    0    0  501 -0.00000000000E+00  0.00000000000E+00  0.24156022829E+03  0.24156022830E+03  0.25500000000E-02 0.  1.
          2   -1    0    0  501    0  0.00000000000E+00 -0.00000000000E+00 -0.16361660874E+04  0.16361660874E+04  0.25500000000E-02 0. -1.
    8880023    1    1    2    0    0  0.36174069465E+03 -0.16260969279E+03 -0.11615620911E+04  0.13929590590E+04  0.65864270000E+03 0.  0.
    8880022    1    1    2    0    0 -0.36174069465E+03  0.16260969279E+03 -0.23304376807E+03  0.48476725674E+03  0.15294330000E+03 0.  0.
<mgrwt>
<rscale>  0 0.66296701E+03</rscale>
<asrwt>0</asrwt>
<pdfrwt beam="1">  1        2 0.25171785E+00 0.76883577E+03</pdfrwt>
<pdfrwt beam="2">  1       -2 0.37163113E-01 0.76883577E+03</pdfrwt>
<totfact> 0.74091773E+01</totfact>
</mgrwt>
</event>
<event>
 4    2  0.2930016E-007  0.1643754E+04  0.7818608E-02  0.8814277E-01
          2   -1    0    0  501    0  0.00000000000E+00  0.00000000000E+00  0.30305054849E+04  0.30305054849E+04  0.25500000000E-02 0. -1.
         -2   -1    0    0    0  501 -0.00000000000E+00 -0.00000000000E+00 -0.12801438251E+04  0.12801438251E+04  0.25500000000E-02 0.  1.
    8880023    1    1    2    0    0  0.99011746343E+03 -0.11348056296E+04  0.21863570628E+04  0.27353397998E+04  0.65864270000E+03 0.  0.
    8880022    1    1    2    0    0 -0.99011746343E+03  0.11348056296E+04 -0.43599540301E+03  0.15753095102E+04  0.15294330000E+03 0.  0.
<mgrwt>
<rscale>  0 0.16102479E+04</rscale>
<asrwt>0</asrwt>
<pdfrwt beam="1">  1        2 0.46623161E+00 0.16437538E+04</pdfrwt>
<pdfrwt beam="2">  1       -2 0.19694521E+00 0.16437538E+04</pdfrwt>
<totfact> 0.21518525E-01</totfact>
</mgrwt>
</event>
<event>
 4    2  0.2930016E-007  0.1093091E+04  0.7818608E-02  0.9268787E-01
          2   -1    0    0  501    0  0.00000000000E+00  0.00000000000E+00  0.11511648848E+04  0.11511648848E+04  0.25500000000E-02 0. -1.
         -2   -1    0    0    0  501 -0.00000000000E+00 -0.00000000000E+00 -0.16865220349E+04  0.16865220349E+04  0.25500000000E-02 0.  1.
    8880023    1    1    2    0    0  0.53226114707E+03  0.69118465064E+03  0.71445629043E+03  0.13058698814E+04  0.65864270000E+03 0. -1.
    8880022    1    1    2    0    0 -0.53226114707E+03 -0.69118465064E+03 -0.12498134405E+04  0.15318170384E+04  0.15294330000E+03 0.  0.
<mgrwt>
<rscale>  0 0.10370783E+04</rscale>
<asrwt>0</asrwt>
<pdfrwt beam="1">  1        2 0.17710229E+00 0.10930912E+04</pdfrwt>
<pdfrwt beam="2">  1       -2 0.25946493E+00 0.10930912E+04</pdfrwt>
<totfact> 0.11234910E+00</totfact>
</mgrwt>
</event>
<event>
 4    2  0.2930016E-007  0.9730932E+03  0.7818608E-02  0.9417639E-01
          2   -1    0    0  501    0  0.00000000000E+00  0.00000000000E+00  0.77096151013E+03  0.77096151013E+03  0.25500000000E-02 0. -1.
         -2   -1    0    0    0  501 -0.00000000000E+00 -0.00000000000E+00 -0.10126437567E+04  0.10126437567E+04  0.25500000000E-02 0.  1.
    8880023    1    1    2    0    0  0.49858418209E+03 -0.51430919247E+03  0.94523847935E+02  0.97767330749E+03  0.65864270000E+03 0.  0.
    8880022    1    1    2    0    0 -0.49858418209E+03  0.51430919247E+03 -0.33620609450E+03  0.80593195934E+03  0.15294330000E+03 0. -1.
<mgrwt>
<rscale>  0 0.90638186E+03</rscale>
<asrwt>0</asrwt>
<pdfrwt beam="1">  1        2 0.11860946E+00 0.97309318E+03</pdfrwt>
<pdfrwt beam="2">  1       -2 0.15579135E+00 0.97309318E+03</pdfrwt>
<totfact> 0.97393452E+00</totfact>
</mgrwt>
</event>
<event>
 4    2  0.2930016E-007  0.6895954E+03  0.7818608E-02  0.1004345E+00
         -2   -1    0    0    0  501 -0.00000000000E+00  0.00000000000E+00  0.22861516043E+03  0.22861516044E+03  0.25500000000E-02 0.  1.
          2   -1    0    0  501    0  0.00000000000E+00 -0.00000000000E+00 -0.35253588247E+04  0.35253588247E+04  0.25500000000E-02 0. -1.
    8880023    1    1    2    0    0 -0.17371310292E+03  0.10749568416E+03 -0.34069225141E+04  0.34760124838E+04  0.65864270000E+03 0. -1.
    8880022    1    1    2    0    0  0.17371310292E+03 -0.10749568416E+03  0.11017884986E+03  0.27796150131E+03  0.15294330000E+03 0.  0.
<mgrwt>
<rscale>  0 0.53785193E+03</rscale>
<asrwt>0</asrwt>
<pdfrwt beam="1">  1        2 0.54236286E+00 0.68959537E+03</pdfrwt>
<pdfrwt beam="2">  1       -2 0.35171566E-01 0.68959537E+03</pdfrwt>
<totfact> 0.64972181E+00</totfact>
</mgrwt>
</event>
<event>
 4    2  0.2930016E-007  0.6745507E+03  0.7818608E-02  0.1012591E+00
         -2   -1    0    0    0  501 -0.00000000000E+00  0.00000000000E+00  0.46429323811E+03  0.46429323812E+03  0.25500000000E-02 0.  1.
          2   -1    0    0  501    0  0.00000000000E+00 -0.00000000000E+00 -0.12546159848E+04  0.12546159848E+04  0.25500000000E-02 0. -1.
    8880023    1    1    2    0    0  0.35396364359E+02  0.14126390135E+03 -0.11317028551E+04  0.13174862242E+04  0.65864270000E+03 0. -1.
    8880022    1    1    2    0    0 -0.35396364359E+02 -0.14126390135E+03  0.34138010844E+03  0.40142299870E+03  0.15294330000E+03 0.  0.
<mgrwt>
<rscale>  0 0.50457746E+03</rscale>
<asrwt>0</asrwt>
<pdfrwt beam="1">  1        2 0.19301784E+00 0.67455066E+03</pdfrwt>
<pdfrwt beam="2">  1       -2 0.71429729E-01 0.67455066E+03</pdfrwt>
<totfact> 0.32130369E+01</totfact>
</mgrwt>
</event>
<event>
 4    2  0.2930016E-007  0.1126079E+04  0.7818608E-02  0.9232561E-01
         -2   -1    0    0    0  501 -0.00000000000E+00  0.00000000000E+00  0.91648353138E+03  0.91648353138E+03  0.25500000000E-02 0.  1.
          2   -1    0    0  501    0  0.00000000000E+00 -0.00000000000E+00 -0.12603170975E+04  0.12603170975E+04  0.25500000000E-02 0. -1.
    8880023    1    1    2    0    0  0.77673854901E+03 -0.48054184527E+03 -0.50955905456E+03  0.12360031856E+04  0.65864270000E+03 0.  0.
    8880022    1    1    2    0    0 -0.77673854901E+03  0.48054184527E+03  0.16572548848E+03  0.94079744319E+03  0.15294330000E+03 0.  0.
<mgrwt>
<rscale>  0 0.10723570E+04</rscale>
<asrwt>0</asrwt>
<pdfrwt beam="1">  1        2 0.19389494E+00 0.11260788E+04</pdfrwt>
<pdfrwt beam="2">  1       -2 0.14099747E+00 0.11260788E+04</pdfrwt>
<totfact> 0.60254468E+00</totfact>
</mgrwt>
</event>
<event>
 4    2  0.2930016E-007  0.7083748E+03  0.7818608E-02  0.9964086E-01
         -2   -1    0    0    0  501 -0.00000000000E+00  0.00000000000E+00  0.14071740872E+03  0.14071740875E+03  0.25500000000E-02 0.  1.
          2   -1    0    0  501    0  0.00000000000E+00 -0.00000000000E+00 -0.18154921482E+04  0.18154921482E+04  0.25500000000E-02 0. -1.
    8880023    1    1    2    0    0  0.19611385753E+03 -0.17182568204E+03 -0.11925362250E+04  0.13870607645E+04  0.65864270000E+03 0.  1.
    8880022    1    1    2    0    0 -0.19611385753E+03  0.17182568204E+03 -0.48223851449E+03  0.56914879249E+03  0.15294330000E+03 0. -1.
<mgrwt>
<rscale>  0 0.57253439E+03</rscale>
<asrwt>0</asrwt>
<pdfrwt beam="1">  1        2 0.27930647E+00 0.70837484E+03</pdfrwt>
<pdfrwt beam="2">  1       -2 0.21648833E-01 0.70837484E+03</pdfrwt>
<totfact> 0.16083988E+02</totfact>
</mgrwt>
</event>
<event>
 4    2  0.2930016E-007  0.7768315E+03  0.7818608E-02  0.9763333E-01
          2   -1    0    0  501    0  0.00000000000E+00  0.00000000000E+00  0.31455853507E+04  0.31455853507E+04  0.25500000000E-02 0. -1.
         -2   -1    0    0    0  501 -0.00000000000E+00 -0.00000000000E+00 -0.33528203424E+03  0.33528203425E+03  0.25500000000E-02 0.  1.
    8880023    1    1    2    0    0  0.12255572950E+03 -0.39323922707E+03  0.29253044859E+04  0.30266934992E+04  0.65864270000E+03 0. -1.
    8880022    1    1    2    0    0 -0.12255572950E+03  0.39323922707E+03 -0.11500116943E+03  0.45417388578E+03  0.15294330000E+03 0.  0.
<mgrwt>
<rscale>  0 0.67367972E+03</rscale>
<asrwt>0</asrwt>
<pdfrwt beam="1">  1        2 0.48393620E+00 0.77683152E+03</pdfrwt>
<pdfrwt beam="2">  1       -2 0.51581852E-01 0.77683152E+03</pdfrwt>
<totfact> 0.53203117E+00</totfact>
</mgrwt>
</event>
<event>
 4    2  0.2930016E-007  0.7213306E+03  0.7818608E-02  0.9918109E-01
         -2   -1    0    0    0  501 -0.00000000000E+00  0.00000000000E+00  0.28050103705E+03  0.28050103706E+03  0.25500000000E-02 0.  1.
          2   -1    0    0  501    0  0.00000000000E+00 -0.00000000000E+00 -0.15797196597E+04  0.15797196597E+04  0.25500000000E-02 0. -1.
    8880023    1    1    2    0    0  0.62528978157E+02  0.28739834456E+03 -0.13443562522E+04  0.15256512120E+04  0.65864270000E+03 0. -1.
    8880022    1    1    2    0    0 -0.62528978157E+02 -0.28739834456E+03  0.45137629484E+02  0.33456948482E+03  0.15294330000E+03 0.  0.
<mgrwt>
<rscale>  0 0.59391619E+03</rscale>
<asrwt>0</asrwt>
<pdfrwt beam="1">  1        2 0.24303379E+00 0.72133064E+03</pdfrwt>
<pdfrwt beam="2">  1       -2 0.43154006E-01 0.72133064E+03</pdfrwt>
<totfact> 0.59751382E+01</totfact>
</mgrwt>
</event>
<event>
 4    2  0.2930016E-007  0.8942805E+03  0.7818608E-02  0.9535276E-01
         -2   -1    0    0    0  501 -0.00000000000E+00  0.00000000000E+00  0.32545617810E+03  0.32545617811E+03  0.25500000000E-02 0.  1.
          2   -1    0    0  501    0  0.00000000000E+00 -0.00000000000E+00 -0.19810832956E+04  0.19810832956E+04  0.25500000000E-02 0. -1.
    8880023    1    1    2    0    0  0.60368250224E+03 -0.38663050682E+02 -0.13300816170E+04  0.16027647080E+04  0.65864270000E+03 0. -1.
    8880022    1    1    2    0    0 -0.60368250224E+03  0.38663050682E+02 -0.32554550053E+03  0.70377476576E+03  0.15294330000E+03 0.  1.
<mgrwt>
<rscale>  0 0.81732263E+03</rscale>
<asrwt>0</asrwt>
<pdfrwt beam="1">  1        2 0.30478204E+00 0.89428049E+03</pdfrwt>
<pdfrwt beam="2">  1       -2 0.50070182E-01 0.89428049E+03</pdfrwt>
<totfact> 0.26212894E+01</totfact>
</mgrwt>
</event>
<event>
 4    2  0.2930016E-007  0.8138683E+03  0.7818608E-02  0.9681575E-01
         -2   -1    0    0    0  501 -0.00000000000E+00  0.00000000000E+00  0.64797228672E+03  0.64797228672E+03  0.25500000000E-02 0.  1.
          2   -1    0    0  501    0  0.00000000000E+00 -0.00000000000E+00 -0.20423344643E+04  0.20423344643E+04  0.25500000000E-02 0. -1.
    8880023    1    1    2    0    0  0.29190265173E+03  0.37863464966E+03 -0.18445001156E+04  0.20160759506E+04  0.65864270000E+03 0. -1.
    8880022    1    1    2    0    0 -0.29190265173E+03 -0.37863464966E+03  0.45013793798E+03  0.67423080042E+03  0.15294330000E+03 0.  0.
<mgrwt>
<rscale>  0 0.72124479E+03</rscale>
<asrwt>0</asrwt>
<pdfrwt beam="1">  1        2 0.31420530E+00 0.81386827E+03</pdfrwt>
<pdfrwt beam="2">  1       -2 0.99688045E-01 0.81386827E+03</pdfrwt>
<totfact> 0.54063373E+00</totfact>
</mgrwt>
</event>
<event>
 4    2  0.2930016E-007  0.7973801E+03  0.7818608E-02  0.9716490E-01
          2   -1    0    0  501    0  0.00000000000E+00  0.00000000000E+00  0.71372178309E+03  0.71372178309E+03  0.25500000000E-02 0. -1.
         -2   -1    0    0    0  501 -0.00000000000E+00 -0.00000000000E+00 -0.18175630452E+04  0.18175630452E+04  0.25500000000E-02 0.  1.
    8880023    1    1    2    0    0 -0.28864361521E+03 -0.34451362132E+03  0.44372859581E+03  0.91252947617E+03  0.65864270000E+03 0.  0.
    8880022    1    1    2    0    0  0.28864361521E+03  0.34451362132E+03 -0.15475698580E+04  0.16187553522E+04  0.15294330000E+03 0.  0.
<mgrwt>
<rscale>  0 0.70043431E+03</rscale>
<asrwt>0</asrwt>
<pdfrwt beam="1">  1        2 0.10980335E+00 0.79738007E+03</pdfrwt>
<pdfrwt beam="2">  1       -2 0.27962508E+00 0.79738007E+03</pdfrwt>
<totfact> 0.17434615E+00</totfact>
</mgrwt>
</event>
<event>
 4    2  0.2930016E-007  0.7891329E+03  0.7818608E-02  0.9734805E-01
         -2   -1    0    0    0  501 -0.00000000000E+00  0.00000000000E+00  0.38720452263E+03  0.38720452264E+03  0.25500000000E-02 0.  1.
          2   -1    0    0  501    0  0.00000000000E+00 -0.00000000000E+00 -0.21959357546E+04  0.21959357546E+04  0.25500000000E-02 0. -1.
    8880023    1    1    2    0    0 -0.15350655403E+03 -0.40664031027E+03 -0.19480083948E+04  0.21017772281E+04  0.65864270000E+03 0. -1.
    8880022    1    1    2    0    0  0.15350655403E+03  0.40664031027E+03  0.13927716275E+03  0.48136304922E+03  0.15294330000E+03 0.  0.
<mgrwt>
<rscale>  0 0.68981799E+03</rscale>
<asrwt>0</asrwt>
<pdfrwt beam="1">  1        2 0.33783626E+00 0.78913295E+03</pdfrwt>
<pdfrwt beam="2">  1       -2 0.59569928E-01 0.78913295E+03</pdfrwt>
<totfact> 0.14109713E+01</totfact>
</mgrwt>
</event>
<event>
 4    2  0.2930016E-007  0.8336153E+03  0.7818608E-02  0.9642339E-01
          2   -1    0    0  501    0  0.00000000000E+00  0.00000000000E+00  0.18248368313E+04  0.18248368313E+04  0.25500000000E-02 0. -1.
         -2   -1    0    0    0  501 -0.00000000000E+00 -0.00000000000E+00 -0.27612511456E+03  0.27612511457E+03  0.25500000000E-02 0.  1.
    8880023    1    1    2    0    0  0.38767845629E+03  0.33288097543E+03  0.65489676090E+03  0.10600963649E+04  0.65864270000E+03 0.  1.
    8880022    1    1    2    0    0 -0.38767845629E+03 -0.33288097543E+03  0.89381495586E+03  0.10408655809E+04  0.15294330000E+03 0. -1.
<mgrwt>
<rscale>  0 0.74556204E+03</rscale>
<asrwt>0</asrwt>
<pdfrwt beam="1">  1        2 0.28074412E+00 0.83361534E+03</pdfrwt>
<pdfrwt beam="2">  1       -2 0.42480788E-01 0.83361534E+03</pdfrwt>
<totfact> 0.44694130E+01</totfact>
</mgrwt>
</event>
<event>
 4    2  0.2930016E-007  0.6604020E+03  0.7818608E-02  0.1023748E+00
         -2   -1    0    0    0  501 -0.00000000000E+00  0.00000000000E+00  0.34995377520E+03  0.34995377521E+03  0.25500000000E-02 0.  1.
          2   -1    0    0  501    0  0.00000000000E+00 -0.00000000000E+00 -0.16307605817E+04  0.16307605817E+04  0.25500000000E-02 0. -1.
    8880023    1    1    2    0    0  0.67458678501E+01  0.47697696624E+02 -0.15401705469E+04  0.16757852179E+04  0.65864270000E+03 0. -1.
    8880022    1    1    2    0    0 -0.67458678501E+01 -0.47697696624E+02  0.25936374033E+03  0.30492913900E+03  0.15294330000E+03 0.  0.
<mgrwt>
<rscale>  0 0.46357899E+03</rscale>
<asrwt>0</asrwt>
<pdfrwt beam="1">  1        2 0.25088624E+00 0.66040199E+03</pdfrwt>
<pdfrwt beam="2">  1       -2 0.53839043E-01 0.66040199E+03</pdfrwt>
<totfact> 0.36101527E+01</totfact>
</mgrwt>
</event>
<event>
 4    2  0.2930016E-007  0.1239322E+04  0.7818608E-02  0.9119815E-01
          2   -1    0    0  501    0  0.00000000000E+00  0.00000000000E+00  0.10269053593E+04  0.10269053593E+04  0.25500000000E-02 0. -1.
         -2   -1    0    0    0  501 -0.00000000000E+00 -0.00000000000E+00 -0.24982924166E+04  0.24982924166E+04  0.25500000000E-02 0.  1.
    8880023    1    1    2    0    0  0.98330892204E+03  0.36771205751E+03  0.45974044310E+03  0.13218472206E+04  0.65864270000E+03 0.  0.
    8880022    1    1    2    0    0 -0.98330892204E+03 -0.36771205751E+03 -0.19311275004E+04  0.22033505553E+04  0.15294330000E+03 0.  0.
<mgrwt>
<rscale>  0 0.11920825E+04</rscale>
<asrwt>0</asrwt>
<pdfrwt beam="1">  1        2 0.15798544E+00 0.12393219E+04</pdfrwt>
<pdfrwt beam="2">  1       -2 0.38435268E+00 0.12393219E+04</pdfrwt>
<totfact> 0.22256516E-01</totfact>
</mgrwt>
</event>
<event>
 4    2  0.2930016E-007  0.6596548E+03  0.7818608E-02  0.1024513E+00
          2   -1    0    0  501    0  0.00000000000E+00  0.00000000000E+00  0.47980810901E+03  0.47980810902E+03  0.25500000000E-02 0. -1.
         -2   -1    0    0    0  501 -0.00000000000E+00 -0.00000000000E+00 -0.44690142730E+03  0.44690142731E+03  0.25500000000E-02 0.  1.
    8880023    1    1    2    0    0  0.31033999425E+02  0.19265062463E+02  0.20771426229E+03  0.69158489918E+03  0.65864270000E+03 0. -1.
    8880022    1    1    2    0    0 -0.31033999425E+02 -0.19265062463E+02 -0.17480758058E+03  0.23512463715E+03  0.15294330000E+03 0.  0.
<mgrwt>
<rscale>  0 0.46092639E+03</rscale>
<asrwt>0</asrwt>
<pdfrwt beam="1">  1        2 0.73816632E-01 0.65965480E+03</pdfrwt>
<pdfrwt beam="2">  1       -2 0.68754066E-01 0.65965480E+03</pdfrwt>
<totfact> 0.12678336E+02</totfact>
</mgrwt>
</event>
<event>
 4    2  0.2930016E-007  0.1064253E+04  0.7818608E-02  0.9301940E-01
         -2   -1    0    0    0  501 -0.00000000000E+00  0.00000000000E+00  0.46368901591E+03  0.46368901591E+03  0.25500000000E-02 0.  1.
          2   -1    0    0  501    0  0.00000000000E+00 -0.00000000000E+00 -0.20821663461E+04  0.20821663461E+04  0.25500000000E-02 0. -1.
    8880023    1    1    2    0    0  0.73214892219E+03  0.40346392782E+03 -0.11818775579E+04  0.15904307446E+04  0.65864270000E+03 0.  0.
    8880022    1    1    2    0    0 -0.73214892219E+03 -0.40346392782E+03 -0.43659977228E+03  0.95542461738E+03  0.15294330000E+03 0.  0.
<mgrwt>
<rscale>  0 0.10060446E+04</rscale>
<asrwt>0</asrwt>
<pdfrwt beam="1">  1        2 0.32033328E+00 0.10642534E+04</pdfrwt>
<pdfrwt beam="2">  1       -2 0.71336772E-01 0.10642534E+04</pdfrwt>
<totfact> 0.10689980E+01</totfact>
</mgrwt>
</event>
<event>
 4    2  0.2975964E-007  0.8368061E+03  0.7818608E-02  0.9636232E-01
         -2   -1    0    0    0  501 -0.00000000000E+00  0.00000000000E+00  0.70716560634E+03  0.70716560635E+03  0.25500000000E-02 0.  1.
          2   -1    0    0  501    0  0.00000000000E+00 -0.00000000000E+00 -0.30243901652E+04  0.30243901652E+04  0.25500000000E-02 0. -1.
    8880023    1    1    2    0    0 -0.29799710730E+03  0.42146415805E+03 -0.28523029787E+04  0.29725202777E+04  0.65864270000E+03 0. -1.
    8880022    1    1    2    0    0  0.29799710730E+03 -0.42146415805E+03  0.53507841989E+03  0.75903549385E+03  0.15294330000E+03 0.  0.
<mgrwt>
<rscale>  0 0.74943816E+03</rscale>
<asrwt>0</asrwt>
<pdfrwt beam="1">  1        2 0.46529079E+00 0.83680614E+03</pdfrwt>
<pdfrwt beam="2">  1       -2 0.10879471E+00 0.83680614E+03</pdfrwt>
<totfact> 0.11905269E+00</totfact>
</mgrwt>
</event>
<event>
 4    2  0.2930016E-007  0.8679657E+03  0.7818608E-02  0.9579548E-01
          2   -1    0    0  501    0  0.00000000000E+00  0.00000000000E+00  0.20220201992E+04  0.20220201992E+04  0.25500000000E-02 0. -1.
         -2   -1    0    0    0  501 -0.00000000000E+00 -0.00000000000E+00 -0.32648606540E+03  0.32648606541E+03  0.25500000000E-02 0.  1.
    8880023    1    1    2    0    0 -0.45261659201E+03  0.33866272057E+03  0.14964968479E+04  0.17299905317E+04  0.65864270000E+03 0. -1.
    8880022    1    1    2    0    0  0.45261659201E+03 -0.33866272057E+03  0.19903728586E+03  0.61851573290E+03  0.15294330000E+03 0.  0.
<mgrwt>
<rscale>  0 0.78664740E+03</rscale>
<asrwt>0</asrwt>
<pdfrwt beam="1">  1        2 0.31108003E+00 0.86796568E+03</pdfrwt>
<pdfrwt beam="2">  1       -2 0.50228626E-01 0.86796568E+03</pdfrwt>
<totfact> 0.24804345E+01</totfact>
</mgrwt>
</event>
<event>
 4    2  0.2930016E-007  0.7155091E+03  0.7818608E-02  0.9938085E-01
         -2   -1    0    0    0  501 -0.00000000000E+00  0.00000000000E+00  0.32006960377E+03  0.32006960378E+03  0.25500000000E-02 0.  1.
          2   -1    0    0  501    0  0.00000000000E+00 -0.00000000000E+00 -0.14028138560E+04  0.14028138560E+04  0.25500000000E-02 0. -1.
    8880023    1    1    2    0    0  0.24672750748E+03  0.13141015656E+03 -0.11884049463E+04  0.13871768506E+04  0.65864270000E+03 0. -1.
    8880022    1    1    2    0    0 -0.24672750748E+03 -0.13141015656E+03  0.10566069403E+03  0.33570660922E+03  0.15294330000E+03 0.  0.
<mgrwt>
<rscale>  0 0.58450498E+03</rscale>
<asrwt>0</asrwt>
<pdfrwt beam="1">  1        2 0.21581751E+00 0.71550912E+03</pdfrwt>
<pdfrwt beam="2">  1       -2 0.49241478E-01 0.71550912E+03</pdfrwt>
<totfact> 0.57601222E+01</totfact>
</mgrwt>
</event>
<event>
 4    2  0.2930016E-007  0.1086802E+04  0.7818608E-02  0.9275894E-01
          2   -1    0    0  501    0  0.00000000000E+00  0.00000000000E+00  0.29379864489E+04  0.29379864489E+04  0.25500000000E-02 0. -1.
         -2   -1    0    0    0  501 -0.00000000000E+00 -0.00000000000E+00 -0.71112385638E+03  0.71112385638E+03  0.25500000000E-02 0.  1.
    8880023    1    1    2    0    0 -0.56158523424E+03  0.65723002683E+03  0.25030294676E+04  0.27287902091E+04  0.65864270000E+03 0. -1.
    8880022    1    1    2    0    0  0.56158523424E+03 -0.65723002683E+03 -0.27616687507E+03  0.92032009616E+03  0.15294330000E+03 0.  0.
<mgrwt>
<rscale>  0 0.10303270E+04</rscale>
<asrwt>0</asrwt>
<pdfrwt beam="1">  1        2 0.45199791E+00 0.10868024E+04</pdfrwt>
<pdfrwt beam="2">  1       -2 0.10940367E+00 0.10868024E+04</pdfrwt>
<totfact> 0.12720189E+00</totfact>
</mgrwt>
</event>
<event>
 4    2  0.2930016E-007  0.1177593E+04  0.7818608E-02  0.9179218E-01
          2   -1    0    0  501    0  0.00000000000E+00  0.00000000000E+00  0.72081576403E+03  0.72081576403E+03  0.25500000000E-02 0. -1.
         -2   -1    0    0    0  501 -0.00000000000E+00 -0.00000000000E+00 -0.23580779764E+04  0.23580779764E+04  0.25500000000E-02 0.  1.
    8880023    1    1    2    0    0  0.83107600764E+03  0.51208093201E+03 -0.12956515414E+02  0.11776639117E+04  0.65864270000E+03 0.  0.
    8880022    1    1    2    0    0 -0.83107600764E+03 -0.51208093201E+03 -0.16243056970E+04  0.19012298287E+04  0.15294330000E+03 0.  0.
<mgrwt>
<rscale>  0 0.11270535E+04</rscale>
<asrwt>0</asrwt>
<pdfrwt beam="1">  1        2 0.11089473E+00 0.11775926E+04</pdfrwt>
<pdfrwt beam="2">  1       -2 0.36278122E+00 0.11775926E+04</pdfrwt>
<totfact> 0.50459969E-01</totfact>
</mgrwt>
</event>
<event>
 4    2  0.2930016E-007  0.8832957E+03  0.7818608E-02  0.9553398E-01
         -2   -1    0    0    0  501 -0.00000000000E+00  0.00000000000E+00  0.36620476279E+03  0.36620476280E+03  0.25500000000E-02 0.  1.
          2   -1    0    0  501    0  0.00000000000E+00 -0.00000000000E+00 -0.32054009358E+04  0.32054009358E+04  0.25500000000E-02 0. -1.
    8880023    1    1    2    0    0 -0.58100290376E+03  0.94003804486E+02 -0.25866294050E+03  0.92039003280E+03  0.65864270000E+03 0.  0.
    8880022    1    1    2    0    0  0.58100290376E+03 -0.94003804486E+02 -0.25805332325E+04  0.26512156658E+04  0.15294330000E+03 0.  0.
<mgrwt>
<rscale>  0 0.80458955E+03</rscale>
<asrwt>0</asrwt>
<pdfrwt beam="1">  1        2 0.49313859E+00 0.88329570E+03</pdfrwt>
<pdfrwt beam="2">  1       -2 0.56339196E-01 0.88329570E+03</pdfrwt>
<totfact> 0.39840442E+00</totfact>
</mgrwt>
</event>
<event>
 4    2  0.2930016E-007  0.6997388E+03  0.7818608E-02  0.9998287E-01
          2   -1    0    0  501    0  0.00000000000E+00  0.00000000000E+00  0.44107789059E+04  0.44107789059E+04  0.25500000000E-02 0. -1.
         -2   -1    0    0    0  501 -0.00000000000E+00 -0.00000000000E+00 -0.97398101502E+02  0.97398101536E+02  0.25500000000E-02 0.  1.
    8880023    1    1    2    0    0  0.19799683863E+03 -0.12892386990E+03  0.40884167376E+04  0.41478652026E+04  0.65864270000E+03 0. -1.
    8880022    1    1    2    0    0 -0.19799683863E+03  0.12892386990E+03  0.22496406678E+03  0.36031180482E+03  0.15294330000E+03 0.  0.
<mgrwt>
<rscale>  0 0.55725426E+03</rscale>
<asrwt>0</asrwt>
<pdfrwt beam="1">  1        2 0.67858138E+00 0.69973875E+03</pdfrwt>
<pdfrwt beam="2">  1       -2 0.14984323E-01 0.69973875E+03</pdfrwt>
<totfact> 0.59927098E+00</totfact>
</mgrwt>
</event>
<event>
 4    2  0.2930016E-007  0.7326811E+03  0.7818608E-02  0.9881803E-01
         -2   -1    0    0    0  501 -0.00000000000E+00  0.00000000000E+00  0.13668683704E+04  0.13668683704E+04  0.25500000000E-02 0.  1.
          2   -1    0    0  501    0  0.00000000000E+00 -0.00000000000E+00 -0.52972424279E+03  0.52972424279E+03  0.25500000000E-02 0. -1.
    8880023    1    1    2    0    0  0.32058097246E+03 -0.15465040843E+02 -0.23307825541E+03  0.76886085009E+03  0.65864270000E+03 0. -1.
    8880022    1    1    2    0    0 -0.32058097246E+03  0.15465040843E+02  0.10702223830E+04  0.11277317631E+04  0.15294330000E+03 0.  0.
<mgrwt>
<rscale>  0 0.61151327E+03</rscale>
<asrwt>0</asrwt>
<pdfrwt beam="1">  1        2 0.81496038E-01 0.73268106E+03</pdfrwt>
<pdfrwt beam="2">  1       -2 0.21028744E+00 0.73268106E+03</pdfrwt>
<totfact> 0.67158408E+00</totfact>
</mgrwt>
</event>
<event>
 4    2  0.2930016E-007  0.7854944E+03  0.7818608E-02  0.9743085E-01
          2   -1    0    0  501    0  0.00000000000E+00  0.00000000000E+00  0.21461079194E+04  0.21461079194E+04  0.25500000000E-02 0. -1.
         -2   -1    0    0    0  501 -0.00000000000E+00 -0.00000000000E+00 -0.34538076332E+03  0.34538076333E+03  0.25500000000E-02 0.  1.
    8880023    1    1    2    0    0 -0.42799573690E+03 -0.33071695283E+01  0.18732063699E+04  0.20312320396E+04  0.65864270000E+03 0.  0.
    8880022    1    1    2    0    0  0.42799573690E+03  0.33071695283E+01 -0.72479213750E+02  0.46025664320E+03  0.15294330000E+03 0.  0.
<mgrwt>
<rscale>  0 0.68508449E+03</rscale>
<asrwt>0</asrwt>
<pdfrwt beam="1">  1        2 0.33017045E+00 0.78549443E+03</pdfrwt>
<pdfrwt beam="2">  1       -2 0.53135501E-01 0.78549443E+03</pdfrwt>
<totfact> 0.19087771E+01</totfact>
</mgrwt>
</event>
<event>
 4    2  0.2930016E-007  0.7130027E+03  0.7818608E-02  0.9947015E-01
          2   -1    0    0  501    0  0.00000000000E+00  0.00000000000E+00  0.15126640253E+04  0.15126640253E+04  0.25500000000E-02 0. -1.
         -2   -1    0    0    0  501 -0.00000000000E+00 -0.00000000000E+00 -0.20404170528E+03  0.20404170530E+03  0.25500000000E-02 0.  1.
    8880023    1    1    2    0    0 -0.21929824309E+03 -0.16269902468E+03  0.11792520854E+04  0.13780451296E+04  0.65864270000E+03 0.  0.
    8880022    1    1    2    0    0  0.21929824309E+03  0.16269902468E+03  0.12937023465E+03  0.33866060102E+03  0.15294330000E+03 0.  0.
<mgrwt>
<rscale>  0 0.58035851E+03</rscale>
<asrwt>0</asrwt>
<pdfrwt beam="1">  1        2 0.23271754E+00 0.71300273E+03</pdfrwt>
<pdfrwt beam="2">  1       -2 0.31391031E-01 0.71300273E+03</pdfrwt>
<totfact> 0.12002987E+02</totfact>
</mgrwt>
</event>
<event>
 4    2  0.2930016E-007  0.6839814E+03  0.7818608E-02  0.1007156E+00
          2   -1    0    0  501    0  0.00000000000E+00  0.00000000000E+00  0.21331949448E+04  0.21331949448E+04  0.25500000000E-02 0. -1.
         -2   -1    0    0    0  501 -0.00000000000E+00 -0.00000000000E+00 -0.10729831415E+03  0.10729831419E+03  0.25500000000E-02 0.  1.
    8880023    1    1    2    0    0  0.13105522853E+02 -0.18397983822E+03  0.12077391641E+04  0.13879713363E+04  0.65864270000E+03 0.  0.
    8880022    1    1    2    0    0 -0.13105522853E+02  0.18397983822E+03  0.81815746659E+03  0.85252192274E+03  0.15294330000E+03 0.  0.
<mgrwt>
<rscale>  0 0.52620932E+03</rscale>
<asrwt>0</asrwt>
<pdfrwt beam="1">  1        2 0.32818381E+00 0.68398139E+03</pdfrwt>
<pdfrwt beam="2">  1       -2 0.16507434E-01 0.68398139E+03</pdfrwt>
<totfact> 0.17330579E+02</totfact>
</mgrwt>
</event>
<event>
 4    2  0.2930016E-007  0.7486421E+03  0.7818608E-02  0.9835453E-01
         -2   -1    0    0    0  501 -0.00000000000E+00  0.00000000000E+00  0.31520882454E+03  0.31520882455E+03  0.25500000000E-02 0.  1.
          2   -1    0    0  501    0  0.00000000000E+00 -0.00000000000E+00 -0.13254138932E+04  0.13254138932E+04  0.25500000000E-02 0. -1.
    8880023    1    1    2    0    0  0.17393863351E+03 -0.31048360421E+03 -0.10050477580E+04  0.12532301939E+04  0.65864270000E+03 0.  0.
    8880022    1    1    2    0    0 -0.17393863351E+03  0.31048360421E+03 -0.51573106886E+01  0.38739252391E+03  0.15294330000E+03 0.  0.
<mgrwt>
<rscale>  0 0.63494170E+03</rscale>
<asrwt>0</asrwt>
<pdfrwt beam="1">  1        2 0.20390983E+00 0.74864205E+03</pdfrwt>
<pdfrwt beam="2">  1       -2 0.48493666E-01 0.74864205E+03</pdfrwt>
<totfact> 0.65538397E+01</totfact>
</mgrwt>
</event>
<event>
 4    2  0.2930016E-007  0.6774091E+03  0.7818608E-02  0.1010829E+00
          2   -1    0    0  501    0  0.00000000000E+00  0.00000000000E+00  0.27581799746E+04  0.27581799746E+04  0.25500000000E-02 0. -1.
         -2   -1    0    0    0  501 -0.00000000000E+00 -0.00000000000E+00 -0.26138234187E+03  0.26138234188E+03  0.25500000000E-02 0.  1.
    8880023    1    1    2    0    0  0.72572494763E+02  0.14073421616E+03  0.26603949020E+04  0.27452839794E+04  0.65864270000E+03 0. -1.
    8880022    1    1    2    0    0 -0.72572494763E+02 -0.14073421616E+03 -0.16359726936E+03  0.27427833701E+03  0.15294330000E+03 0.  0.
<mgrwt>
<rscale>  0 0.51146543E+03</rscale>
<asrwt>0</asrwt>
<pdfrwt beam="1">  1        2 0.42433536E+00 0.67740910E+03</pdfrwt>
<pdfrwt beam="2">  1       -2 0.40212670E-01 0.67740910E+03</pdfrwt>
<totfact> 0.15311603E+01</totfact>
</mgrwt>
</event>
<event>
 4    2  0.2930016E-007  0.7688256E+03  0.7818608E-02  0.9782772E-01
         -2   -1    0    0    0  501 -0.00000000000E+00  0.00000000000E+00  0.92308100423E+03  0.92308100423E+03  0.25500000000E-02 0.  1.
          2   -1    0    0  501    0  0.00000000000E+00 -0.00000000000E+00 -0.64434991621E+03  0.64434991622E+03  0.25500000000E-02 0. -1.
    8880023    1    1    2    0    0  0.86783989129E+02 -0.38697687562E+03 -0.32033194928E+03  0.83288974482E+03  0.65864270000E+03 0. -1.
    8880022    1    1    2    0    0 -0.86783989129E+02  0.38697687562E+03  0.59906303729E+03  0.73454117563E+03  0.15294330000E+03 0.  0.
<mgrwt>
<rscale>  0 0.66295323E+03</rscale>
<asrwt>0</asrwt>
<pdfrwt beam="1">  1        2 0.99130756E-01 0.76882558E+03</pdfrwt>
<pdfrwt beam="2">  1       -2 0.14201246E+00 0.76882558E+03</pdfrwt>
<totfact> 0.15923677E+01</totfact>
</mgrwt>
</event>
<event>
 4    2  0.2930016E-007  0.6921503E+03  0.7818608E-02  0.1003147E+00
          2   -1    0    0  501    0  0.00000000000E+00  0.00000000000E+00  0.22525952853E+04  0.22525952853E+04  0.25500000000E-02 0. -1.
         -2   -1    0    0    0  501 -0.00000000000E+00 -0.00000000000E+00 -0.47370849143E+03  0.47370849144E+03  0.25500000000E-02 0.  1.
    8880023    1    1    2    0    0  0.12989179785E+03  0.16849319290E+03  0.21575345473E+04  0.22658392185E+04  0.65864270000E+03 0. -1.
    8880022    1    1    2    0    0 -0.12989179785E+03 -0.16849319290E+03 -0.37864775341E+03  0.46046455822E+03  0.15294330000E+03 0.  0.
<mgrwt>
<rscale>  0 0.54291662E+03</rscale>
<asrwt>0</asrwt>
<pdfrwt beam="1">  1        2 0.34655312E+00 0.69215030E+03</pdfrwt>
<pdfrwt beam="2">  1       -2 0.72878230E-01 0.69215030E+03</pdfrwt>
<totfact> 0.86352012E+00</totfact>
</mgrwt>
</event>
<event>
 4    2  0.2930016E-007  0.6651206E+03  0.7818608E-02  0.1019432E+00
         -2   -1    0    0    0  501 -0.00000000000E+00  0.00000000000E+00  0.79586793572E+02  0.79586793613E+02  0.25500000000E-02 0.  1.
          2   -1    0    0  501    0  0.00000000000E+00 -0.00000000000E+00 -0.42152162217E+04  0.42152162217E+04  0.25500000000E-02 0. -1.
    8880023    1    1    2    0    0 -0.42971236837E+02  0.82028898262E+02 -0.40353735448E+04  0.40898196929E+04  0.65864270000E+03 0. -1.
    8880022    1    1    2    0    0  0.42971236837E+02 -0.82028898262E+02 -0.10025588331E+03  0.20498332249E+03  0.15294330000E+03 0.  0.
<mgrwt>
<rscale>  0 0.47891994E+03</rscale>
<asrwt>0</asrwt>
<pdfrwt beam="1">  1        2 0.64849463E+00 0.66512065E+03</pdfrwt>
<pdfrwt beam="2">  1       -2 0.12244125E-01 0.66512065E+03</pdfrwt>
<totfact> 0.12588551E+01</totfact>
</mgrwt>
</event>
<event>
 4    2  0.2930016E-007  0.8521960E+03  0.7818608E-02  0.9607599E-01
         -2   -1    0    0    0  501 -0.00000000000E+00  0.00000000000E+00  0.38089365869E+03  0.38089365870E+03  0.25500000000E-02 0.  1.
          2   -1    0    0  501    0  0.00000000000E+00 -0.00000000000E+00 -0.16021445785E+04  0.16021445785E+04  0.25500000000E-02 0. -1.
    8880023    1    1    2    0    0 -0.48644029024E+03  0.23622796324E+03 -0.11274470162E+04  0.14132851047E+04  0.65864270000E+03 0.  0.
    8880022    1    1    2    0    0  0.48644029024E+03 -0.23622796324E+03 -0.93803903552E+02  0.56975313244E+03  0.15294330000E+03 0.  0.
<mgrwt>
<rscale>  0 0.76795271E+03</rscale>
<asrwt>0</asrwt>
<pdfrwt beam="1">  1        2 0.24648378E+00 0.85219599E+03</pdfrwt>
<pdfrwt beam="2">  1       -2 0.58599025E-01 0.85219599E+03</pdfrwt>
<totfact> 0.30685065E+01</totfact>
</mgrwt>
</event>
<event>
 4    2  0.2930016E-007  0.8666463E+03  0.7818608E-02  0.9581849E-01
          2   -1    0    0  501    0  0.00000000000E+00  0.00000000000E+00  0.24478080375E+04  0.24478080375E+04  0.25500000000E-02 0. -1.
         -2   -1    0    0    0  501 -0.00000000000E+00 -0.00000000000E+00 -0.34356213243E+03  0.34356213244E+03  0.25500000000E-02 0.  1.
    8880023    1    1    2    0    0  0.11424244851E+02  0.56314748527E+03  0.20246160132E+04  0.22023046590E+04  0.65864270000E+03 0. -1.
    8880022    1    1    2    0    0 -0.11424244851E+02 -0.56314748527E+03  0.79629891818E+02  0.58906551098E+03  0.15294330000E+03 0.  0.
<mgrwt>
<rscale>  0 0.78509303E+03</rscale>
<asrwt>0</asrwt>
<pdfrwt beam="1">  1        2 0.37658587E+00 0.86664630E+03</pdfrwt>
<pdfrwt beam="2">  1       -2 0.52855710E-01 0.86664630E+03</pdfrwt>
<totfact> 0.12955558E+01</totfact>
</mgrwt>
</event>
<event>
 4    2  0.2930016E-007  0.7588517E+03  0.7818608E-02  0.9808089E-01
          2   -1    0    0  501    0  0.00000000000E+00  0.00000000000E+00  0.25954438633E+04  0.25954438633E+04  0.25500000000E-02 0. -1.
         -2   -1    0    0    0  501 -0.00000000000E+00 -0.00000000000E+00 -0.13486665438E+03  0.13486665440E+03  0.25500000000E-02 0.  1.
    8880023    1    1    2    0    0 -0.36281503117E+03  0.10203404071E+03  0.18154347689E+04  0.19676532466E+04  0.65864270000E+03 0. -1.
    8880022    1    1    2    0    0  0.36281503117E+03 -0.10203404071E+03  0.64514244003E+03  0.76265727115E+03  0.15294330000E+03 0.  1.
<mgrwt>
<rscale>  0 0.64930220E+03</rscale>
<asrwt>0</asrwt>
<pdfrwt beam="1">  1        2 0.39929904E+00 0.75885170E+03</pdfrwt>
<pdfrwt beam="2">  1       -2 0.20748717E-01 0.75885170E+03</pdfrwt>
<totfact> 0.63769044E+01</totfact>
</mgrwt>
</event>
<event>
 4    2  0.2930016E-007  0.6836808E+03  0.7818608E-02  0.1007314E+00
         -2   -1    0    0    0  501 -0.00000000000E+00  0.00000000000E+00  0.74535172556E+03  0.74535172557E+03  0.25500000000E-02 0.  1.
          2   -1    0    0  501    0  0.00000000000E+00 -0.00000000000E+00 -0.40320052218E+03  0.40320052219E+03  0.25500000000E-02 0. -1.
    8880023    1    1    2    0    0  0.15610364278E+03 -0.96129740636E+02 -0.54223674423E+02  0.68582773891E+03  0.65864270000E+03 0. -1.
    8880022    1    1    2    0    0 -0.15610364278E+03  0.96129740636E+02  0.39637487780E+03  0.46272450885E+03  0.15294330000E+03 0.  0.
<mgrwt>
<rscale>  0 0.52556362E+03</rscale>
<asrwt>0</asrwt>
<pdfrwt beam="1">  1        2 0.62030850E-01 0.68368083E+03</pdfrwt>
<pdfrwt beam="2">  1       -2 0.11466950E+00 0.68368083E+03</pdfrwt>
<totfact> 0.47532503E+01</totfact>
</mgrwt>
</event>
<event>
 4    2  0.2930016E-007  0.8843624E+03  0.7818608E-02  0.9551616E-01
         -2   -1    0    0    0  501 -0.00000000000E+00  0.00000000000E+00  0.51229852244E+03  0.51229852244E+03  0.25500000000E-02 0.  1.
          2   -1    0    0  501    0  0.00000000000E+00 -0.00000000000E+00 -0.15121349158E+04  0.15121349158E+04  0.25500000000E-02 0. -1.
    8880023    1    1    2    0    0 -0.54895680014E+03  0.21664050240E+03 -0.37401080936E+02  0.88515293753E+03  0.65864270000E+03 0.  0.
    8880022    1    1    2    0    0  0.54895680014E+03 -0.21664050240E+03 -0.96243531243E+03  0.11392805007E+04  0.15294330000E+03 0.  0.
<mgrwt>
<rscale>  0 0.80583034E+03</rscale>
<asrwt>0</asrwt>
<pdfrwt beam="1">  1        2 0.23263614E+00 0.88436242E+03</pdfrwt>
<pdfrwt beam="2">  1       -2 0.78815158E-01 0.88436242E+03</pdfrwt>
<totfact> 0.18016249E+01</totfact>
</mgrwt>
</event>
<event>
 4    2  0.2930016E-007  0.7642762E+03  0.7818608E-02  0.9794160E-01
          2   -1    0    0  501    0  0.00000000000E+00  0.00000000000E+00  0.10432329532E+04  0.10432329532E+04  0.25500000000E-02 0. -1.
         -2   -1    0    0    0  501 -0.00000000000E+00 -0.00000000000E+00 -0.41901704256E+03  0.41901704256E+03  0.25500000000E-02 0.  1.
    8880023    1    1    2    0    0  0.31839120054E+03  0.22121253585E+03  0.70261815778E+03  0.10381668577E+04  0.65864270000E+03 0.  0.
    8880022    1    1    2    0    0 -0.31839120054E+03 -0.22121253585E+03 -0.78402247135E+02  0.42408313803E+03  0.15294330000E+03 0.  0.
<mgrwt>
<rscale>  0 0.65676895E+03</rscale>
<asrwt>0</asrwt>
<pdfrwt beam="1">  1        2 0.16049738E+00 0.76427623E+03</pdfrwt>
<pdfrwt beam="2">  1       -2 0.64464161E-01 0.76427623E+03</pdfrwt>
<totfact> 0.53299589E+01</totfact>
</mgrwt>
</event>
<event>
 4    2  0.2930016E-007  0.1326708E+04  0.7818608E-02  0.9042832E-01
         -2   -1    0    0    0  501 -0.00000000000E+00  0.00000000000E+00  0.88503040793E+03  0.88503040793E+03  0.25500000000E-02 0.  1.
          2   -1    0    0  501    0  0.00000000000E+00 -0.00000000000E+00 -0.25211744970E+04  0.25211744970E+04  0.25500000000E-02 0. -1.
    8880023    1    1    2    0    0 -0.10926940594E+04 -0.36381756362E+03 -0.17966312406E+04  0.22333914901E+04  0.65864270000E+03 0.  0.
    8880022    1    1    2    0    0  0.10926940594E+04  0.36381756362E+03  0.16048715156E+03  0.11728134148E+04  0.15294330000E+03 0.  0.
<mgrwt>
<rscale>  0 0.12834015E+04</rscale>
<asrwt>0</asrwt>
<pdfrwt beam="1">  1        2 0.38787300E+00 0.13267079E+04</pdfrwt>
<pdfrwt beam="2">  1       -2 0.13615853E+00 0.13267079E+04</pdfrwt>
<totfact> 0.12598280E+00</totfact>
</mgrwt>
</event>
<event>
 4    2  0.2930016E-007  0.9050352E+03  0.7818608E-02  0.9517996E-01
         -2   -1    0    0    0  501 -0.00000000000E+00  0.00000000000E+00  0.39270595466E+03  0.39270595467E+03  0.25500000000E-02 0.  1.
          2   -1    0    0  501    0  0.00000000000E+00 -0.00000000000E+00 -0.16636546615E+04  0.16636546615E+04  0.25500000000E-02 0. -1.
    8880023    1    1    2    0    0  0.66452397961E+02 -0.61714067032E+03 -0.43543393237E+03  0.10043363201E+04  0.65864270000E+03 0.  0.
    8880022    1    1    2    0    0 -0.66452397961E+02  0.61714067032E+03 -0.83551477448E+03  0.10520242961E+04  0.15294330000E+03 0.  0.
<mgrwt>
<rscale>  0 0.82969930E+03</rscale>
<asrwt>0</asrwt>
<pdfrwt beam="1">  1        2 0.25594687E+00 0.90503521E+03</pdfrwt>
<pdfrwt beam="2">  1       -2 0.60416302E-01 0.90503521E+03</pdfrwt>
<totfact> 0.26459538E+01</totfact>
</mgrwt>
</event>
<event>
 4    2  0.2930016E-007  0.6793017E+03  0.7818608E-02  0.1009721E+00
          2   -1    0    0  501    0  0.00000000000E+00  0.00000000000E+00  0.31123486553E+04  0.31123486553E+04  0.25500000000E-02 0. -1.
         -2   -1    0    0    0  501 -0.00000000000E+00 -0.00000000000E+00 -0.14034669614E+03  0.14034669617E+03  0.25500000000E-02 0.  1.
    8880023    1    1    2    0    0  0.75719295127E+02  0.14801072174E+03  0.29483080337E+04  0.30255530161E+04  0.65864270000E+03 0.  0.
    8880022    1    1    2    0    0 -0.75719295127E+02 -0.14801072174E+03  0.23693925476E+02  0.22714233539E+03  0.15294330000E+03 0.  1.
<mgrwt>
<rscale>  0 0.51585495E+03</rscale>
<asrwt>0</asrwt>
<pdfrwt beam="1">  1        2 0.47882286E+00 0.67930169E+03</pdfrwt>
<pdfrwt beam="2">  1       -2 0.21591800E-01 0.67930169E+03</pdfrwt>
<totfact> 0.29579280E+01</totfact>
</mgrwt>
</event>
<event>
 4    2  0.2930016E-007  0.6899490E+03  0.7818608E-02  0.1004177E+00
          2   -1    0    0  501    0  0.00000000000E+00  0.00000000000E+00  0.25975214038E+04  0.25975214038E+04  0.25500000000E-02 0. -1.
         -2   -1    0    0    0  501 -0.00000000000E+00 -0.00000000000E+00 -0.17764246020E+03  0.17764246022E+03  0.25500000000E-02 0.  1.
    8880023    1    1    2    0    0 -0.20429902825E+03 -0.21940594948E+02  0.24226722880E+04  0.25190019262E+04  0.65864270000E+03 0. -1.
    8880022    1    1    2    0    0  0.20429902825E+03  0.21940594948E+02 -0.27933443618E+01  0.25616193792E+03  0.15294330000E+03 0.  0.
<mgrwt>
<rscale>  0 0.53856107E+03</rscale>
<asrwt>0</asrwt>
<pdfrwt beam="1">  1        2 0.39961865E+00 0.68994905E+03</pdfrwt>
<pdfrwt beam="2">  1       -2 0.27329611E-01 0.68994905E+03</pdfrwt>
<totfact> 0.39201818E+01</totfact>
</mgrwt>
</event>
<event>
 4    2  0.2930016E-007  0.7702392E+03  0.7818608E-02  0.9779286E-01
          2   -1    0    0  501    0  0.00000000000E+00  0.00000000000E+00  0.44516608798E+03  0.44516608799E+03  0.25500000000E-02 0. -1.
         -2   -1    0    0    0  501 -0.00000000000E+00 -0.00000000000E+00 -0.82125513067E+03  0.82125513067E+03  0.25500000000E-02 0.  1.
    8880023    1    1    2    0    0 -0.85610542051E+02  0.39003722025E+03 -0.15748669269E+03  0.78617457523E+03  0.65864270000E+03 0.  0.
    8880022    1    1    2    0    0  0.85610542051E+02 -0.39003722025E+03 -0.21860234999E+03  0.48024664344E+03  0.15294330000E+03 0.  0.
<mgrwt>
<rscale>  0 0.66486127E+03</rscale>
<asrwt>0</asrwt>
<pdfrwt beam="1">  1        2 0.68487091E-01 0.77023919E+03</pdfrwt>
<pdfrwt beam="2">  1       -2 0.12634694E+00 0.77023919E+03</pdfrwt>
<totfact> 0.33209073E+01</totfact>
</mgrwt>
</event>
<event>
 4    2  0.2930016E-007  0.8261432E+03  0.7818608E-02  0.9656884E-01
          2   -1    0    0  501    0  0.00000000000E+00  0.00000000000E+00  0.10294866261E+04  0.10294866261E+04  0.25500000000E-02 0. -1.
         -2   -1    0    0    0  501 -0.00000000000E+00 -0.00000000000E+00 -0.89533342624E+03  0.89533342624E+03  0.25500000000E-02 0.  1.
    8880023    1    1    2    0    0 -0.67847383897E+02  0.49406379677E+03  0.75135748562E+03  0.11167141891E+04  0.65864270000E+03 0. -1.
    8880022    1    1    2    0    0  0.67847383897E+02 -0.49406379677E+03 -0.61720428575E+03  0.80810586320E+03  0.15294330000E+03 0.  0.
<mgrwt>
<rscale>  0 0.73642978E+03</rscale>
<asrwt>0</asrwt>
<pdfrwt beam="1">  1        2 0.15838256E+00 0.82614315E+03</pdfrwt>
<pdfrwt beam="2">  1       -2 0.13774360E+00 0.82614315E+03</pdfrwt>
<totfact> 0.91174051E+00</totfact>
</mgrwt>
</event>
<event>
 4    2  0.3725851E-007  0.7303886E+03  0.7818608E-02  0.9888884E-01
          2   -1    0    0  501    0  0.00000000000E+00  0.00000000000E+00  0.18304837534E+04  0.18304837534E+04  0.25500000000E-02 0. -1.
         -2   -1    0    0    0  501 -0.00000000000E+00 -0.00000000000E+00 -0.76273845727E+03  0.76273845727E+03  0.25500000000E-02 0.  1.
    8880023    1    1    2    0    0 -0.24627626079E+03  0.19749761403E+03  0.17110918849E+04  0.18604577257E+04  0.65864270000E+03 0. -1.
    8880022    1    1    2    0    0  0.24627626079E+03 -0.19749761403E+03 -0.64334658877E+03  0.73276448500E+03  0.15294330000E+03 0.  0.
<mgrwt>
<rscale>  0 0.60803032E+03</rscale>
<asrwt>0</asrwt>
<pdfrwt beam="1">  1        2 0.28161288E+00 0.73038860E+03</pdfrwt>
<pdfrwt beam="2">  1       -2 0.11734438E+00 0.73038860E+03</pdfrwt>
<totfact> 0.48227018E+00</totfact>
</mgrwt>
</event>
<event>
 4    2  0.2930016E-007  0.8749266E+03  0.7818608E-02  0.9567544E-01
          2   -1    0    0  501    0  0.00000000000E+00  0.00000000000E+00  0.44709158912E+03  0.44709158912E+03  0.25500000000E-02 0. -1.
         -2   -1    0    0    0  501 -0.00000000000E+00 -0.00000000000E+00 -0.23493685958E+04  0.23493685958E+04  0.25500000000E-02 0.  1.
    8880023    1    1    2    0    0  0.51946460359E+03 -0.24868226746E+03 -0.79239892071E+02  0.87850754766E+03  0.65864270000E+03 0.  0.
    8880022    1    1    2    0    0 -0.51946460359E+03  0.24868226746E+03 -0.18230371146E+04  0.19179526372E+04  0.15294330000E+03 0.  1.
<mgrwt>
<rscale>  0 0.79482073E+03</rscale>
<asrwt>0</asrwt>
<pdfrwt beam="1">  1        2 0.68783323E-01 0.87492660E+03</pdfrwt>
<pdfrwt beam="2">  1       -2 0.36144132E+00 0.87492660E+03</pdfrwt>
<totfact> 0.95463985E-01</totfact>
</mgrwt>
</event>
<event>
 4    2  0.2930016E-007  0.7983647E+03  0.7818608E-02  0.9714343E-01
          2   -1    0    0  501    0  0.00000000000E+00  0.00000000000E+00  0.32174709899E+04  0.32174709899E+04  0.25500000000E-02 0. -1.
         -2   -1    0    0    0  501 -0.00000000000E+00 -0.00000000000E+00 -0.23343256410E+03  0.23343256411E+03  0.25500000000E-02 0.  1.
    8880023    1    1    2    0    0 -0.42087550232E+03 -0.16260342389E+03  0.54710357859E+03  0.96783706990E+03  0.65864270000E+03 0.  1.
    8880022    1    1    2    0    0  0.42087550232E+03  0.16260342389E+03  0.24369348472E+04  0.24830664841E+04  0.15294330000E+03 0.  0.
<mgrwt>
<rscale>  0 0.70169200E+03</rscale>
<asrwt>0</asrwt>
<pdfrwt beam="1">  1        2 0.49499550E+00 0.79836475E+03</pdfrwt>
<pdfrwt beam="2">  1       -2 0.35912705E-01 0.79836475E+03</pdfrwt>
<totfact> 0.97703565E+00</totfact>
</mgrwt>
</event>
<event>
 4    2  0.2930016E-007  0.8516729E+03  0.7818608E-02  0.9608551E-01
         -2   -1    0    0    0  501 -0.00000000000E+00  0.00000000000E+00  0.56566509011E+03  0.56566509011E+03  0.25500000000E-02 0.  1.
          2   -1    0    0  501    0  0.00000000000E+00 -0.00000000000E+00 -0.17799178504E+04  0.17799178504E+04  0.25500000000E-02 0. -1.
    8880023    1    1    2    0    0  0.49200883484E+03  0.22240482919E+03 -0.14931117363E+04  0.17189326528E+04  0.65864270000E+03 0. -1.
    8880022    1    1    2    0    0 -0.49200883484E+03 -0.22240482919E+03  0.27885897597E+03  0.62665028772E+03  0.15294330000E+03 0.  0.
<mgrwt>
<rscale>  0 0.76732808E+03</rscale>
<asrwt>0</asrwt>
<pdfrwt beam="1">  1        2 0.27383351E+00 0.85167295E+03</pdfrwt>
<pdfrwt beam="2">  1       -2 0.87025399E-01 0.85167295E+03</pdfrwt>
<totfact> 0.10272627E+01</totfact>
</mgrwt>
</event>
<event>
 4    2  0.2930016E-007  0.6595987E+03  0.7818608E-02  0.1024571E+00
          2   -1    0    0  501    0  0.00000000000E+00  0.00000000000E+00  0.14987521112E+04  0.14987521112E+04  0.25500000000E-02 0. -1.
         -2   -1    0    0    0  501 -0.00000000000E+00 -0.00000000000E+00 -0.29328947914E+03  0.29328947915E+03  0.25500000000E-02 0.  1.
    8880023    1    1    2    0    0 -0.35491881246E+02  0.79355355965E+00  0.13966943189E+04  0.15446117732E+04  0.65864270000E+03 0. -1.
    8880022    1    1    2    0    0  0.35491881246E+02 -0.79355355965E+00 -0.19123168679E+03  0.24742981714E+03  0.15294330000E+03 0.  0.
<mgrwt>
<rscale>  0 0.46072448E+03</rscale>
<asrwt>0</asrwt>
<pdfrwt beam="1">  1        2 0.23057725E+00 0.65959875E+03</pdfrwt>
<pdfrwt beam="2">  1       -2 0.45121457E-01 0.65959875E+03</pdfrwt>
<totfact> 0.61050664E+01</totfact>
</mgrwt>
</event>
<event>
 4    2  0.2930016E-007  0.9274296E+03  0.7818608E-02  0.9483360E-01
         -2   -1    0    0    0  501 -0.00000000000E+00  0.00000000000E+00  0.76009209554E+03  0.76009209554E+03  0.25500000000E-02 0.  1.
          2   -1    0    0  501    0  0.00000000000E+00 -0.00000000000E+00 -0.19616056361E+04  0.19616056361E+04  0.25500000000E-02 0. -1.
    8880023    1    1    2    0    0  0.41967414312E+03  0.50018911109E+03 -0.16654436030E+04  0.19062602483E+04  0.65864270000E+03 0.  0.
    8880022    1    1    2    0    0 -0.41967414312E+03 -0.50018911109E+03  0.46393006249E+03  0.81543748328E+03  0.15294330000E+03 0.  0.
<mgrwt>
<rscale>  0 0.85521825E+03</rscale>
<asrwt>0</asrwt>
<pdfrwt beam="1">  1        2 0.30178548E+00 0.92742964E+03</pdfrwt>
<pdfrwt beam="2">  1       -2 0.11693725E+00 0.92742964E+03</pdfrwt>
<totfact> 0.40047894E+00</totfact>
</mgrwt>
</event>
<event>
 4    2  0.2930016E-007  0.7238128E+03  0.7818608E-02  0.9909890E-01
         -2   -1    0    0    0  501 -0.00000000000E+00  0.00000000000E+00  0.19064404916E+04  0.19064404916E+04  0.25500000000E-02 0.  1.
          2   -1    0    0  501    0  0.00000000000E+00 -0.00000000000E+00 -0.56567255418E+03  0.56567255418E+03  0.25500000000E-02 0. -1.
    8880023    1    1    2    0    0 -0.22168105252E+03 -0.20236677054E+03 -0.30994024295E+03  0.78738044129E+03  0.65864270000E+03 0. -1.
    8880022    1    1    2    0    0  0.22168105252E+03  0.20236677054E+03  0.16507081804E+04  0.16847326045E+04  0.15294330000E+03 0.  0.
<mgrwt>
<rscale>  0 0.59784377E+03</rscale>
<asrwt>0</asrwt>
<pdfrwt beam="1">  1        2 0.87026547E-01 0.72381282E+03</pdfrwt>
<pdfrwt beam="2">  1       -2 0.29329854E+00 0.72381282E+03</pdfrwt>
<totfact> 0.19427785E+00</totfact>
</mgrwt>
</event>
<event>
 4    2  0.2930016E-007  0.1304386E+04  0.7818608E-02  0.9061782E-01
          2   -1    0    0  501    0  0.00000000000E+00  0.00000000000E+00  0.14211866186E+04  0.14211866186E+04  0.25500000000E-02 0. -1.
         -2   -1    0    0    0  501 -0.00000000000E+00 -0.00000000000E+00 -0.10818835579E+04  0.10818835580E+04  0.25500000000E-02 0.  1.
    8880023    1    1    2    0    0 -0.50510632328E+03  0.10062206419E+04  0.40254501977E+03  0.13650879375E+04  0.65864270000E+03 0.  0.
    8880022    1    1    2    0    0  0.50510632328E+03 -0.10062206419E+04 -0.63241959087E+02  0.11379822391E+04  0.15294330000E+03 0.  0.
<mgrwt>
<rscale>  0 0.12601450E+04</rscale>
<asrwt>0</asrwt>
<pdfrwt beam="1">  1        2 0.21864410E+00 0.13043859E+04</pdfrwt>
<pdfrwt beam="2">  1       -2 0.16644362E+00 0.13043859E+04</pdfrwt>
<totfact> 0.30587341E+00</totfact>
</mgrwt>
</event>
<event>
 4    2  0.2930016E-007  0.1279803E+04  0.7818608E-02  0.9083200E-01
          2   -1    0    0  501    0  0.00000000000E+00  0.00000000000E+00  0.20144951187E+04  0.20144951187E+04  0.25500000000E-02 0. -1.
         -2   -1    0    0    0  501 -0.00000000000E+00 -0.00000000000E+00 -0.85098800986E+03  0.85098800987E+03  0.25500000000E-02 0.  1.
    8880023    1    1    2    0    0  0.87337839669E+03 -0.66430108243E+03  0.29566674898E+02  0.12801445803E+04  0.65864270000E+03 0.  1.
    8880022    1    1    2    0    0 -0.87337839669E+03  0.66430108243E+03  0.11339404339E+04  0.15853385483E+04  0.15294330000E+03 0.  0.
<mgrwt>
<rscale>  0 0.12344800E+04</rscale>
<asrwt>0</asrwt>
<pdfrwt beam="1">  1        2 0.30992233E+00 0.12798031E+04</pdfrwt>
<pdfrwt beam="2">  1       -2 0.13092123E+00 0.12798031E+04</pdfrwt>
<totfact> 0.27054992E+00</totfact>
</mgrwt>
</event>
<event>
 4    2  0.2930016E-007  0.7635105E+03  0.7818608E-02  0.9796102E-01
          2   -1    0    0  501    0  0.00000000000E+00  0.00000000000E+00  0.74086476554E+03  0.74086476554E+03  0.25500000000E-02 0. -1.
         -2   -1    0    0    0  501 -0.00000000000E+00 -0.00000000000E+00 -0.60322500198E+03  0.60322500199E+03  0.25500000000E-02 0.  1.
    8880023    1    1    2    0    0 -0.15026855997E+03  0.35574917337E+03 -0.22149843954E+03  0.79499049016E+03  0.65864270000E+03 0.  0.
    8880022    1    1    2    0    0  0.15026855997E+03 -0.35574917337E+03  0.35913820309E+03  0.54909927737E+03  0.15294330000E+03 0.  0.
<mgrwt>
<rscale>  0 0.65572128E+03</rscale>
<asrwt>0</asrwt>
<pdfrwt beam="1">  1        2 0.11397919E+00 0.76351052E+03</pdfrwt>
<pdfrwt beam="2">  1       -2 0.92803847E-01 0.76351052E+03</pdfrwt>
<totfact> 0.37965141E+01</totfact>
</mgrwt>
</event>
<event>
 4    2  0.2930016E-007  0.7075359E+03  0.7818608E-02  0.9967268E-01
         -2   -1    0    0    0  501 -0.00000000000E+00  0.00000000000E+00  0.27857303871E+03  0.27857303872E+03  0.25500000000E-02 0.  1.
          2   -1    0    0  501    0  0.00000000000E+00 -0.00000000000E+00 -0.14735391979E+04  0.14735391979E+04  0.25500000000E-02 0. -1.
    8880023    1    1    2    0    0  0.18242245369E+03 -0.18308157903E+03 -0.12597916857E+04  0.14448813494E+04  0.65864270000E+03 0. -1.
    8880022    1    1    2    0    0 -0.18242245369E+03  0.18308157903E+03  0.64825526481E+02  0.30723088726E+03  0.15294330000E+03 0.  0.
<mgrwt>
<rscale>  0 0.57109088E+03</rscale>
<asrwt>0</asrwt>
<pdfrwt beam="1">  1        2 0.22669833E+00 0.70753588E+03</pdfrwt>
<pdfrwt beam="2">  1       -2 0.42857391E-01 0.70753588E+03</pdfrwt>
<totfact> 0.69464773E+01</totfact>
</mgrwt>
</event>
<event>
 4    2  0.2930016E-007  0.6652378E+03  0.7818608E-02  0.1019335E+00
          2   -1    0    0  501    0  0.00000000000E+00  0.00000000000E+00  0.22026159359E+04  0.22026159359E+04  0.25500000000E-02 0. -1.
         -2   -1    0    0    0  501 -0.00000000000E+00 -0.00000000000E+00 -0.16904075256E+03  0.16904075258E+03  0.25500000000E-02 0.  1.
    8880023    1    1    2    0    0 -0.51397150096E+02  0.78034701083E+02  0.20822523012E+04  0.21859359400E+04  0.65864270000E+03 0. -1.
    8880022    1    1    2    0    0  0.51397150096E+02 -0.78034701083E+02 -0.48677117843E+02  0.18572074851E+03  0.15294330000E+03 0.  0.
<mgrwt>
<rscale>  0 0.47927441E+03</rscale>
<asrwt>0</asrwt>
<pdfrwt beam="1">  1        2 0.33886399E+00 0.66523777E+03</pdfrwt>
<pdfrwt beam="2">  1       -2 0.26006270E-01 0.66523777E+03</pdfrwt>
<totfact> 0.71621650E+01</totfact>
</mgrwt>
</event>
<event>
 4    2  0.2930016E-007  0.1031322E+04  0.7818608E-02  0.9341679E-01
         -2   -1    0    0    0  501 -0.00000000000E+00  0.00000000000E+00  0.17151273930E+04  0.17151273930E+04  0.25500000000E-02 0.  1.
          2   -1    0    0  501    0  0.00000000000E+00 -0.00000000000E+00 -0.76596998238E+03  0.76596998238E+03  0.25500000000E-02 0. -1.
    8880023    1    1    2    0    0 -0.24679233561E+03 -0.75426022561E+03 -0.22508328049E+03  0.10555982353E+04  0.65864270000E+03 0.  0.
    8880022    1    1    2    0    0  0.24679233561E+03  0.75426022561E+03  0.11742406911E+04  0.14254991401E+04  0.15294330000E+03 0.  0.
<mgrwt>
<rscale>  0 0.97034695E+03</rscale>
<asrwt>0</asrwt>
<pdfrwt beam="1">  1        2 0.11784154E+00 0.10313220E+04</pdfrwt>
<pdfrwt beam="2">  1       -2 0.26386575E+00 0.10313220E+04</pdfrwt>
<totfact> 0.19195453E+00</totfact>
</mgrwt>
</event>
<event>
 4    2  0.2930016E-007  0.1014551E+04  0.7818608E-02  0.9362764E-01
         -2   -1    0    0    0  501 -0.00000000000E+00  0.00000000000E+00  0.12368077905E+04  0.12368077905E+04  0.25500000000E-02 0.  1.
          2   -1    0    0  501    0  0.00000000000E+00 -0.00000000000E+00 -0.86616881342E+03  0.86616881342E+03  0.25500000000E-02 0. -1.
    8880023    1    1    2    0    0 -0.50758976127E+03  0.58125344145E+03 -0.31195232500E+03  0.10614270527E+04  0.65864270000E+03 0. -1.
    8880022    1    1    2    0    0  0.50758976127E+03 -0.58125344145E+03  0.68259130212E+03  0.10415495512E+04  0.15294330000E+03 0.  0.
<mgrwt>
<rscale>  0 0.95204484E+03</rscale>
<asrwt>0</asrwt>
<pdfrwt beam="1">  1        2 0.13325674E+00 0.10145507E+04</pdfrwt>
<pdfrwt beam="2">  1       -2 0.19027812E+00 0.10145507E+04</pdfrwt>
<totfact> 0.47285047E+00</totfact>
</mgrwt>
</event>
<event>
 4    2  0.2930016E-007  0.6990806E+03  0.7818608E-02  0.1000104E+00
          2   -1    0    0  501    0  0.00000000000E+00  0.00000000000E+00  0.22666874809E+04  0.22666874809E+04  0.25500000000E-02 0. -1.
         -2   -1    0    0    0  501 -0.00000000000E+00 -0.00000000000E+00 -0.10764696277E+03  0.10764696280E+03  0.25500000000E-02 0.  1.
    8880023    1    1    2    0    0 -0.37401263784E+02 -0.23131065033E+03  0.16785378882E+04  0.18182967635E+04  0.65864270000E+03 0.  1.
    8880022    1    1    2    0    0  0.37401263784E+02  0.23131065033E+03  0.48050262986E+03  0.55603768020E+03  0.15294330000E+03 0. -1.
<mgrwt>
<rscale>  0 0.55604799E+03</rscale>
<asrwt>0</asrwt>
<pdfrwt beam="1">  1        2 0.34872117E+00 0.69908059E+03</pdfrwt>
<pdfrwt beam="2">  1       -2 0.16561070E-01 0.69908059E+03</pdfrwt>
<totfact> 0.14530830E+02</totfact>
</mgrwt>
</event>
<event>
 4    2  0.2930016E-007  0.7017540E+03  0.7818608E-02  0.9990001E-01
         -2   -1    0    0    0  501 -0.00000000000E+00  0.00000000000E+00  0.82012875247E+02  0.82012875287E+02  0.25500000000E-02 0.  1.
          2   -1    0    0  501    0  0.00000000000E+00 -0.00000000000E+00 -0.33130809259E+04  0.33130809259E+04  0.25500000000E-02 0. -1.
    8880023    1    1    2    0    0 -0.19987157696E+03  0.13674732467E+03 -0.27217403632E+04  0.28107524418E+04  0.65864270000E+03 0.  0.
    8880022    1    1    2    0    0  0.19987157696E+03 -0.13674732467E+03 -0.50932768741E+03  0.58434135936E+03  0.15294330000E+03 0.  0.
<mgrwt>
<rscale>  0 0.56090843E+03</rscale>
<asrwt>0</asrwt>
<pdfrwt beam="1">  1        2 0.50970466E+00 0.70175401E+03</pdfrwt>
<pdfrwt beam="2">  1       -2 0.12617368E-01 0.70175401E+03</pdfrwt>
<totfact> 0.54981342E+01</totfact>
</mgrwt>
</event>
<event>
 4    2  0.2930016E-007  0.1219651E+04  0.7818608E-02  0.9138253E-01
         -2   -1    0    0    0  501 -0.00000000000E+00  0.00000000000E+00  0.15474616121E+04  0.15474616121E+04  0.25500000000E-02 0.  1.
          2   -1    0    0  501    0  0.00000000000E+00 -0.00000000000E+00 -0.18896261390E+04  0.18896261390E+04  0.25500000000E-02 0. -1.
    8880023    1    1    2    0    0  0.61981596449E+03 -0.81827013596E+03 -0.14662149184E+04  0.19071796555E+04  0.65864270000E+03 0.  0.
    8880022    1    1    2    0    0 -0.61981596449E+03  0.81827013596E+03  0.11240503915E+04  0.15299080956E+04  0.15294330000E+03 0.  0.
<mgrwt>
<rscale>  0 0.11714132E+04</rscale>
<asrwt>0</asrwt>
<pdfrwt beam="1">  1        2 0.29071171E+00 0.12196508E+04</pdfrwt>
<pdfrwt beam="2">  1       -2 0.23807102E+00 0.12196508E+04</pdfrwt>
<totfact> 0.56789701E-01</totfact>
</mgrwt>
</event>
<event>
 4    2  0.2930016E-007  0.6871063E+03  0.7818608E-02  0.1005559E+00
         -2   -1    0    0    0  501 -0.00000000000E+00  0.00000000000E+00  0.33859714884E+03  0.33859714885E+03  0.25500000000E-02 0.  1.
          2   -1    0    0  501    0  0.00000000000E+00 -0.00000000000E+00 -0.24981070928E+04  0.24981070928E+04  0.25500000000E-02 0. -1.
    8880023    1    1    2    0    0 -0.95967630527E+02  0.17057269251E+03 -0.23967057622E+04  0.24932536066E+04  0.65864270000E+03 0. -1.
    8880022    1    1    2    0    0  0.95967630527E+02 -0.17057269251E+03  0.23719581827E+03  0.34345063512E+03  0.15294330000E+03 0.  0.
<mgrwt>
<rscale>  0 0.53278316E+03</rscale>
<asrwt>0</asrwt>
<pdfrwt beam="1">  1        2 0.38432416E+00 0.68710628E+03</pdfrwt>
<pdfrwt beam="2">  1       -2 0.52091871E-01 0.68710628E+03</pdfrwt>
<totfact> 0.12857314E+01</totfact>
</mgrwt>
</event>
<event>
 4    2  0.2930016E-007  0.8161879E+03  0.7818608E-02  0.9676829E-01
         -2   -1    0    0    0  501 -0.00000000000E+00  0.00000000000E+00  0.17569752315E+04  0.17569752315E+04  0.25500000000E-02 0.  1.
          2   -1    0    0  501    0  0.00000000000E+00 -0.00000000000E+00 -0.70926826111E+03  0.70926826111E+03  0.25500000000E-02 0. -1.
    8880023    1    1    2    0    0 -0.22059872866E+03  0.42858917096E+03 -0.41710598324E+03  0.91659155793E+03  0.65864270000E+03 0. -1.
    8880022    1    1    2    0    0  0.22059872866E+03 -0.42858917096E+03  0.14648129536E+04  0.15496519347E+04  0.15294330000E+03 0.  0.
<mgrwt>
<rscale>  0 0.72413297E+03</rscale>
<asrwt>0</asrwt>
<pdfrwt beam="1">  1        2 0.10911819E+00 0.81618790E+03</pdfrwt>
<pdfrwt beam="2">  1       -2 0.27030388E+00 0.81618790E+03</pdfrwt>
<totfact> 0.19936990E+00</totfact>
</mgrwt>
</event>
<event>
 4    2  0.2930016E-007  0.9887573E+03  0.7818608E-02  0.9396417E-01
          2   -1    0    0  501    0  0.00000000000E+00  0.00000000000E+00  0.13596010059E+04  0.13596010059E+04  0.25500000000E-02 0. -1.
         -2   -1    0    0    0  501 -0.00000000000E+00 -0.00000000000E+00 -0.81959457619E+03  0.81959457620E+03  0.25500000000E-02 0.  1.
    8880023    1    1    2    0    0  0.46267326962E+03  0.57425102934E+03  0.90668394936E+03  0.13415352360E+04  0.65864270000E+03 0. -1.
    8880022    1    1    2    0    0 -0.46267326962E+03 -0.57425102934E+03 -0.36667751960E+03  0.83766034616E+03  0.15294330000E+03 0.  0.
<mgrwt>
<rscale>  0 0.92371172E+03</rscale>
<asrwt>0</asrwt>
<pdfrwt beam="1">  1        2 0.20916938E+00 0.98875730E+03</pdfrwt>
<pdfrwt beam="2">  1       -2 0.12609147E+00 0.98875730E+03</pdfrwt>
<totfact> 0.71185501E+00</totfact>
</mgrwt>
</event>
<event>
 4    2  0.2930016E-007  0.6597640E+03  0.7818608E-02  0.1024399E+00
         -2   -1    0    0    0  501 -0.00000000000E+00  0.00000000000E+00  0.12318460734E+04  0.12318460734E+04  0.25500000000E-02 0.  1.
          2   -1    0    0  501    0  0.00000000000E+00 -0.00000000000E+00 -0.54082853065E+03  0.54082853066E+03  0.25500000000E-02 0. -1.
    8880023    1    1    2    0    0 -0.21095712134E+02  0.32145921475E+02 -0.33129384736E+03  0.73827109445E+03  0.65864270000E+03 0. -1.
    8880022    1    1    2    0    0  0.21095712134E+02 -0.32145921475E+02  0.10223113901E+04  0.10344035096E+04  0.15294330000E+03 0.  0.
<mgrwt>
<rscale>  0 0.46131869E+03</rscale>
<asrwt>0</asrwt>
<pdfrwt beam="1">  1        2 0.83204391E-01 0.65976405E+03</pdfrwt>
<pdfrwt beam="2">  1       -2 0.18951478E+00 0.65976405E+03</pdfrwt>
<totfact> 0.90239560E+00</totfact>
</mgrwt>
</event>
<event>
 4    2  0.2930016E-007  0.7396956E+03  0.7818608E-02  0.9860835E-01
          2   -1    0    0  501    0  0.00000000000E+00  0.00000000000E+00  0.21457241506E+04  0.21457241506E+04  0.25500000000E-02 0. -1.
         -2   -1    0    0    0  501 -0.00000000000E+00 -0.00000000000E+00 -0.18384083283E+03  0.18384083284E+03  0.25500000000E-02 0.  1.
    8880023    1    1    2    0    0 -0.29441566964E+03 -0.16327503931E+03  0.17580701067E+04  0.19073437109E+04  0.65864270000E+03 0.  0.
    8880022    1    1    2    0    0  0.29441566964E+03  0.16327503931E+03  0.20381321104E+03  0.42222127256E+03  0.15294330000E+03 0.  0.
<mgrwt>
<rscale>  0 0.62197528E+03</rscale>
<asrwt>0</asrwt>
<pdfrwt beam="1">  1        2 0.33011142E+00 0.73969557E+03</pdfrwt>
<pdfrwt beam="2">  1       -2 0.28283204E-01 0.73969557E+03</pdfrwt>
<totfact> 0.65415221E+01</totfact>
</mgrwt>
</event>
<event>
 4    2  0.2930016E-007  0.1146882E+04  0.7818608E-02  0.9210570E-01
          2   -1    0    0  501    0  0.00000000000E+00  0.00000000000E+00  0.11967715993E+04  0.11967715993E+04  0.25500000000E-02 0. -1.
         -2   -1    0    0    0  501 -0.00000000000E+00 -0.00000000000E+00 -0.17710977339E+04  0.17710977339E+04  0.25500000000E-02 0.  1.
    8880023    1    1    2    0    0  0.88423239414E+03  0.31569192832E+03  0.72553411369E+03  0.13571065827E+04  0.65864270000E+03 0. -1.
    8880022    1    1    2    0    0 -0.88423239414E+03 -0.31569192832E+03 -0.12998602482E+04  0.16107627505E+04  0.15294330000E+03 0.  0.
<mgrwt>
<rscale>  0 0.10944990E+04</rscale>
<asrwt>0</asrwt>
<pdfrwt beam="1">  1        2 0.18411871E+00 0.11468821E+04</pdfrwt>
<pdfrwt beam="2">  1       -2 0.27247657E+00 0.11468821E+04</pdfrwt>
<totfact> 0.87323650E-01</totfact>
</mgrwt>
</event>
<event>
 4    2  0.2930016E-007  0.7892402E+03  0.7818608E-02  0.9734563E-01
          2   -1    0    0  501    0  0.00000000000E+00  0.00000000000E+00  0.62683615538E+03  0.62683615539E+03  0.25500000000E-02 0. -1.
         -2   -1    0    0    0  501 -0.00000000000E+00 -0.00000000000E+00 -0.68704732301E+03  0.68704732302E+03  0.25500000000E-02 0.  1.
    8880023    1    1    2    0    0 -0.22709767856E+02  0.43425122205E+03  0.15636910334E+03  0.80458148136E+03  0.65864270000E+03 0.  0.
    8880022    1    1    2    0    0  0.22709767856E+02 -0.43425122205E+03 -0.21658027097E+03  0.50930199705E+03  0.15294330000E+03 0. -1.
<mgrwt>
<rscale>  0 0.68995701E+03</rscale>
<asrwt>0</asrwt>
<pdfrwt beam="1">  1        2 0.96436331E-01 0.78924018E+03</pdfrwt>
<pdfrwt beam="2">  1       -2 0.10569959E+00 0.78924018E+03</pdfrwt>
<totfact> 0.34346956E+01</totfact>
</mgrwt>
</event>
<event>
 4    2  0.2930016E-007  0.9359054E+03  0.7818608E-02  0.9470690E-01
         -2   -1    0    0    0  501 -0.00000000000E+00  0.00000000000E+00  0.10792051984E+04  0.10792051984E+04  0.25500000000E-02 0.  1.
          2   -1    0    0  501    0  0.00000000000E+00 -0.00000000000E+00 -0.74157420779E+03  0.74157420779E+03  0.25500000000E-02 0. -1.
    8880023    1    1    2    0    0  0.28258918343E+03 -0.60187387247E+03 -0.19403970694E+03  0.95580877746E+03  0.65864270000E+03 0.  0.
    8880022    1    1    2    0    0 -0.28258918343E+03  0.60187387247E+03  0.53167069759E+03  0.86497062877E+03  0.15294330000E+03 0.  0.
<mgrwt>
<rscale>  0 0.86479665E+03</rscale>
<asrwt>0</asrwt>
<pdfrwt beam="1">  1        2 0.11408834E+00 0.93590545E+03</pdfrwt>
<pdfrwt beam="2">  1       -2 0.16603157E+00 0.93590545E+03</pdfrwt>
<totfact> 0.86410297E+00</totfact>
</mgrwt>
</event>
<event>
 4    2  0.2930016E-007  0.8513631E+03  0.7818608E-02  0.9609115E-01
         -2   -1    0    0    0  501 -0.00000000000E+00  0.00000000000E+00  0.33145532928E+03  0.33145532929E+03  0.25500000000E-02 0.  1.
          2   -1    0    0  501    0  0.00000000000E+00 -0.00000000000E+00 -0.24278467012E+04  0.24278467012E+04  0.25500000000E-02 0. -1.
    8880023    1    1    2    0    0 -0.45730838437E+03  0.28614335323E+03 -0.34200406966E+03  0.91748894649E+03  0.65864270000E+03 0.  1.
    8880022    1    1    2    0    0  0.45730838437E+03 -0.28614335323E+03 -0.17543873022E+04  0.18418130840E+04  0.15294330000E+03 0.  0.
<mgrwt>
<rscale>  0 0.76695795E+03</rscale>
<asrwt>0</asrwt>
<pdfrwt beam="1">  1        2 0.37351486E+00 0.85136313E+03</pdfrwt>
<pdfrwt beam="2">  1       -2 0.50993129E-01 0.85136313E+03</pdfrwt>
<totfact> 0.14344412E+01</totfact>
</mgrwt>
</event>
<event>
 4    2  0.2930016E-007  0.9934106E+03  0.7818608E-02  0.9390230E-01
         -2   -1    0    0    0  501 -0.00000000000E+00  0.00000000000E+00  0.58418374384E+03  0.58418374385E+03  0.25500000000E-02 0.  1.
          2   -1    0    0  501    0  0.00000000000E+00 -0.00000000000E+00 -0.14770568845E+04  0.14770568845E+04  0.25500000000E-02 0. -1.
    8880023    1    1    2    0    0  0.24361685017E+03  0.70264157887E+03 -0.16041235741E+03  0.10062786337E+04  0.65864270000E+03 0.  0.
    8880022    1    1    2    0    0 -0.24361685017E+03 -0.70264157887E+03 -0.73246078322E+03  0.10549619946E+04  0.15294330000E+03 0.  0.
<mgrwt>
<rscale>  0 0.92884108E+03</rscale>
<asrwt>0</asrwt>
<pdfrwt beam="1">  1        2 0.22723952E+00 0.99341057E+03</pdfrwt>
<pdfrwt beam="2">  1       -2 0.89874423E-01 0.99341057E+03</pdfrwt>
<totfact> 0.13822164E+01</totfact>
</mgrwt>
</event>
<event>
 4    2  0.2930016E-007  0.6951255E+03  0.7818608E-02  0.1001806E+00
          2   -1    0    0  501    0  0.00000000000E+00  0.00000000000E+00  0.67290607620E+03  0.67290607620E+03  0.25500000000E-02 0. -1.
         -2   -1    0    0    0  501 -0.00000000000E+00 -0.00000000000E+00 -0.49010620632E+03  0.49010620632E+03  0.25500000000E-02 0.  1.
    8880023    1    1    2    0    0  0.21357962234E+03  0.61424674640E+02  0.41283434978E+03  0.80847489284E+03  0.65864270000E+03 0. -1.
    8880022    1    1    2    0    0 -0.21357962234E+03 -0.61424674640E+02 -0.23003447989E+03  0.35453738969E+03  0.15294330000E+03 0.  0.
<mgrwt>
<rscale>  0 0.54865531E+03</rscale>
<asrwt>0</asrwt>
<pdfrwt beam="1">  1        2 0.10352401E+00 0.69512549E+03</pdfrwt>
<pdfrwt beam="2">  1       -2 0.75400956E-01 0.69512549E+03</pdfrwt>
<totfact> 0.69062278E+01</totfact>
</mgrwt>
</event>
<event>
 4    2  0.2930016E-007  0.7100430E+03  0.7818608E-02  0.9957841E-01
          2   -1    0    0  501    0  0.00000000000E+00  0.00000000000E+00  0.76100645386E+03  0.76100645386E+03  0.25500000000E-02 0. -1.
         -2   -1    0    0    0  501 -0.00000000000E+00 -0.00000000000E+00 -0.98445989360E+03  0.98445989360E+03  0.25500000000E-02 0.  1.
    8880023    1    1    2    0    0  0.11688183149E+03  0.23809566734E+03  0.56000633538E+03  0.90430537501E+03  0.65864270000E+03 0.  0.
    8880022    1    1    2    0    0 -0.11688183149E+03 -0.23809566734E+03 -0.78345977512E+03  0.84116097246E+03  0.15294330000E+03 0.  0.
<mgrwt>
<rscale>  0 0.57538112E+03</rscale>
<asrwt>0</asrwt>
<pdfrwt beam="1">  1        2 0.11707792E+00 0.71004304E+03</pdfrwt>
<pdfrwt beam="2">  1       -2 0.15145537E+00 0.71004304E+03</pdfrwt>
<totfact> 0.10965259E+01</totfact>
</mgrwt>
</event>
<event>
 4    2  0.2930016E-007  0.6651185E+03  0.7818608E-02  0.1019434E+00
         -2   -1    0    0    0  501 -0.00000000000E+00  0.00000000000E+00  0.30398015877E+03  0.30398015878E+03  0.25500000000E-02 0.  1.
          2   -1    0    0  501    0  0.00000000000E+00 -0.00000000000E+00 -0.20988892460E+04  0.20988892460E+04  0.25500000000E-02 0. -1.
    8880023    1    1    2    0    0  0.71177443639E+02  0.59212849959E+02 -0.20134799795E+04  0.21204915053E+04  0.65864270000E+03 0. -1.
    8880022    1    1    2    0    0 -0.71177443639E+02 -0.59212849959E+02  0.21857089232E+03  0.28237789940E+03  0.15294330000E+03 0.  0.
<mgrwt>
<rscale>  0 0.47891339E+03</rscale>
<asrwt>0</asrwt>
<pdfrwt beam="1">  1        2 0.32290603E+00 0.66511848E+03</pdfrwt>
<pdfrwt beam="2">  1       -2 0.46766180E-01 0.66511848E+03</pdfrwt>
<totfact> 0.26727583E+01</totfact>
</mgrwt>
</event>
<event>
 4    2  0.2930016E-007  0.9555510E+03  0.7818608E-02  0.9442172E-01
         -2   -1    0    0    0  501 -0.00000000000E+00  0.00000000000E+00  0.96342670449E+03  0.96342670449E+03  0.25500000000E-02 0.  1.
          2   -1    0    0  501    0  0.00000000000E+00 -0.00000000000E+00 -0.95237371174E+03  0.95237371175E+03  0.25500000000E-02 0. -1.
    8880023    1    1    2    0    0  0.53429683467E+03  0.44022095935E+03 -0.46412660763E+03  0.10623047184E+04  0.65864270000E+03 0.  0.
    8880022    1    1    2    0    0 -0.53429683467E+03 -0.44022095935E+03  0.47517960037E+03  0.85349569783E+03  0.15294330000E+03 0.  0.
<mgrwt>
<rscale>  0 0.88684890E+03</rscale>
<asrwt>0</asrwt>
<pdfrwt beam="1">  1        2 0.14651903E+00 0.95555105E+03</pdfrwt>
<pdfrwt beam="2">  1       -2 0.14821949E+00 0.95555105E+03</pdfrwt>
<totfact> 0.83284947E+00</totfact>
</mgrwt>
</event>
<event>
 4    2  0.2930016E-007  0.9331449E+03  0.7818608E-02  0.9474791E-01
         -2   -1    0    0    0  501 -0.00000000000E+00  0.00000000000E+00  0.18474393870E+04  0.18474393870E+04  0.25500000000E-02 0.  1.
          2   -1    0    0  501    0  0.00000000000E+00 -0.00000000000E+00 -0.78268468204E+03  0.78268468204E+03  0.25500000000E-02 0. -1.
    8880023    1    1    2    0    0 -0.56224949715E+03 -0.34759839035E+03 -0.40045884656E+03  0.10154440566E+04  0.65864270000E+03 0. -1.
    8880022    1    1    2    0    0  0.56224949715E+03  0.34759839035E+03  0.14652135515E+04  0.16146800124E+04  0.15294330000E+03 0.  0.
<mgrwt>
<rscale>  0 0.86168144E+03</rscale>
<asrwt>0</asrwt>
<pdfrwt beam="1">  1        2 0.12041303E+00 0.93314487E+03</pdfrwt>
<pdfrwt beam="2">  1       -2 0.28422144E+00 0.93314487E+03</pdfrwt>
<totfact> 0.14230820E+00</totfact>
</mgrwt>
</event>
<event>
 4    2  0.3248267E-007  0.8165314E+03  0.7818608E-02  0.9676129E-01
          2   -1    0    0  501    0  0.00000000000E+00  0.00000000000E+00  0.91873659349E+03  0.91873659349E+03  0.25500000000E-02 0. -1.
         -2   -1    0    0    0  501 -0.00000000000E+00 -0.00000000000E+00 -0.16633980163E+04  0.16633980163E+04  0.25500000000E-02 0.  1.
    8880023    1    1    2    0    0  0.16767620835E+03 -0.45254610774E+03  0.68479349421E+03  0.10656761358E+04  0.65864270000E+03 0.  0.
    8880022    1    1    2    0    0 -0.16767620835E+03  0.45254610774E+03 -0.14294549170E+04  0.15164584739E+04  0.15294330000E+03 0.  0.
<mgrwt>
<rscale>  0 0.72455988E+03</rscale>
<asrwt>0</asrwt>
<pdfrwt beam="1">  1        2 0.14134409E+00 0.81653138E+03</pdfrwt>
<pdfrwt beam="2">  1       -2 0.25590739E+00 0.81653138E+03</pdfrwt>
<totfact> 0.17228660E+00</totfact>
</mgrwt>
</event>
<event>
 4    2  0.4163763E-007  0.1177885E+04  0.7818608E-02  0.9178925E-01
          2   -1    0    0  501    0  0.00000000000E+00  0.00000000000E+00  0.24554478522E+04  0.24554478522E+04  0.25500000000E-02 0. -1.
         -2   -1    0    0    0  501 -0.00000000000E+00 -0.00000000000E+00 -0.15836020083E+04  0.15836020083E+04  0.25500000000E-02 0.  1.
    8880023    1    1    2    0    0  0.45744729785E+03  0.86275457358E+03  0.21330536691E+04  0.24366640405E+04  0.65864270000E+03 0.  0.
    8880022    1    1    2    0    0 -0.45744729785E+03 -0.86275457358E+03 -0.12612078253E+04  0.16023858200E+04  0.15294330000E+03 0.  1.
<mgrwt>
<rscale>  0 0.11273630E+04</rscale>
<asrwt>0</asrwt>
<pdfrwt beam="1">  1        2 0.37776121E+00 0.11778853E+04</pdfrwt>
<pdfrwt beam="2">  1       -2 0.24363108E+00 0.11778853E+04</pdfrwt>
<totfact> 0.25461294E-01</totfact>
</mgrwt>
</event>
<event>
 4    2  0.2930016E-007  0.8176456E+03  0.7818608E-02  0.9673866E-01
          2   -1    0    0  501    0  0.00000000000E+00  0.00000000000E+00  0.19811859537E+04  0.19811859537E+04  0.25500000000E-02 0. -1.
         -2   -1    0    0    0  501 -0.00000000000E+00 -0.00000000000E+00 -0.22277825635E+03  0.22277825636E+03  0.25500000000E-02 0.  1.
    8880023    1    1    2    0    0 -0.47270824721E+03  0.10621191196E+03  0.11555672258E+04  0.14155846414E+04  0.65864270000E+03 0. -1.
    8880022    1    1    2    0    0  0.47270824721E+03 -0.10621191196E+03  0.60284047156E+03  0.78837956873E+03  0.15294330000E+03 0.  1.
<mgrwt>
<rscale>  0 0.72594333E+03</rscale>
<asrwt>0</asrwt>
<pdfrwt beam="1">  1        2 0.30479785E+00 0.81764556E+03</pdfrwt>
<pdfrwt beam="2">  1       -2 0.34273577E-01 0.81764556E+03</pdfrwt>
<totfact> 0.55728996E+01</totfact>
</mgrwt>
</event>
<event>
 4    2  0.2930016E-007  0.6775100E+03  0.7818608E-02  0.1010769E+00
          2   -1    0    0  501    0  0.00000000000E+00  0.00000000000E+00  0.39041823209E+04  0.39041823209E+04  0.25500000000E-02 0. -1.
         -2   -1    0    0    0  501 -0.00000000000E+00 -0.00000000000E+00 -0.24845861737E+03  0.24845861738E+03  0.25500000000E-02 0.  1.
    8880023    1    1    2    0    0 -0.90663147471E+02  0.13034480249E+03  0.38187932259E+04  0.38784277075E+04  0.65864270000E+03 0. -1.
    8880022    1    1    2    0    0  0.90663147471E+02 -0.13034480249E+03 -0.16306952231E+03  0.27421323084E+03  0.15294330000E+03 0.  0.
<mgrwt>
<rscale>  0 0.51170267E+03</rscale>
<asrwt>0</asrwt>
<pdfrwt beam="1">  1        2 0.60064345E+00 0.67750999E+03</pdfrwt>
<pdfrwt beam="2">  1       -2 0.38224402E-01 0.67750999E+03</pdfrwt>
<totfact> 0.29598269E+00</totfact>
</mgrwt>
</event>
<event>
 4    2  0.3046046E-007  0.8516724E+03  0.7818608E-02  0.9608552E-01
         -2   -1    0    0    0  501 -0.00000000000E+00  0.00000000000E+00  0.10847775737E+04  0.10847775737E+04  0.25500000000E-02 0.  1.
          2   -1    0    0  501    0  0.00000000000E+00 -0.00000000000E+00 -0.13323020773E+04  0.13323020773E+04  0.25500000000E-02 0. -1.
    8880023    1    1    2    0    0 -0.27026830283E+03  0.46742991642E+03 -0.11032602230E+04  0.13937463931E+04  0.65864270000E+03 0. -1.
    8880022    1    1    2    0    0  0.27026830283E+03 -0.46742991642E+03  0.85573571944E+03  0.10233332579E+04  0.15294330000E+03 0.  0.
<mgrwt>
<rscale>  0 0.76732744E+03</rscale>
<asrwt>0</asrwt>
<pdfrwt beam="1">  1        2 0.20496955E+00 0.85167241E+03</pdfrwt>
<pdfrwt beam="2">  1       -2 0.16688886E+00 0.85167241E+03</pdfrwt>
<totfact> 0.35874061E+00</totfact>
</mgrwt>
</event>
<event>
 4    2  0.2930016E-007  0.6630344E+03  0.7818608E-02  0.1021243E+00
          2   -1    0    0  501    0  0.00000000000E+00  0.00000000000E+00  0.10833482092E+04  0.10833482092E+04  0.25500000000E-02 0. -1.
         -2   -1    0    0    0  501 -0.00000000000E+00 -0.00000000000E+00 -0.22959556478E+03  0.22959556479E+03  0.25500000000E-02 0.  1.
    8880023    1    1    2    0    0 -0.76022082331E+02 -0.50026454588E+01  0.91626616152E+03  0.11309987924E+04  0.65864270000E+03 0. -1.
    8880022    1    1    2    0    0  0.76022082331E+02  0.50026454588E+01 -0.62513517137E+02  0.18194498153E+03  0.15294330000E+03 0.  0.
<mgrwt>
<rscale>  0 0.47240830E+03</rscale>
<asrwt>0</asrwt>
<pdfrwt beam="1">  1        2 0.16666895E+00 0.66303438E+03</pdfrwt>
<pdfrwt beam="2">  1       -2 0.35322395E-01 0.66303438E+03</pdfrwt>
<totfact> 0.17087745E+02</totfact>
</mgrwt>
</event>
<event>
 4    2  0.2930016E-007  0.6682392E+03  0.7818608E-02  0.1016958E+00
         -2   -1    0    0    0  501 -0.00000000000E+00  0.00000000000E+00  0.42641237702E+03  0.42641237702E+03  0.25500000000E-02 0.  1.
          2   -1    0    0  501    0  0.00000000000E+00 -0.00000000000E+00 -0.13653575556E+04  0.13653575556E+04  0.25500000000E-02 0. -1.
    8880023    1    1    2    0    0  0.20264008383E+02 -0.11100807939E+03 -0.12556598273E+04  0.14224012205E+04  0.65864270000E+03 0. -1.
    8880022    1    1    2    0    0 -0.20264008383E+02  0.11100807939E+03  0.31671464879E+03  0.36936871213E+03  0.15294330000E+03 0.  0.
<mgrwt>
<rscale>  0 0.48800588E+03</rscale>
<asrwt>0</asrwt>
<pdfrwt beam="1">  1        2 0.21005501E+00 0.66823920E+03</pdfrwt>
<pdfrwt beam="2">  1       -2 0.65601905E-01 0.66823920E+03</pdfrwt>
<totfact> 0.33412882E+01</totfact>
</mgrwt>
</event>
<event>
 4    2  0.2930016E-007  0.6646248E+03  0.7818608E-02  0.1019850E+00
          2   -1    0    0  501    0  0.00000000000E+00  0.00000000000E+00  0.17703564108E+04  0.17703564108E+04  0.25500000000E-02 0. -1.
         -2   -1    0    0    0  501 -0.00000000000E+00 -0.00000000000E+00 -0.48173215645E+03  0.48173215645E+03  0.25500000000E-02 0.  1.
    8880023    1    1    2    0    0 -0.69482290074E+02 -0.55570348069E+02  0.16886187827E+04  0.18147064368E+04  0.65864270000E+03 0. -1.
    8880022    1    1    2    0    0  0.69482290074E+02  0.55570348069E+02 -0.39999452841E+03  0.43738213039E+03  0.15294330000E+03 0.  0.
<mgrwt>
<rscale>  0 0.47740662E+03</rscale>
<asrwt>0</asrwt>
<pdfrwt beam="1">  1        2 0.27236253E+00 0.66462475E+03</pdfrwt>
<pdfrwt beam="2">  1       -2 0.74112639E-01 0.66462475E+03</pdfrwt>
<totfact> 0.15318013E+01</totfact>
</mgrwt>
</event>
<event>
 4    2  0.2930016E-007  0.1184381E+04  0.7818608E-02  0.9172457E-01
         -2   -1    0    0    0  501 -0.00000000000E+00  0.00000000000E+00  0.10334763035E+04  0.10334763035E+04  0.25500000000E-02 0.  1.
          2   -1    0    0  501    0  0.00000000000E+00 -0.00000000000E+00 -0.23461986468E+04  0.23461986468E+04  0.25500000000E-02 0. -1.
    8880023    1    1    2    0    0  0.16012615550E+03  0.97124034661E+03 -0.18884374799E+04  0.22291151874E+04  0.65864270000E+03 0.  0.
    8880022    1    1    2    0    0 -0.16012615550E+03 -0.97124034661E+03  0.57571513663E+03  0.11505597630E+04  0.15294330000E+03 0.  0.
<mgrwt>
<rscale>  0 0.11342300E+04</rscale>
<asrwt>0</asrwt>
<pdfrwt beam="1">  1        2 0.36095364E+00 0.11843810E+04</pdfrwt>
<pdfrwt beam="2">  1       -2 0.15899635E+00 0.11843810E+04</pdfrwt>
<totfact> 0.10687763E+00</totfact>
</mgrwt>
</event>
<event>
 4    2  0.2930016E-007  0.7982958E+03  0.7818608E-02  0.9714493E-01
         -2   -1    0    0    0  501 -0.00000000000E+00  0.00000000000E+00  0.44478540220E+03  0.44478540221E+03  0.25500000000E-02 0.  1.
          2   -1    0    0  501    0  0.00000000000E+00 -0.00000000000E+00 -0.16085079258E+04  0.16085079258E+04  0.25500000000E-02 0. -1.
    8880023    1    1    2    0    0 -0.26328942489E+02  0.45030293038E+03 -0.13279935654E+04  0.15494654105E+04  0.65864270000E+03 0. -1.
    8880022    1    1    2    0    0  0.26328942489E+02 -0.45030293038E+03  0.16427104177E+03  0.50382791755E+03  0.15294330000E+03 0.  0.
<mgrwt>
<rscale>  0 0.70160397E+03</rscale>
<asrwt>0</asrwt>
<pdfrwt beam="1">  1        2 0.24746275E+00 0.79829578E+03</pdfrwt>
<pdfrwt beam="2">  1       -2 0.68428524E-01 0.79829578E+03</pdfrwt>
<totfact> 0.21973923E+01</totfact>
</mgrwt>
</event>
<event>
 4    2  0.2930016E-007  0.9105946E+03  0.7818608E-02  0.9509234E-01
          2   -1    0    0  501    0  0.00000000000E+00  0.00000000000E+00  0.11663818049E+04  0.11663818049E+04  0.25500000000E-02 0. -1.
         -2   -1    0    0    0  501 -0.00000000000E+00 -0.00000000000E+00 -0.75205999831E+03  0.75205999832E+03  0.25500000000E-02 0.  1.
    8880023    1    1    2    0    0 -0.57544382716E+03  0.25344948264E+03  0.75883260466E+03  0.11853309102E+04  0.65864270000E+03 0. -1.
    8880022    1    1    2    0    0  0.57544382716E+03 -0.25344948264E+03 -0.34451079808E+03  0.73311089303E+03  0.15294330000E+03 0.  0.
<mgrwt>
<rscale>  0 0.83606480E+03</rscale>
<asrwt>0</asrwt>
<pdfrwt beam="1">  1        2 0.17944335E+00 0.91059456E+03</pdfrwt>
<pdfrwt beam="2">  1       -2 0.11570154E+00 0.91059456E+03</pdfrwt>
<totfact> 0.11543687E+01</totfact>
</mgrwt>
</event>
<event>
 4    2  0.2930016E-007  0.6810933E+03  0.7818608E-02  0.1008712E+00
          2   -1    0    0  501    0  0.00000000000E+00  0.00000000000E+00  0.47778987998E+03  0.47778987999E+03  0.25500000000E-02 0. -1.
         -2   -1    0    0    0  501 -0.00000000000E+00 -0.00000000000E+00 -0.13376278499E+04  0.13376278499E+04  0.25500000000E-02 0.  1.
    8880023    1    1    2    0    0 -0.16108788910E+03  0.64253534346E+02  0.21638003049E+03  0.71463861395E+03  0.65864270000E+03 0. -1.
    8880022    1    1    2    0    0  0.16108788910E+03 -0.64253534346E+02 -0.10762180004E+04  0.11007791159E+04  0.15294330000E+03 0.  0.
<mgrwt>
<rscale>  0 0.51989804E+03</rscale>
<asrwt>0</asrwt>
<pdfrwt beam="1">  1        2 0.73506136E-01 0.68109326E+03</pdfrwt>
<pdfrwt beam="2">  1       -2 0.20578890E+00 0.68109326E+03</pdfrwt>
<totfact> 0.81386347E+00</totfact>
</mgrwt>
</event>
<event>
 4    2  0.2930016E-007  0.7071053E+03  0.7818608E-02  0.9968911E-01
          2   -1    0    0  501    0  0.00000000000E+00  0.00000000000E+00  0.47799646922E+03  0.47799646923E+03  0.25500000000E-02 0. -1.
         -2   -1    0    0    0  501 -0.00000000000E+00 -0.00000000000E+00 -0.74212445895E+03  0.74212445895E+03  0.25500000000E-02 0.  1.
    8880023    1    1    2    0    0 -0.23238987712E+03 -0.11037517918E+03  0.13637776686E+03  0.72013667920E+03  0.65864270000E+03 0. -1.
    8880022    1    1    2    0    0  0.23238987712E+03  0.11037517918E+03 -0.40050575658E+03  0.49998424899E+03  0.15294330000E+03 0.  0.
<mgrwt>
<rscale>  0 0.57034691E+03</rscale>
<asrwt>0</asrwt>
<pdfrwt beam="1">  1        2 0.73537918E-01 0.70710533E+03</pdfrwt>
<pdfrwt beam="2">  1       -2 0.11417299E+00 0.70710533E+03</pdfrwt>
<totfact> 0.39522561E+01</totfact>
</mgrwt>
</event>
<event>
 4    2  0.2930016E-007  0.6697612E+03  0.7818608E-02  0.1015835E+00
         -2   -1    0    0    0  501 -0.00000000000E+00  0.00000000000E+00  0.24106001859E+03  0.24106001860E+03  0.25500000000E-02 0.  1.
          2   -1    0    0  501    0  0.00000000000E+00 -0.00000000000E+00 -0.11820031426E+04  0.11820031426E+04  0.25500000000E-02 0. -1.
    8880023    1    1    2    0    0 -0.86243113819E+02  0.85627160307E+02 -0.10133853156E+04  0.12147139126E+04  0.65864270000E+03 0. -1.
    8880022    1    1    2    0    0  0.86243113819E+02 -0.85627160307E+02  0.72442191596E+02  0.20834924862E+03  0.15294330000E+03 0.  0.
<mgrwt>
<rscale>  0 0.49220184E+03</rscale>
<asrwt>0</asrwt>
<pdfrwt beam="1">  1        2 0.18184663E+00 0.66976122E+03</pdfrwt>
<pdfrwt beam="2">  1       -2 0.37086157E-01 0.66976122E+03</pdfrwt>
<totfact> 0.13569239E+02</totfact>
</mgrwt>
</event>
<event>
 4    2  0.2930016E-007  0.1551865E+04  0.7818608E-02  0.8873854E-01
          2   -1    0    0  501    0  0.00000000000E+00  0.00000000000E+00  0.25245776836E+04  0.25245776836E+04  0.25500000000E-02 0. -1.
         -2   -1    0    0    0  501 -0.00000000000E+00 -0.00000000000E+00 -0.18252202077E+04  0.18252202077E+04  0.25500000000E-02 0.  1.
    8880023    1    1    2    0    0  0.10629251703E+04  0.91905706068E+03  0.19294044070E+04  0.24760628769E+04  0.65864270000E+03 0.  0.
    8880022    1    1    2    0    0 -0.10629251703E+04 -0.91905706068E+03 -0.12300469311E+04  0.18737350144E+04  0.15294330000E+03 0.  0.
<mgrwt>
<rscale>  0 0.15160424E+04</rscale>
<asrwt>0</asrwt>
<pdfrwt beam="1">  1        2 0.38839657E+00 0.15518653E+04</pdfrwt>
<pdfrwt beam="2">  1       -2 0.28080311E+00 0.15518653E+04</pdfrwt>
<totfact> 0.13070207E-01</totfact>
</mgrwt>
</event>
<event>
 4    2  0.2930016E-007  0.6628270E+03  0.7818608E-02  0.1021430E+00
          2   -1    0    0  501    0  0.00000000000E+00  0.00000000000E+00  0.11094041630E+04  0.11094041630E+04  0.25500000000E-02 0. -1.
         -2   -1    0    0    0  501 -0.00000000000E+00 -0.00000000000E+00 -0.31155774417E+03  0.31155774418E+03  0.25500000000E-02 0.  1.
    8880023    1    1    2    0    0  0.73434256565E+02 -0.11696948904E+02  0.97268706939E+03  0.11770555424E+04  0.65864270000E+03 0. -1.
    8880022    1    1    2    0    0 -0.73434256565E+02  0.11696948904E+02 -0.17484065060E+03  0.24390636475E+03  0.15294330000E+03 0.  0.
<mgrwt>
<rscale>  0 0.47173915E+03</rscale>
<asrwt>0</asrwt>
<pdfrwt beam="1">  1        2 0.17067756E+00 0.66282699E+03</pdfrwt>
<pdfrwt beam="2">  1       -2 0.47931961E-01 0.66282699E+03</pdfrwt>
<totfact> 0.90629782E+01</totfact>
</mgrwt>
</event>
<event>
 4    2  0.2930016E-007  0.7658320E+03  0.7818608E-02  0.9790236E-01
         -2   -1    0    0    0  501 -0.00000000000E+00  0.00000000000E+00  0.42093522808E+03  0.42093522809E+03  0.25500000000E-02 0.  1.
          2   -1    0    0  501    0  0.00000000000E+00 -0.00000000000E+00 -0.10593471031E+04  0.10593471032E+04  0.25500000000E-02 0. -1.
    8880023    1    1    2    0    0  0.39006568660E+03 -0.23178020134E+02 -0.72189376096E+03  0.10524396747E+04  0.65864270000E+03 0. -1.
    8880022    1    1    2    0    0 -0.39006568660E+03  0.23178020134E+02  0.83481885891E+02  0.42784265655E+03  0.15294330000E+03 0.  1.
<mgrwt>
<rscale>  0 0.65889153E+03</rscale>
<asrwt>0</asrwt>
<pdfrwt beam="1">  1        2 0.16297648E+00 0.76583201E+03</pdfrwt>
<pdfrwt beam="2">  1       -2 0.64759266E-01 0.76583201E+03</pdfrwt>
<totfact> 0.51564464E+01</totfact>
</mgrwt>
</event>
<event>
 4    2  0.2930016E-007  0.7319162E+03  0.7818608E-02  0.9884153E-01
          2   -1    0    0  501    0  0.00000000000E+00  0.00000000000E+00  0.11266412637E+04  0.11266412637E+04  0.25500000000E-02 0. -1.
         -2   -1    0    0    0  501 -0.00000000000E+00 -0.00000000000E+00 -0.37175223822E+03  0.37175223823E+03  0.25500000000E-02 0.  1.
    8880023    1    1    2    0    0 -0.10481162294E+03 -0.30150556885E+03  0.85987645091E+03  0.11291983003E+04  0.65864270000E+03 0. -1.
    8880022    1    1    2    0    0  0.10481162294E+03  0.30150556885E+03 -0.10498742547E+03  0.36919520158E+03  0.15294330000E+03 0.  0.
<mgrwt>
<rscale>  0 0.61035487E+03</rscale>
<asrwt>0</asrwt>
<pdfrwt beam="1">  1        2 0.17332942E+00 0.73191618E+03</pdfrwt>
<pdfrwt beam="2">  1       -2 0.57192653E-01 0.73191618E+03</pdfrwt>
<totfact> 0.61187308E+01</totfact>
</mgrwt>
</event>
<event>
 4    2  0.3307299E-007  0.9011807E+03  0.7818608E-02  0.9524139E-01
          2   -1    0    0  501    0  0.00000000000E+00  0.00000000000E+00  0.12310400368E+04  0.12310400368E+04  0.25500000000E-02 0. -1.
         -2   -1    0    0    0  501 -0.00000000000E+00 -0.00000000000E+00 -0.13358308511E+04  0.13358308511E+04  0.25500000000E-02 0.  1.
    8880023    1    1    2    0    0 -0.61046090865E+03  0.75192780783E+02  0.96692456997E+03  0.13217676821E+04  0.65864270000E+03 0.  0.
    8880022    1    1    2    0    0  0.61046090865E+03 -0.75192780783E+02 -0.10717153842E+04  0.12451032058E+04  0.15294330000E+03 0.  0.
<mgrwt>
<rscale>  0 0.82527320E+03</rscale>
<asrwt>0</asrwt>
<pdfrwt beam="1">  1        2 0.18939077E+00 0.90118072E+03</pdfrwt>
<pdfrwt beam="2">  1       -2 0.20551244E+00 0.90118072E+03</pdfrwt>
<totfact> 0.22340365E+00</totfact>
</mgrwt>
</event>
<event>
 4    2  0.2930016E-007  0.6924979E+03  0.7818608E-02  0.1002987E+00
         -2   -1    0    0    0  501 -0.00000000000E+00  0.00000000000E+00  0.28841433098E+03  0.28841433099E+03  0.25500000000E-02 0.  1.
          2   -1    0    0  501    0  0.00000000000E+00 -0.00000000000E+00 -0.17308275829E+04  0.17308275829E+04  0.25500000000E-02 0. -1.
    8880023    1    1    2    0    0 -0.18951037040E+03 -0.99140910762E+02 -0.15781041061E+04  0.17233588937E+04  0.65864270000E+03 0. -1.
    8880022    1    1    2    0    0  0.18951037040E+03  0.99140910762E+02  0.13569085419E+03  0.29588302013E+03  0.15294330000E+03 0.  0.
<mgrwt>
<rscale>  0 0.54359554E+03</rscale>
<asrwt>0</asrwt>
<pdfrwt beam="1">  1        2 0.26628116E+00 0.69249788E+03</pdfrwt>
<pdfrwt beam="2">  1       -2 0.44371437E-01 0.69249788E+03</pdfrwt>
<totfact> 0.46888472E+01</totfact>
</mgrwt>
</event>
<event>
 4    2  0.2930016E-007  0.7404786E+03  0.7818608E-02  0.9858555E-01
         -2   -1    0    0    0  501 -0.00000000000E+00  0.00000000000E+00  0.35476459779E+03  0.35476459780E+03  0.25500000000E-02 0.  1.
          2   -1    0    0  501    0  0.00000000000E+00 -0.00000000000E+00 -0.13605980927E+04  0.13605980927E+04  0.25500000000E-02 0. -1.
    8880023    1    1    2    0    0  0.20192005812E+02  0.33777309510E+03 -0.11057807658E+04  0.13308116655E+04  0.65864270000E+03 0. -1.
    8880022    1    1    2    0    0 -0.20192005812E+02 -0.33777309510E+03  0.99947270831E+02  0.38455102500E+03  0.15294330000E+03 0.  1.
<mgrwt>
<rscale>  0 0.62312619E+03</rscale>
<asrwt>0</asrwt>
<pdfrwt beam="1">  1        2 0.20932278E+00 0.74047862E+03</pdfrwt>
<pdfrwt beam="2">  1       -2 0.54579170E-01 0.74047862E+03</pdfrwt>
<totfact> 0.49162843E+01</totfact>
</mgrwt>
</event>
<event>
 4    2  0.2930016E-007  0.6643701E+03  0.7818608E-02  0.1020068E+00
          2   -1    0    0  501    0  0.00000000000E+00  0.00000000000E+00  0.22766335117E+04  0.22766335117E+04  0.25500000000E-02 0. -1.
         -2   -1    0    0    0  501 -0.00000000000E+00 -0.00000000000E+00 -0.10770478990E+03  0.10770478993E+03  0.25500000000E-02 0.  1.
    8880023    1    1    2    0    0  0.69138982635E+02  0.52889393764E+02  0.20870482188E+04  0.21902415302E+04  0.65864270000E+03 0. -1.
    8880022    1    1    2    0    0 -0.69138982635E+02 -0.52889393764E+02  0.81880503063E+02  0.19409677146E+03  0.15294330000E+03 0.  0.
<mgrwt>
<rscale>  0 0.47662161E+03</rscale>
<asrwt>0</asrwt>
<pdfrwt beam="1">  1        2 0.35025133E+00 0.66437015E+03</pdfrwt>
<pdfrwt beam="2">  1       -2 0.16569967E-01 0.66437015E+03</pdfrwt>
<totfact> 0.14392185E+02</totfact>
</mgrwt>
</event>
<event>
 4    2  0.2930016E-007  0.1214960E+04  0.7818608E-02  0.9142716E-01
          2   -1    0    0  501    0  0.00000000000E+00  0.00000000000E+00  0.28809958107E+04  0.28809958107E+04  0.25500000000E-02 0. -1.
         -2   -1    0    0    0  501 -0.00000000000E+00 -0.00000000000E+00 -0.45866412725E+03  0.45866412726E+03  0.25500000000E-02 0.  1.
    8880023    1    1    2    0    0  0.10087987853E+04 -0.15697713728E+03  0.16564294640E+04  0.20542360104E+04  0.65864270000E+03 0.  0.
    8880022    1    1    2    0    0 -0.10087987853E+04  0.15697713728E+03  0.76590221947E+03  0.12854239276E+04  0.15294330000E+03 0.  0.
<mgrwt>
<rscale>  0 0.11664771E+04</rscale>
<asrwt>0</asrwt>
<pdfrwt beam="1">  1        2 0.44323013E+00 0.12149597E+04</pdfrwt>
<pdfrwt beam="2">  1       -2 0.70563711E-01 0.12149597E+04</pdfrwt>
<totfact> 0.37367889E+00</totfact>
</mgrwt>
</event>
<event>
 4    2  0.2930016E-007  0.6633910E+03  0.7818608E-02  0.1020923E+00
          2   -1    0    0  501    0  0.00000000000E+00  0.00000000000E+00  0.18241695799E+04  0.18241695799E+04  0.25500000000E-02 0. -1.
         -2   -1    0    0    0  501 -0.00000000000E+00 -0.00000000000E+00 -0.25544711912E+03  0.25544711913E+03  0.25500000000E-02 0.  1.
    8880023    1    1    2    0    0  0.65611175369E+01  0.78958166171E+02  0.17242992417E+04  0.18475106283E+04  0.65864270000E+03 0. -1.
    8880022    1    1    2    0    0 -0.65611175369E+01 -0.78958166171E+02 -0.15557678099E+03  0.23210607073E+03  0.15294330000E+03 0.  0.
<mgrwt>
<rscale>  0 0.47354933E+03</rscale>
<asrwt>0</asrwt>
<pdfrwt beam="1">  1        2 0.28064147E+00 0.66339102E+03</pdfrwt>
<pdfrwt beam="2">  1       -2 0.39299557E-01 0.66339102E+03</pdfrwt>
<totfact> 0.53134539E+01</totfact>
</mgrwt>
</event>
<event>
 4    2  0.2930016E-007  0.6967708E+03  0.7818608E-02  0.1001087E+00
          2   -1    0    0  501    0  0.00000000000E+00  0.00000000000E+00  0.39113853308E+04  0.39113853308E+04  0.25500000000E-02 0. -1.
         -2   -1    0    0    0  501 -0.00000000000E+00 -0.00000000000E+00 -0.20114760481E+03  0.20114760483E+03  0.25500000000E-02 0.  1.
    8880023    1    1    2    0    0 -0.21466785833E+03 -0.74813165175E+02  0.37685362873E+04  0.38324085447E+04  0.65864270000E+03 0. -1.
    8880022    1    1    2    0    0  0.21466785833E+03  0.74813165175E+02 -0.58298561315E+02  0.28012439085E+03  0.15294330000E+03 0.  0.
<mgrwt>
<rscale>  0 0.55176155E+03</rscale>
<asrwt>0</asrwt>
<pdfrwt beam="1">  1        2 0.60175153E+00 0.69677077E+03</pdfrwt>
<pdfrwt beam="2">  1       -2 0.30945788E-01 0.69677077E+03</pdfrwt>
<totfact> 0.43417885E+00</totfact>
</mgrwt>
</event>
<event>
 4    2  0.2930016E-007  0.9305960E+03  0.7818608E-02  0.9478600E-01
          2   -1    0    0  501    0  0.00000000000E+00  0.00000000000E+00  0.10261441617E+04  0.10261441617E+04  0.25500000000E-02 0. -1.
         -2   -1    0    0    0  501 -0.00000000000E+00 -0.00000000000E+00 -0.11130972308E+04  0.11130972308E+04  0.25500000000E-02 0.  1.
    8880023    1    1    2    0    0 -0.42431786209E+03  0.50214847363E+03  0.65363685610E+03  0.11372115386E+04  0.65864270000E+03 0.  0.
    8880022    1    1    2    0    0  0.42431786209E+03 -0.50214847363E+03 -0.74058992522E+03  0.10020298539E+04  0.15294330000E+03 0.  0.
<mgrwt>
<rscale>  0 0.85880134E+03</rscale>
<asrwt>0</asrwt>
<pdfrwt beam="1">  1        2 0.15786833E+00 0.93059602E+03</pdfrwt>
<pdfrwt beam="2">  1       -2 0.17124573E+00 0.93059602E+03</pdfrwt>
<totfact> 0.50535412E+00</totfact>
</mgrwt>
</event>
<event>
 4    2  0.2930016E-007  0.6645591E+03  0.7818608E-02  0.1019906E+00
          2   -1    0    0  501    0  0.00000000000E+00  0.00000000000E+00  0.23080699666E+04  0.23080699666E+04  0.25500000000E-02 0. -1.
         -2   -1    0    0    0  501 -0.00000000000E+00 -0.00000000000E+00 -0.12572558192E+03  0.12572558195E+03  0.25500000000E-02 0.  1.
    8880023    1    1    2    0    0 -0.48075826731E+02 -0.74278291476E+02  0.21548232023E+04  0.22549726803E+04  0.65864270000E+03 0. -1.
    8880022    1    1    2    0    0  0.48075826731E+02  0.74278291476E+02  0.27521182394E+02  0.17882286821E+03  0.15294330000E+03 0.  0.
<mgrwt>
<rscale>  0 0.47720464E+03</rscale>
<asrwt>0</asrwt>
<pdfrwt beam="1">  1        2 0.35508769E+00 0.66455907E+03</pdfrwt>
<pdfrwt beam="2">  1       -2 0.19342397E-01 0.66455907E+03</pdfrwt>
<totfact> 0.10592821E+02</totfact>
</mgrwt>
</event>
<event>
 4    2  0.2930016E-007  0.1353378E+04  0.7818608E-02  0.9020783E-01
          2   -1    0    0  501    0  0.00000000000E+00  0.00000000000E+00  0.15641759149E+04  0.15641759149E+04  0.25500000000E-02 0. -1.
         -2   -1    0    0    0  501 -0.00000000000E+00 -0.00000000000E+00 -0.17317114918E+04  0.17317114918E+04  0.25500000000E-02 0.  1.
    8880023    1    1    2    0    0 -0.85587670296E+03  0.81565768787E+03  0.95660043475E+03  0.16573222356E+04  0.65864270000E+03 0. -1.
    8880022    1    1    2    0    0  0.85587670296E+03 -0.81565768787E+03 -0.11241360117E+04  0.16385651712E+04  0.15294330000E+03 0.  1.
<mgrwt>
<rscale>  0 0.13111332E+04</rscale>
<asrwt>0</asrwt>
<pdfrwt beam="1">  1        2 0.24064245E+00 0.13533782E+04</pdfrwt>
<pdfrwt beam="2">  1       -2 0.26641715E+00 0.13533782E+04</pdfrwt>
<totfact> 0.56848270E-01</totfact>
</mgrwt>
</event>
<event>
 4    2  0.2930016E-007  0.6718328E+03  0.7818608E-02  0.1014382E+00
          2   -1    0    0  501    0  0.00000000000E+00  0.00000000000E+00  0.26775067128E+04  0.26775067128E+04  0.25500000000E-02 0. -1.
         -2   -1    0    0    0  501 -0.00000000000E+00 -0.00000000000E+00 -0.12509187597E+03  0.12509187600E+03  0.25500000000E-02 0.  1.
    8880023    1    1    2    0    0  0.12289586269E+03 -0.49453623576E+02  0.25066881024E+04  0.25951578956E+04  0.65864270000E+03 0. -1.
    8880022    1    1    2    0    0 -0.12289586269E+03  0.49453623576E+02  0.45726734424E+02  0.20744069323E+03  0.15294330000E+03 0.  0.
<mgrwt>
<rscale>  0 0.49769732E+03</rscale>
<asrwt>0</asrwt>
<pdfrwt beam="1">  1        2 0.41192408E+00 0.67183276E+03</pdfrwt>
<pdfrwt beam="2">  1       -2 0.19244905E-01 0.67183276E+03</pdfrwt>
<totfact> 0.66018547E+01</totfact>
</mgrwt>
</event>
<event>
 4    2  0.2930016E-007  0.1615964E+04  0.7818608E-02  0.8831813E-01
         -2   -1    0    0    0  501 -0.00000000000E+00  0.00000000000E+00  0.16293007843E+04  0.16293007843E+04  0.25500000000E-02 0.  1.
          2   -1    0    0  501    0  0.00000000000E+00 -0.00000000000E+00 -0.35518872476E+04  0.35518872476E+04  0.25500000000E-02 0. -1.
    8880023    1    1    2    0    0  0.14730038077E+04 -0.88248809601E+02  0.10023061062E+04  0.19015666717E+04  0.65864270000E+03 0.  0.
    8880022    1    1    2    0    0 -0.14730038077E+04  0.88248809601E+02 -0.29248925695E+04  0.32796213602E+04  0.15294330000E+03 0.  0.
<mgrwt>
<rscale>  0 0.15817914E+04</rscale>
<asrwt>0</asrwt>
<pdfrwt beam="1">  1        2 0.54644419E+00 0.16159636E+04</pdfrwt>
<pdfrwt beam="2">  1       -2 0.25066166E+00 0.16159636E+04</pdfrwt>
<totfact> 0.44299029E-02</totfact>
</mgrwt>
</event>
<event>
 4    2  0.2930016E-007  0.6639343E+03  0.7818608E-02  0.1020445E+00
         -2   -1    0    0    0  501 -0.00000000000E+00  0.00000000000E+00  0.13926254140E+03  0.13926254142E+03  0.25500000000E-02 0.  1.
          2   -1    0    0  501    0  0.00000000000E+00 -0.00000000000E+00 -0.14704956503E+04  0.14704956503E+04  0.25500000000E-02 0. -1.
    8880023    1    1    2    0    0  0.67749433223E+02 -0.49076519499E+02 -0.12543572992E+04  0.14192325147E+04  0.65864270000E+03 0.  0.
    8880022    1    1    2    0    0 -0.67749433223E+02  0.49076519499E+02 -0.76875809688E+02  0.19052567700E+03  0.15294330000E+03 0.  0.
<mgrwt>
<rscale>  0 0.47526453E+03</rscale>
<asrwt>0</asrwt>
<pdfrwt beam="1">  1        2 0.22623009E+00 0.66393426E+03</pdfrwt>
<pdfrwt beam="2">  1       -2 0.21425007E-01 0.66393426E+03</pdfrwt>
<totfact> 0.25426445E+02</totfact>
</mgrwt>
</event>
<event>
 4    2  0.2930016E-007  0.8551402E+03  0.7818608E-02  0.9602267E-01
          2   -1    0    0  501    0  0.00000000000E+00  0.00000000000E+00  0.28475472139E+03  0.28475472140E+03  0.25500000000E-02 0. -1.
         -2   -1    0    0    0  501 -0.00000000000E+00 -0.00000000000E+00 -0.20387089184E+04  0.20387089184E+04  0.25500000000E-02 0.  1.
    8880023    1    1    2    0    0  0.52187906313E+03 -0.15841985312E+03 -0.14428364483E+04  0.16772125176E+04  0.65864270000E+03 0.  1.
    8880022    1    1    2    0    0 -0.52187906313E+03  0.15841985312E+03 -0.31111774874E+03  0.64625112223E+03  0.15294330000E+03 0.  0.
<mgrwt>
<rscale>  0 0.77146304E+03</rscale>
<asrwt>0</asrwt>
<pdfrwt beam="1">  1        2 0.43808420E-01 0.85514023E+03</pdfrwt>
<pdfrwt beam="2">  1       -2 0.31364752E+00 0.85514023E+03</pdfrwt>
<totfact> 0.31365229E+00</totfact>
</mgrwt>
</event>
<event>
 4    2  0.4785050E-007  0.7030051E+03  0.7818608E-02  0.9984956E-01
          2   -1    0    0  501    0  0.00000000000E+00  0.00000000000E+00  0.11175538910E+04  0.11175538910E+04  0.25500000000E-02 0. -1.
         -2   -1    0    0    0  501 -0.00000000000E+00 -0.00000000000E+00 -0.13478682494E+04  0.13478682494E+04  0.25500000000E-02 0.  1.
    8880023    1    1    2    0    0  0.23364591149E+03 -0.76259576515E+02  0.98833845405E+03  0.12128598604E+04  0.65864270000E+03 0. -1.
    8880022    1    1    2    0    0 -0.23364591149E+03  0.76259576515E+02 -0.12186528124E+04  0.12525622800E+04  0.15294330000E+03 0.  0.
<mgrwt>
<rscale>  0 0.56314831E+03</rscale>
<asrwt>0</asrwt>
<pdfrwt beam="1">  1        2 0.17193137E+00 0.70300508E+03</pdfrwt>
<pdfrwt beam="2">  1       -2 0.20736435E+00 0.70300508E+03</pdfrwt>
<totfact> 0.26190187E+00</totfact>
</mgrwt>
</event>
<event>
 4    2  0.2930016E-007  0.6832319E+03  0.7818608E-02  0.1007552E+00
          2   -1    0    0  501    0  0.00000000000E+00  0.00000000000E+00  0.15124798356E+04  0.15124798356E+04  0.25500000000E-02 0. -1.
         -2   -1    0    0    0  501 -0.00000000000E+00 -0.00000000000E+00 -0.15628562133E+03  0.15628562136E+03  0.25500000000E-02 0.  1.
    8880023    1    1    2    0    0 -0.12056542415E+03  0.13586600209E+03  0.12109782610E+04  0.13904222908E+04  0.65864270000E+03 0. -1.
    8880022    1    1    2    0    0  0.12056542415E+03 -0.13586600209E+03  0.14521595329E+03  0.27834316613E+03  0.15294330000E+03 0.  0.
<mgrwt>
<rscale>  0 0.52459446E+03</rscale>
<asrwt>0</asrwt>
<pdfrwt beam="1">  1        2 0.23268920E+00 0.68323188E+03</pdfrwt>
<pdfrwt beam="2">  1       -2 0.24043942E-01 0.68323188E+03</pdfrwt>
<totfact> 0.19601927E+02</totfact>
</mgrwt>
</event>
<event>
 4    2  0.2930016E-007  0.8664182E+03  0.7818608E-02  0.9582247E-01
          2   -1    0    0  501    0  0.00000000000E+00  0.00000000000E+00  0.13567690275E+04  0.13567690275E+04  0.25500000000E-02 0. -1.
         -2   -1    0    0    0  501 -0.00000000000E+00 -0.00000000000E+00 -0.84492484063E+03  0.84492484063E+03  0.25500000000E-02 0.  1.
    8880023    1    1    2    0    0 -0.38451386178E+03 -0.41111971498E+03  0.10819073749E+04  0.13860750716E+04  0.65864270000E+03 0. -1.
    8880022    1    1    2    0    0  0.38451386178E+03  0.41111971498E+03 -0.57006318802E+03  0.81561879656E+03  0.15294330000E+03 0.  0.
<mgrwt>
<rscale>  0 0.78482416E+03</rscale>
<asrwt>0</asrwt>
<pdfrwt beam="1">  1        2 0.20873370E+00 0.86641822E+03</pdfrwt>
<pdfrwt beam="2">  1       -2 0.12998844E+00 0.86641822E+03</pdfrwt>
<totfact> 0.67062725E+00</totfact>
</mgrwt>
</event>
<event>
 4    2  0.2930016E-007  0.8299078E+03  0.7818608E-02  0.9649512E-01
          2   -1    0    0  501    0  0.00000000000E+00  0.00000000000E+00  0.73304478603E+03  0.73304478604E+03  0.25500000000E-02 0. -1.
         -2   -1    0    0    0  501 -0.00000000000E+00 -0.00000000000E+00 -0.64614684332E+03  0.64614684333E+03  0.25500000000E-02 0.  1.
    8880023    1    1    2    0    0 -0.36723796315E+03 -0.34651565366E+03  0.16418300389E+03  0.84599236689E+03  0.65864270000E+03 0.  1.
    8880022    1    1    2    0    0  0.36723796315E+03  0.34651565366E+03 -0.77285061183E+02  0.53319926247E+03  0.15294330000E+03 0.  0.
<mgrwt>
<rscale>  0 0.74104078E+03</rscale>
<asrwt>0</asrwt>
<pdfrwt beam="1">  1        2 0.11277612E+00 0.82990784E+03</pdfrwt>
<pdfrwt beam="2">  1       -2 0.99407207E-01 0.82990784E+03</pdfrwt>
<totfact> 0.32586354E+01</totfact>
</mgrwt>
</event>
<event>
 4    2  0.2930016E-007  0.6682095E+03  0.7818608E-02  0.1016980E+00
          2   -1    0    0  501    0  0.00000000000E+00  0.00000000000E+00  0.94960912646E+03  0.94960912647E+03  0.25500000000E-02 0. -1.
         -2   -1    0    0    0  501 -0.00000000000E+00 -0.00000000000E+00 -0.20253780003E+03  0.20253780004E+03  0.25500000000E-02 0.  1.
    8880023    1    1    2    0    0 -0.11251659165E+03 -0.58046926450E+01  0.67262572411E+03  0.94811879470E+03  0.65864270000E+03 0.  1.
    8880022    1    1    2    0    0  0.11251659165E+03  0.58046926450E+01  0.74445602321E+02  0.20402813182E+03  0.15294330000E+03 0.  0.
<mgrwt>
<rscale>  0 0.48792245E+03</rscale>
<asrwt>0</asrwt>
<pdfrwt beam="1">  1        2 0.14609371E+00 0.66820946E+03</pdfrwt>
<pdfrwt beam="2">  1       -2 0.31159662E-01 0.66820946E+03</pdfrwt>
<totfact> 0.26275409E+02</totfact>
</mgrwt>
</event>
<event>
 4    2  0.2930016E-007  0.7860388E+03  0.7818608E-02  0.9741838E-01
         -2   -1    0    0    0  501 -0.00000000000E+00  0.00000000000E+00  0.78213575157E+03  0.78213575157E+03  0.25500000000E-02 0.  1.
          2   -1    0    0  501    0  0.00000000000E+00 -0.00000000000E+00 -0.85985796686E+03  0.85985796686E+03  0.25500000000E-02 0. -1.
    8880023    1    1    2    0    0  0.39098517531E+03 -0.17657116561E+03 -0.57029038232E+03  0.97112723691E+03  0.65864270000E+03 0. -1.
    8880022    1    1    2    0    0 -0.39098517531E+03  0.17657116561E+03  0.49256816703E+03  0.67086648152E+03  0.15294330000E+03 0.  0.
<mgrwt>
<rscale>  0 0.68579473E+03</rscale>
<asrwt>0</asrwt>
<pdfrwt beam="1">  1        2 0.13228584E+00 0.78603880E+03</pdfrwt>
<pdfrwt beam="2">  1       -2 0.12032858E+00 0.78603880E+03</pdfrwt>
<totfact> 0.16667863E+01</totfact>
</mgrwt>
</event>
<event>
 4    2  0.2930016E-007  0.6677721E+03  0.7818608E-02  0.1017313E+00
          2   -1    0    0  501    0  0.00000000000E+00  0.00000000000E+00  0.12993632334E+04  0.12993632334E+04  0.25500000000E-02 0. -1.
         -2   -1    0    0    0  501 -0.00000000000E+00 -0.00000000000E+00 -0.17895440936E+03  0.17895440938E+03  0.25500000000E-02 0.  1.
    8880023    1    1    2    0    0 -0.35054343204E+02  0.10431021760E+03  0.11026156848E+04  0.12890620555E+04  0.65864270000E+03 0. -1.
    8880022    1    1    2    0    0  0.35054343204E+02 -0.10431021760E+03  0.17793139245E+02  0.18925558721E+03  0.15294330000E+03 0.  0.
<mgrwt>
<rscale>  0 0.48668888E+03</rscale>
<asrwt>0</asrwt>
<pdfrwt beam="1">  1        2 0.19990203E+00 0.66777214E+03</pdfrwt>
<pdfrwt beam="2">  1       -2 0.27531448E-01 0.66777214E+03</pdfrwt>
<totfact> 0.20252238E+02</totfact>
</mgrwt>
</event>
<event>
 4    2  0.3003894E-007  0.6905562E+03  0.7818608E-02  0.1003889E+00
          2   -1    0    0  501    0  0.00000000000E+00  0.00000000000E+00  0.12678710220E+04  0.12678710220E+04  0.25500000000E-02 0. -1.
         -2   -1    0    0    0  501 -0.00000000000E+00 -0.00000000000E+00 -0.13285645562E+04  0.13285645562E+04  0.25500000000E-02 0.  1.
    8880023    1    1    2    0    0 -0.18612034874E+03  0.91743187412E+02  0.11593649370E+04  0.13494424256E+04  0.65864270000E+03 0.  0.
    8880022    1    1    2    0    0  0.18612034874E+03 -0.91743187412E+02 -0.12200584711E+04  0.12469931526E+04  0.15294330000E+03 0.  1.
<mgrwt>
<rscale>  0 0.53977220E+03</rscale>
<asrwt>0</asrwt>
<pdfrwt beam="1">  1        2 0.19505708E+00 0.69055615E+03</pdfrwt>
<pdfrwt beam="2">  1       -2 0.20439455E+00 0.69055615E+03</pdfrwt>
<totfact> 0.22341522E+00</totfact>
</mgrwt>
</event>
<event>
 4    2  0.2930016E-007  0.7108752E+03  0.7818608E-02  0.9954765E-01
          2   -1    0    0  501    0  0.00000000000E+00  0.00000000000E+00  0.88970679125E+03  0.88970679126E+03  0.25500000000E-02 0. -1.
         -2   -1    0    0    0  501 -0.00000000000E+00 -0.00000000000E+00 -0.35593611118E+03  0.35593611119E+03  0.25500000000E-02 0.  1.
    8880023    1    1    2    0    0 -0.25973266652E+03 -0.63814608719E+02  0.60031252953E+03  0.93044005810E+03  0.65864270000E+03 0.  0.
    8880022    1    1    2    0    0  0.25973266652E+03  0.63814608719E+02 -0.66541849456E+02  0.31520284435E+03  0.15294330000E+03 0.  0.
<mgrwt>
<rscale>  0 0.57678986E+03</rscale>
<asrwt>0</asrwt>
<pdfrwt beam="1">  1        2 0.13687797E+00 0.71087521E+03</pdfrwt>
<pdfrwt beam="2">  1       -2 0.54759402E-01 0.71087521E+03</pdfrwt>
<totfact> 0.94972640E+01</totfact>
</mgrwt>
</event>
<event>
 4    2  0.2930016E-007  0.9247820E+03  0.7818608E-02  0.9487365E-01
         -2   -1    0    0    0  501 -0.00000000000E+00  0.00000000000E+00  0.87220746618E+03  0.87220746618E+03  0.25500000000E-02 0.  1.
          2   -1    0    0  501    0  0.00000000000E+00 -0.00000000000E+00 -0.13034871768E+04  0.13034871768E+04  0.25500000000E-02 0. -1.
    8880023    1    1    2    0    0 -0.58523825869E+03  0.28090518585E+03 -0.95374697855E+03  0.13284784711E+04  0.65864270000E+03 0.  0.
    8880022    1    1    2    0    0  0.58523825869E+03 -0.28090518585E+03  0.52246726790E+03  0.84721617189E+03  0.15294330000E+03 0.  0.
<mgrwt>
<rscale>  0 0.85221763E+03</rscale>
<asrwt>0</asrwt>
<pdfrwt beam="1">  1        2 0.20053649E+00 0.92478200E+03</pdfrwt>
<pdfrwt beam="2">  1       -2 0.13418576E+00 0.92478200E+03</pdfrwt>
<totfact> 0.65939192E+00</totfact>
</mgrwt>
</event>
<event>
 4    2  0.2930016E-007  0.6657915E+03  0.7818608E-02  0.1018878E+00
         -2   -1    0    0    0  501 -0.00000000000E+00  0.00000000000E+00  0.10119787583E+04  0.10119787583E+04  0.25500000000E-02 0.  1.
          2   -1    0    0  501    0  0.00000000000E+00 -0.00000000000E+00 -0.85342173567E+03  0.85342173567E+03  0.25500000000E-02 0. -1.
    8880023    1    1    2    0    0  0.63289010087E+02 -0.73909757299E+02 -0.71280565668E+03  0.97538211050E+03  0.65864270000E+03 0. -1.
    8880022    1    1    2    0    0 -0.63289010087E+02  0.73909757299E+02  0.87136267933E+03  0.89001838350E+03  0.15294330000E+03 0.  0.
<mgrwt>
<rscale>  0 0.48093548E+03</rscale>
<asrwt>0</asrwt>
<pdfrwt beam="1">  1        2 0.13129565E+00 0.66579153E+03</pdfrwt>
<pdfrwt beam="2">  1       -2 0.15568904E+00 0.66579153E+03</pdfrwt>
<totfact> 0.88019200E+00</totfact>
</mgrwt>
</event>
<event>
 4    2  0.2930016E-007  0.1016312E+04  0.7818608E-02  0.9360521E-01
         -2   -1    0    0    0  501 -0.00000000000E+00  0.00000000000E+00  0.11037176227E+04  0.11037176227E+04  0.25500000000E-02 0.  1.
          2   -1    0    0  501    0  0.00000000000E+00 -0.00000000000E+00 -0.14972474724E+04  0.14972474724E+04  0.25500000000E-02 0. -1.
    8880023    1    1    2    0    0 -0.68513641610E+03  0.36009426962E+03 -0.11313173609E+04  0.15207790665E+04  0.65864270000E+03 0. -1.
    8880022    1    1    2    0    0  0.68513641610E+03 -0.36009426962E+03  0.73778751119E+03  0.10801860286E+04  0.15294330000E+03 0.  0.
<mgrwt>
<rscale>  0 0.95397107E+03</rscale>
<asrwt>0</asrwt>
<pdfrwt beam="1">  1        2 0.23034577E+00 0.10163120E+04</pdfrwt>
<pdfrwt beam="2">  1       -2 0.16980271E+00 0.10163120E+04</pdfrwt>
<totfact> 0.26983833E+00</totfact>
</mgrwt>
</event>
<event>
 4    2  0.2930016E-007  0.1036424E+04  0.7818608E-02  0.9335382E-01
         -2   -1    0    0    0  501 -0.00000000000E+00  0.00000000000E+00  0.62162220568E+03  0.62162220569E+03  0.25500000000E-02 0.  1.
          2   -1    0    0  501    0  0.00000000000E+00 -0.00000000000E+00 -0.15873538833E+04  0.15873538833E+04  0.25500000000E-02 0. -1.
    8880023    1    1    2    0    0 -0.79604392082E+03  0.81724030630E+02 -0.93155720410E+03  0.13935471904E+04  0.65864270000E+03 0.  0.
    8880022    1    1    2    0    0  0.79604392082E+03 -0.81724030630E+02 -0.34174473541E+02  0.81542889863E+03  0.15294330000E+03 0.  0.
<mgrwt>
<rscale>  0 0.97589754E+03</rscale>
<asrwt>0</asrwt>
<pdfrwt beam="1">  1        2 0.24420829E+00 0.10364241E+04</pdfrwt>
<pdfrwt beam="2">  1       -2 0.95634186E-01 0.10364241E+04</pdfrwt>
<totfact> 0.10326693E+01</totfact>
</mgrwt>
</event>
<event>
 4    2  0.2930016E-007  0.7060603E+03  0.7818608E-02  0.9972932E-01
          2   -1    0    0  501    0  0.00000000000E+00  0.00000000000E+00  0.48400181233E+03  0.48400181234E+03  0.25500000000E-02 0. -1.
         -2   -1    0    0    0  501 -0.00000000000E+00 -0.00000000000E+00 -0.63072695663E+03  0.63072695663E+03  0.25500000000E-02 0.  1.
    8880023    1    1    2    0    0  0.13163964507E+03  0.21767399449E+03 -0.31542821649E+03  0.77331502640E+03  0.65864270000E+03 0.  1.
    8880022    1    1    2    0    0 -0.13163964507E+03 -0.21767399449E+03  0.16870307220E+03  0.34141374257E+03  0.15294330000E+03 0.  1.
<mgrwt>
<rscale>  0 0.56853205E+03</rscale>
<asrwt>0</asrwt>
<pdfrwt beam="1">  1        2 0.74461817E-01 0.70606032E+03</pdfrwt>
<pdfrwt beam="2">  1       -2 0.97034917E-01 0.70606032E+03</pdfrwt>
<totfact> 0.57529981E+01</totfact>
</mgrwt>
</event>
<event>
 4    2  0.2930016E-007  0.7541354E+03  0.7818608E-02  0.9820534E-01
         -2   -1    0    0    0  501 -0.00000000000E+00  0.00000000000E+00  0.76533044076E+03  0.76533044076E+03  0.25500000000E-02 0.  1.
          2   -1    0    0  501    0  0.00000000000E+00 -0.00000000000E+00 -0.23765741635E+04  0.23765741635E+04  0.25500000000E-02 0. -1.
    8880023    1    1    2    0    0 -0.44231370273E+02  0.36462801981E+03 -0.22590886151E+04  0.23816384243E+04  0.65864270000E+03 0. -1.
    8880022    1    1    2    0    0  0.44231370273E+02 -0.36462801981E+03  0.64784489231E+03  0.76026618000E+03  0.15294330000E+03 0.  0.
<mgrwt>
<rscale>  0 0.64272128E+03</rscale>
<asrwt>0</asrwt>
<pdfrwt beam="1">  1        2 0.36562679E+00 0.75413541E+03</pdfrwt>
<pdfrwt beam="2">  1       -2 0.11774315E+00 0.75413541E+03</pdfrwt>
<totfact> 0.23872635E+00</totfact>
</mgrwt>
</event>
<event>
 4    2  0.2930016E-007  0.7718531E+03  0.7818608E-02  0.9775334E-01
         -2   -1    0    0    0  501 -0.00000000000E+00  0.00000000000E+00  0.70891143715E+03  0.70891143715E+03  0.25500000000E-02 0.  1.
          2   -1    0    0  501    0  0.00000000000E+00 -0.00000000000E+00 -0.64658619961E+03  0.64658619962E+03  0.25500000000E-02 0. -1.
    8880023    1    1    2    0    0 -0.12033922872E+03  0.38401235805E+03 -0.26349788965E+03  0.81559080746E+03  0.65864270000E+03 0. -1.
    8880022    1    1    2    0    0  0.12033922872E+03 -0.38401235805E+03  0.32582312718E+03  0.53990682930E+03  0.15294330000E+03 0.  0.
<mgrwt>
<rscale>  0 0.66703213E+03</rscale>
<asrwt>0</asrwt>
<pdfrwt beam="1">  1        2 0.99474801E-01 0.77185311E+03</pdfrwt>
<pdfrwt beam="2">  1       -2 0.10906330E+00 0.77185311E+03</pdfrwt>
<totfact> 0.30698116E+01</totfact>
</mgrwt>
</event>
<event>
 4    2  0.2930016E-007  0.7056029E+03  0.7818608E-02  0.9974707E-01
          2   -1    0    0  501    0  0.00000000000E+00  0.00000000000E+00  0.13978753256E+04  0.13978753256E+04  0.25500000000E-02 0. -1.
         -2   -1    0    0    0  501 -0.00000000000E+00 -0.00000000000E+00 -0.27886621877E+03  0.27886621878E+03  0.25500000000E-02 0.  1.
    8880023    1    1    2    0    0  0.93992666079E+02  0.23501202146E+03  0.11799185587E+04  0.13748029979E+04  0.65864270000E+03 0.  0.
    8880022    1    1    2    0    0 -0.93992666079E+02 -0.23501202146E+03 -0.60909451908E+02  0.30193854648E+03  0.15294330000E+03 0.  0.
<mgrwt>
<rscale>  0 0.56773354E+03</rscale>
<asrwt>0</asrwt>
<pdfrwt beam="1">  1        2 0.21505775E+00 0.70560292E+03</pdfrwt>
<pdfrwt beam="2">  1       -2 0.42902495E-01 0.70560292E+03</pdfrwt>
<totfact> 0.76452395E+01</totfact>
</mgrwt>
</event>
<event>
 4    2  0.2930016E-007  0.7178356E+03  0.7818608E-02  0.9929979E-01
          2   -1    0    0  501    0  0.00000000000E+00  0.00000000000E+00  0.54001027122E+03  0.54001027123E+03  0.25500000000E-02 0. -1.
         -2   -1    0    0    0  501 -0.00000000000E+00 -0.00000000000E+00 -0.17523112754E+04  0.17523112754E+04  0.25500000000E-02 0.  1.
    8880023    1    1    2    0    0 -0.22838212573E+03  0.17122878674E+03  0.27609716758E+03  0.76910177803E+03  0.65864270000E+03 0. -1.
    8880022    1    1    2    0    0  0.22838212573E+03 -0.17122878674E+03 -0.14883981717E+04  0.15232197686E+04  0.15294330000E+03 0.  0.
<mgrwt>
<rscale>  0 0.58830129E+03</rscale>
<asrwt>0</asrwt>
<pdfrwt beam="1">  1        2 0.83078504E-01 0.71783557E+03</pdfrwt>
<pdfrwt beam="2">  1       -2 0.26958635E+00 0.71783557E+03</pdfrwt>
<totfact> 0.28498496E+00</totfact>
</mgrwt>
</event>
<event>
 4    2  0.2930016E-007  0.7688191E+03  0.7818608E-02  0.9782788E-01
         -2   -1    0    0    0  501 -0.00000000000E+00  0.00000000000E+00  0.15772957356E+03  0.15772957358E+03  0.25500000000E-02 0.  1.
          2   -1    0    0  501    0  0.00000000000E+00 -0.00000000000E+00 -0.35702348124E+04  0.35702348124E+04  0.25500000000E-02 0. -1.
    8880023    1    1    2    0    0  0.37521020525E+03  0.12841304126E+03 -0.31166825115E+04  0.32101078940E+04  0.65864270000E+03 0.  0.
    8880022    1    1    2    0    0 -0.37521020525E+03 -0.12841304126E+03 -0.29582272737E+03  0.51785649203E+03  0.15294330000E+03 0.  0.
<mgrwt>
<rscale>  0 0.66294447E+03</rscale>
<asrwt>0</asrwt>
<pdfrwt beam="1">  1        2 0.54926684E+00 0.76881910E+03</pdfrwt>
<pdfrwt beam="2">  1       -2 0.24266091E-01 0.76881910E+03</pdfrwt>
<totfact> 0.11824031E+01</totfact>
</mgrwt>
</event>
<event>
 4    2  0.2930016E-007  0.7313348E+03  0.7818608E-02  0.9885947E-01
          2   -1    0    0  501    0  0.00000000000E+00  0.00000000000E+00  0.10941654368E+04  0.10941654368E+04  0.25500000000E-02 0. -1.
         -2   -1    0    0    0  501 -0.00000000000E+00 -0.00000000000E+00 -0.30008395170E+03  0.30008395171E+03  0.25500000000E-02 0.  1.
    8880023    1    1    2    0    0  0.31337311723E+03  0.53270485690E+02  0.73449890122E+03  0.10365033996E+04  0.65864270000E+03 0.  0.
    8880022    1    1    2    0    0 -0.31337311723E+03 -0.53270485690E+02  0.59582583868E+02  0.35774598889E+03  0.15294330000E+03 0. -1.
<mgrwt>
<rscale>  0 0.60947200E+03</rscale>
<asrwt>0</asrwt>
<pdfrwt beam="1">  1        2 0.16833314E+00 0.73133485E+03</pdfrwt>
<pdfrwt beam="2">  1       -2 0.46166762E-01 0.73133485E+03</pdfrwt>
<totfact> 0.99265455E+01</totfact>
</mgrwt>
</event>
<event>
 4    2  0.2930016E-007  0.7911349E+03  0.7818608E-02  0.9730303E-01
          2   -1    0    0  501    0  0.00000000000E+00  0.00000000000E+00  0.11340860489E+04  0.11340860489E+04  0.25500000000E-02 0. -1.
         -2   -1    0    0    0  501 -0.00000000000E+00 -0.00000000000E+00 -0.48225063676E+03  0.48225063677E+03  0.25500000000E-02 0.  1.
    8880023    1    1    2    0    0 -0.30661305303E+03  0.31316547491E+03  0.80387475186E+03  0.11278780971E+04  0.65864270000E+03 0. -1.
    8880022    1    1    2    0    0  0.30661305303E+03 -0.31316547491E+03 -0.15203933968E+03  0.48845858861E+03  0.15294330000E+03 0.  0.
<mgrwt>
<rscale>  0 0.69240902E+03</rscale>
<asrwt>0</asrwt>
<pdfrwt beam="1">  1        2 0.17447478E+00 0.79113487E+03</pdfrwt>
<pdfrwt beam="2">  1       -2 0.74192406E-01 0.79113487E+03</pdfrwt>
<totfact> 0.34417367E+01</totfact>
</mgrwt>
</event>
<event>
 4    2  0.2930016E-007  0.8059277E+03  0.7818608E-02  0.9698123E-01
         -2   -1    0    0    0  501 -0.00000000000E+00  0.00000000000E+00  0.51236074638E+03  0.51236074638E+03  0.25500000000E-02 0.  1.
          2   -1    0    0  501    0  0.00000000000E+00 -0.00000000000E+00 -0.42649551941E+04  0.42649551941E+04  0.25500000000E-02 0. -1.
    8880023    1    1    2    0    0  0.39386800949E+03  0.24612443793E+03 -0.40993786873E+04  0.41778493362E+04  0.65864270000E+03 0. -1.
    8880022    1    1    2    0    0 -0.39386800949E+03 -0.24612443793E+03  0.34678423956E+03  0.59946660430E+03  0.15294330000E+03 0.  0.
<mgrwt>
<rscale>  0 0.71128674E+03</rscale>
<asrwt>0</asrwt>
<pdfrwt beam="1">  1        2 0.65614693E+00 0.80592770E+03</pdfrwt>
<pdfrwt beam="2">  1       -2 0.78824733E-01 0.80592770E+03</pdfrwt>
<totfact> 0.32413837E-01</totfact>
</mgrwt>
</event>
<event>
 4    2  0.2930016E-007  0.8101758E+03  0.7818608E-02  0.9689211E-01
         -2   -1    0    0    0  501 -0.00000000000E+00  0.00000000000E+00  0.50522203617E+03  0.50522203618E+03  0.25500000000E-02 0.  1.
          2   -1    0    0  501    0  0.00000000000E+00 -0.00000000000E+00 -0.16335497233E+04  0.16335497233E+04  0.25500000000E-02 0. -1.
    8880023    1    1    2    0    0  0.23753634338E+03  0.40761635036E+03 -0.13664837526E+04  0.15886039959E+04  0.65864270000E+03 0.  0.
    8880022    1    1    2    0    0 -0.23753634338E+03 -0.40761635036E+03  0.23815606547E+03  0.55016776354E+03  0.15294330000E+03 0.  0.
<mgrwt>
<rscale>  0 0.71662819E+03</rscale>
<asrwt>0</asrwt>
<pdfrwt beam="1">  1        2 0.25131534E+00 0.81017579E+03</pdfrwt>
<pdfrwt beam="2">  1       -2 0.77726468E-01 0.81017579E+03</pdfrwt>
<totfact> 0.16049831E+01</totfact>
</mgrwt>
</event>
<event>
 4    2  0.2930016E-007  0.6788298E+03  0.7818608E-02  0.1009993E+00
          2   -1    0    0  501    0  0.00000000000E+00  0.00000000000E+00  0.35094519826E+04  0.35094519826E+04  0.25500000000E-02 0. -1.
         -2   -1    0    0    0  501 -0.00000000000E+00 -0.00000000000E+00 -0.59984963459E+02  0.59984963513E+02  0.25500000000E-02 0.  1.
    8880023    1    1    2    0    0  0.16081060350E+03  0.33759194296E+02  0.22924384484E+04  0.23908333232E+04  0.65864270000E+03 0.  1.
    8880022    1    1    2    0    0 -0.16081060350E+03 -0.33759194296E+02  0.11570285708E+04  0.11786036229E+04  0.15294330000E+03 0. -1.
<mgrwt>
<rscale>  0 0.51477237E+03</rscale>
<asrwt>0</asrwt>
<pdfrwt beam="1">  1        2 0.53991573E+00 0.67882983E+03</pdfrwt>
<pdfrwt beam="2">  1       -2 0.92284553E-02 0.67882983E+03</pdfrwt>
<totfact> 0.68133264E+01</totfact>
</mgrwt>
</event>
<event>
 4    2  0.2930016E-007  0.1411757E+04  0.7818608E-02  0.8974601E-01
         -2   -1    0    0    0  501 -0.00000000000E+00  0.00000000000E+00  0.30833522049E+04  0.30833522049E+04  0.25500000000E-02 0.  1.
          2   -1    0    0  501    0  0.00000000000E+00 -0.00000000000E+00 -0.80099041460E+03  0.80099041461E+03  0.25500000000E-02 0. -1.
    8880023    1    1    2    0    0 -0.42796483821E+02  0.12479644989E+04  0.16489275527E+03  0.14213538463E+04  0.65864270000E+03 0.  0.
    8880022    1    1    2    0    0  0.42796483821E+02 -0.12479644989E+04  0.21174690350E+04  0.24629887732E+04  0.15294330000E+03 0.  0.
<mgrwt>
<rscale>  0 0.13716478E+04</rscale>
<asrwt>0</asrwt>
<pdfrwt beam="1">  1        2 0.12322929E+00 0.14117568E+04</pdfrwt>
<pdfrwt beam="2">  1       -2 0.47436188E+00 0.14117568E+04</pdfrwt>
<totfact> 0.79198464E-02</totfact>
</mgrwt>
</event>
<event>
 4    2  0.2930016E-007  0.9260074E+03  0.7818608E-02  0.9485509E-01
          2   -1    0    0  501    0  0.00000000000E+00  0.00000000000E+00  0.48116328885E+03  0.48116328886E+03  0.25500000000E-02 0. -1.
         -2   -1    0    0    0  501 -0.00000000000E+00 -0.00000000000E+00 -0.14559568289E+04  0.14559568289E+04  0.25500000000E-02 0.  1.
    8880023    1    1    2    0    0  0.43939202191E+03  0.48022305579E+03 -0.26763746634E+03  0.96390847693E+03  0.65864270000E+03 0.  0.
    8880022    1    1    2    0    0 -0.43939202191E+03 -0.48022305579E+03 -0.70715607369E+03  0.97321164081E+03  0.15294330000E+03 0.  0.
<mgrwt>
<rscale>  0 0.85360693E+03</rscale>
<asrwt>0</asrwt>
<pdfrwt beam="1">  1        2 0.74025122E-01 0.92600742E+03</pdfrwt>
<pdfrwt beam="2">  1       -2 0.22399336E+00 0.92600742E+03</pdfrwt>
<totfact> 0.60304035E+00</totfact>
</mgrwt>
</event>
<event>
 4    2  0.2930016E-007  0.7683574E+03  0.7818608E-02  0.9783932E-01
          2   -1    0    0  501    0  0.00000000000E+00  0.00000000000E+00  0.21753957006E+04  0.21753957006E+04  0.25500000000E-02 0. -1.
         -2   -1    0    0    0  501 -0.00000000000E+00 -0.00000000000E+00 -0.19574735184E+03  0.19574735186E+03  0.25500000000E-02 0.  1.
    8880023    1    1    2    0    0  0.36821382246E+03  0.14485007820E+03  0.16929010583E+04  0.18591092393E+04  0.65864270000E+03 0. -1.
    8880022    1    1    2    0    0 -0.36821382246E+03 -0.14485007820E+03  0.28674729043E+03  0.51203381313E+03  0.15294330000E+03 0.  0.
<mgrwt>
<rscale>  0 0.66231998E+03</rscale>
<asrwt>0</asrwt>
<pdfrwt beam="1">  1        2 0.33467625E+00 0.76835745E+03</pdfrwt>
<pdfrwt beam="2">  1       -2 0.30114979E-01 0.76835745E+03</pdfrwt>
<totfact> 0.55912685E+01</totfact>
</mgrwt>
</event>
<event>
 4    2  0.2930016E-007  0.7539121E+03  0.7818608E-02  0.9821131E-01
         -2   -1    0    0    0  501 -0.00000000000E+00  0.00000000000E+00  0.28039572783E+03  0.28039572784E+03  0.25500000000E-02 0.  1.
          2   -1    0    0  501    0  0.00000000000E+00 -0.00000000000E+00 -0.15814234387E+04  0.15814234387E+04  0.25500000000E-02 0. -1.
    8880023    1    1    2    0    0  0.31807858274E+03 -0.18275451087E+03 -0.12518517453E+04  0.14613405471E+04  0.65864270000E+03 0. -1.
    8880022    1    1    2    0    0 -0.31807858274E+03  0.18275451087E+03 -0.49175965557E+02  0.40047861946E+03  0.15294330000E+03 0.  1.
<mgrwt>
<rscale>  0 0.64240746E+03</rscale>
<asrwt>0</asrwt>
<pdfrwt beam="1">  1        2 0.24329591E+00 0.75391207E+03</pdfrwt>
<pdfrwt beam="2">  1       -2 0.43137805E-01 0.75391207E+03</pdfrwt>
<totfact> 0.59463110E+01</totfact>
</mgrwt>
</event>
<event>
 4    2  0.2930016E-007  0.8770157E+03  0.7818608E-02  0.9563984E-01
         -2   -1    0    0    0  501 -0.00000000000E+00  0.00000000000E+00  0.20737683836E+03  0.20737683838E+03  0.25500000000E-02 0.  1.
          2   -1    0    0  501    0  0.00000000000E+00 -0.00000000000E+00 -0.35311540430E+04  0.35311540430E+04  0.25500000000E-02 0. -1.
    8880023    1    1    2    0    0  0.20332174904E+03  0.54222373840E+03 -0.28284579382E+04  0.29613055956E+04  0.65864270000E+03 0.  0.
    8880022    1    1    2    0    0 -0.20332174904E+03 -0.54222373840E+03 -0.49531926643E+03  0.77722528576E+03  0.15294330000E+03 0.  0.
<mgrwt>
<rscale>  0 0.79726499E+03</rscale>
<asrwt>0</asrwt>
<pdfrwt beam="1">  1        2 0.54325442E+00 0.87701569E+03</pdfrwt>
<pdfrwt beam="2">  1       -2 0.31904132E-01 0.87701569E+03</pdfrwt>
<totfact> 0.74675579E+00</totfact>
</mgrwt>
</event>
<event>
 4    2  0.2930016E-007  0.7352927E+03  0.7818608E-02  0.9873877E-01
          2   -1    0    0  501    0  0.00000000000E+00  0.00000000000E+00  0.33098257422E+04  0.33098257422E+04  0.25500000000E-02 0. -1.
         -2   -1    0    0    0  501 -0.00000000000E+00 -0.00000000000E+00 -0.37497899191E+03  0.37497899192E+03  0.25500000000E-02 0.  1.
    8880023    1    1    2    0    0  0.22876378703E+03 -0.23347874277E+03  0.31699398479E+04  0.32541011108E+04  0.65864270000E+03 0. -1.
    8880022    1    1    2    0    0 -0.22876378703E+03  0.23347874277E+03 -0.23509309763E+03  0.43070362333E+03  0.15294330000E+03 0.  0.
<mgrwt>
<rscale>  0 0.61544173E+03</rscale>
<asrwt>0</asrwt>
<pdfrwt beam="1">  1        2 0.50920398E+00 0.73529273E+03</pdfrwt>
<pdfrwt beam="2">  1       -2 0.57689074E-01 0.73529273E+03</pdfrwt>
<totfact> 0.33391371E+00</totfact>
</mgrwt>
</event>
<event>
 4    2  0.2930016E-007  0.9885474E+03  0.7818608E-02  0.9396697E-01
          2   -1    0    0  501    0  0.00000000000E+00  0.00000000000E+00  0.34400613438E+04  0.34400613438E+04  0.25500000000E-02 0. -1.
         -2   -1    0    0    0  501 -0.00000000000E+00 -0.00000000000E+00 -0.29472414540E+03  0.29472414541E+03  0.25500000000E-02 0.  1.
    8880023    1    1    2    0    0  0.36016697328E+03 -0.64319167606E+03  0.26632503473E+04  0.28407971415E+04  0.65864270000E+03 0. -1.
    8880022    1    1    2    0    0 -0.36016697328E+03  0.64319167606E+03  0.48208685117E+03  0.89398834773E+03  0.15294330000E+03 0.  0.
<mgrwt>
<rscale>  0 0.92348016E+03</rscale>
<asrwt>0</asrwt>
<pdfrwt beam="1">  1        2 0.52924021E+00 0.98854741E+03</pdfrwt>
<pdfrwt beam="2">  1       -2 0.45342176E-01 0.98854741E+03</pdfrwt>
<totfact> 0.42810826E+00</totfact>
</mgrwt>
</event>
<event>
 4    2  0.2930016E-007  0.8923501E+03  0.7818608E-02  0.9538425E-01
         -2   -1    0    0    0  501 -0.00000000000E+00  0.00000000000E+00  0.12201601028E+04  0.12201601028E+04  0.25500000000E-02 0.  1.
          2   -1    0    0  501    0  0.00000000000E+00 -0.00000000000E+00 -0.67369277857E+03  0.67369277857E+03  0.25500000000E-02 0. -1.
    8880023    1    1    2    0    0  0.30230943092E+03 -0.52066058648E+03 -0.20829446588E+03  0.91633794482E+03  0.65864270000E+03 0.  0.
    8880022    1    1    2    0    0 -0.30230943092E+03  0.52066058648E+03  0.75476179009E+03  0.97751493652E+03  0.15294330000E+03 0.  0.
<mgrwt>
<rscale>  0 0.81509192E+03</rscale>
<asrwt>0</asrwt>
<pdfrwt beam="1">  1        2 0.10364504E+00 0.89235007E+03</pdfrwt>
<pdfrwt beam="2">  1       -2 0.18771694E+00 0.89235007E+03</pdfrwt>
<totfact> 0.69277171E+00</totfact>
</mgrwt>
</event>
<event>
 4    2  0.2930016E-007  0.1092584E+04  0.7818608E-02  0.9269358E-01
          2   -1    0    0  501    0  0.00000000000E+00  0.00000000000E+00  0.19922779233E+04  0.19922779233E+04  0.25500000000E-02 0. -1.
         -2   -1    0    0    0  501 -0.00000000000E+00 -0.00000000000E+00 -0.76841669396E+03  0.76841669397E+03  0.25500000000E-02 0.  1.
    8880023    1    1    2    0    0 -0.70300278330E+03 -0.51547809844E+03  0.14797390773E+04  0.18393935213E+04  0.65864270000E+03 0. -1.
    8880022    1    1    2    0    0  0.70300278330E+03  0.51547809844E+03 -0.25587784792E+03  0.92130109594E+03  0.15294330000E+03 0.  0.
<mgrwt>
<rscale>  0 0.10365346E+04</rscale>
<asrwt>0</asrwt>
<pdfrwt beam="1">  1        2 0.30650429E+00 0.10925845E+04</pdfrwt>
<pdfrwt beam="2">  1       -2 0.11821796E+00 0.10925845E+04</pdfrwt>
<totfact> 0.36738984E+00</totfact>
</mgrwt>
</event>
<event>
 4    2  0.2930016E-007  0.8320443E+03  0.7818608E-02  0.9645368E-01
         -2   -1    0    0    0  501 -0.00000000000E+00  0.00000000000E+00  0.27151874717E+04  0.27151874717E+04  0.25500000000E-02 0.  1.
          2   -1    0    0  501    0  0.00000000000E+00 -0.00000000000E+00 -0.36327834735E+03  0.36327834736E+03  0.25500000000E-02 0. -1.
    8880023    1    1    2    0    0  0.49814478815E+03 -0.10168261002E+03  0.19152929728E+03  0.85380399456E+03  0.65864270000E+03 0. -1.
    8880022    1    1    2    0    0 -0.49814478815E+03  0.10168261002E+03  0.21603798271E+04  0.22246618245E+04  0.15294330000E+03 0.  0.
<mgrwt>
<rscale>  0 0.74364856E+03</rscale>
<asrwt>0</asrwt>
<pdfrwt beam="1">  1        2 0.55888977E-01 0.83204434E+03</pdfrwt>
<pdfrwt beam="2">  1       -2 0.41772115E+00 0.83204434E+03</pdfrwt>
<totfact> 0.52786552E-01</totfact>
</mgrwt>
</event>
<event>
 4    2  0.2930016E-007  0.1013141E+04  0.7818608E-02  0.9364563E-01
          2   -1    0    0  501    0  0.00000000000E+00  0.00000000000E+00  0.18430223179E+04  0.18430223179E+04  0.25500000000E-02 0. -1.
         -2   -1    0    0    0  501 -0.00000000000E+00 -0.00000000000E+00 -0.59076556539E+03  0.59076556539E+03  0.25500000000E-02 0.  1.
    8880023    1    1    2    0    0  0.72046693754E+03  0.27124175142E+03  0.12991637803E+04  0.16475076419E+04  0.65864270000E+03 0.  0.
    8880022    1    1    2    0    0 -0.72046693754E+03 -0.27124175142E+03 -0.46907027752E+02  0.78628024144E+03  0.15294330000E+03 0.  0.
<mgrwt>
<rscale>  0 0.95050246E+03</rscale>
<asrwt>0</asrwt>
<pdfrwt beam="1">  1        2 0.28354189E+00 0.10131411E+04</pdfrwt>
<pdfrwt beam="2">  1       -2 0.90887011E-01 0.10131411E+04</pdfrwt>
<totfact> 0.84195868E+00</totfact>
</mgrwt>
</event>
<event>
 4    2  0.2930016E-007  0.7385184E+03  0.7818608E-02  0.9864284E-01
          2   -1    0    0  501    0  0.00000000000E+00  0.00000000000E+00  0.92159570104E+03  0.92159570104E+03  0.25500000000E-02 0. -1.
         -2   -1    0    0    0  501 -0.00000000000E+00 -0.00000000000E+00 -0.39920455418E+03  0.39920455419E+03  0.25500000000E-02 0.  1.
    8880023    1    1    2    0    0  0.25090456737E+03  0.22055870184E+03  0.75652465828E+02  0.74238315224E+03  0.65864270000E+03 0.  0.
    8880022    1    1    2    0    0 -0.25090456737E+03 -0.22055870184E+03  0.44673868103E+03  0.57841710299E+03  0.15294330000E+03 0.  0.
<mgrwt>
<rscale>  0 0.62023898E+03</rscale>
<asrwt>0</asrwt>
<pdfrwt beam="1">  1        2 0.14178395E+00 0.73851841E+03</pdfrwt>
<pdfrwt beam="2">  1       -2 0.61416085E-01 0.73851841E+03</pdfrwt>
<totfact> 0.70936497E+01</totfact>
</mgrwt>
</event>
<event>
 4    2  0.2930016E-007  0.7003558E+03  0.7818608E-02  0.9995728E-01
          2   -1    0    0  501    0  0.00000000000E+00  0.00000000000E+00  0.72868587216E+03  0.72868587217E+03  0.25500000000E-02 0. -1.
         -2   -1    0    0    0  501 -0.00000000000E+00 -0.00000000000E+00 -0.33241185159E+03  0.33241185160E+03  0.25500000000E-02 0.  1.
    8880023    1    1    2    0    0 -0.32554928488E+02  0.23585647925E+03  0.26057343356E+03  0.74725954173E+03  0.65864270000E+03 0.  1.
    8880022    1    1    2    0    0  0.32554928488E+02 -0.23585647925E+03  0.13570058701E+03  0.31383818203E+03  0.15294330000E+03 0. -1.
<mgrwt>
<rscale>  0 0.55837943E+03</rscale>
<asrwt>0</asrwt>
<pdfrwt beam="1">  1        2 0.11210552E+00 0.70035584E+03</pdfrwt>
<pdfrwt beam="2">  1       -2 0.51140285E-01 0.70035584E+03</pdfrwt>
<totfact> 0.14259565E+02</totfact>
</mgrwt>
</event>
<event>
 4    2  0.2930016E-007  0.1622752E+04  0.7818608E-02  0.8827492E-01
         -2   -1    0    0    0  501 -0.00000000000E+00  0.00000000000E+00  0.12214605836E+04  0.12214605836E+04  0.25500000000E-02 0.  1.
          2   -1    0    0  501    0  0.00000000000E+00 -0.00000000000E+00 -0.22957641824E+04  0.22957641824E+04  0.25500000000E-02 0. -1.
    8880023    1    1    2    0    0  0.14820893683E+04  0.54091477834E+02 -0.12040351029E+04  0.20206497764E+04  0.65864270000E+03 0. -1.
    8880022    1    1    2    0    0 -0.14820893683E+04 -0.54091477834E+02  0.12973150417E+03  0.14965749897E+04  0.15294330000E+03 0.  0.
<mgrwt>
<rscale>  0 0.15887455E+04</rscale>
<asrwt>0</asrwt>
<pdfrwt beam="1">  1        2 0.35319449E+00 0.16227523E+04</pdfrwt>
<pdfrwt beam="2">  1       -2 0.18791701E+00 0.16227523E+04</pdfrwt>
<totfact> 0.67780229E-01</totfact>
</mgrwt>
</event>
<event>
 4    2  0.2930016E-007  0.9975343E+03  0.7818608E-02  0.9384791E-01
          2   -1    0    0  501    0  0.00000000000E+00  0.00000000000E+00  0.36092852252E+04  0.36092852252E+04  0.25500000000E-02 0. -1.
         -2   -1    0    0    0  501 -0.00000000000E+00 -0.00000000000E+00 -0.36706512114E+03  0.36706512115E+03  0.25500000000E-02 0.  1.
    8880023    1    1    2    0    0  0.23459656793E+03 -0.71149762616E+03  0.30194060891E+04  0.31799194579E+04  0.65864270000E+03 0. -1.
    8880022    1    1    2    0    0 -0.23459656793E+03  0.71149762616E+03  0.22281401492E+03  0.79643088839E+03  0.15294330000E+03 0.  1.
<mgrwt>
<rscale>  0 0.93337987E+03</rscale>
<asrwt>0</asrwt>
<pdfrwt beam="1">  1        2 0.55527467E+00 0.99753427E+03</pdfrwt>
<pdfrwt beam="2">  1       -2 0.56471555E-01 0.99753427E+03</pdfrwt>
<totfact> 0.20820814E+00</totfact>
</mgrwt>
</event>
<event>
 4    2  0.2930016E-007  0.7347032E+03  0.7818608E-02  0.9875654E-01
          2   -1    0    0  501    0  0.00000000000E+00  0.00000000000E+00  0.16466506620E+04  0.16466506620E+04  0.25500000000E-02 0. -1.
         -2   -1    0    0    0  501 -0.00000000000E+00 -0.00000000000E+00 -0.20323756310E+03  0.20323756312E+03  0.25500000000E-02 0.  1.
    8880023    1    1    2    0    0 -0.18828014484E+03 -0.26557336254E+03  0.12269253840E+04  0.14300820704E+04  0.65864270000E+03 0.  0.
    8880022    1    1    2    0    0  0.18828014484E+03  0.26557336254E+03  0.21648771485E+03  0.41980615470E+03  0.15294330000E+03 0.  0.
<mgrwt>
<rscale>  0 0.61455856E+03</rscale>
<asrwt>0</asrwt>
<pdfrwt beam="1">  1        2 0.25333087E+00 0.73470323E+03</pdfrwt>
<pdfrwt beam="2">  1       -2 0.31267318E-01 0.73470323E+03</pdfrwt>
<totfact> 0.10178840E+02</totfact>
</mgrwt>
</event>
<event>
 4    2  0.2930016E-007  0.9986533E+03  0.7818608E-02  0.9383322E-01
          2   -1    0    0  501    0  0.00000000000E+00  0.00000000000E+00  0.91029603550E+03  0.91029603550E+03  0.25500000000E-02 0. -1.
         -2   -1    0    0    0  501 -0.00000000000E+00 -0.00000000000E+00 -0.15418656136E+04  0.15418656136E+04  0.25500000000E-02 0.  1.
    8880023    1    1    2    0    0 -0.45553935745E+03  0.59664236628E+03  0.47533629104E+03  0.11060076922E+04  0.65864270000E+03 0.  0.
    8880022    1    1    2    0    0  0.45553935745E+03 -0.59664236628E+03 -0.11069058691E+04  0.13461539569E+04  0.15294330000E+03 0.  0.
<mgrwt>
<rscale>  0 0.93461046E+03</rscale>
<asrwt>0</asrwt>
<pdfrwt beam="1">  1        2 0.14004554E+00 0.99865331E+03</pdfrwt>
<pdfrwt beam="2">  1       -2 0.23721009E+00 0.99865331E+03</pdfrwt>
<totfact> 0.22148693E+00</totfact>
</mgrwt>
</event>
<event>
 4    2  0.2930016E-007  0.6762798E+03  0.7818608E-02  0.1011511E+00
          2   -1    0    0  501    0  0.00000000000E+00  0.00000000000E+00  0.29588111229E+03  0.29588111230E+03  0.25500000000E-02 0. -1.
         -2   -1    0    0    0  501 -0.00000000000E+00 -0.00000000000E+00 -0.77449466225E+03  0.77449466226E+03  0.25500000000E-02 0.  1.
    8880023    1    1    2    0    0 -0.12332506640E+03  0.91296463585E+02 -0.17707292205E+03  0.69907735069E+03  0.65864270000E+03 0. -1.
    8880022    1    1    2    0    0  0.12332506640E+03 -0.91296463585E+02 -0.30154062792E+03  0.37129842386E+03  0.15294330000E+03 0.  0.
<mgrwt>
<rscale>  0 0.50878323E+03</rscale>
<asrwt>0</asrwt>
<pdfrwt beam="1">  1        2 0.45520171E-01 0.67627977E+03</pdfrwt>
<pdfrwt beam="2">  1       -2 0.11915302E+00 0.67627977E+03</pdfrwt>
<totfact> 0.61126478E+01</totfact>
</mgrwt>
</event>
<event>
 4    2  0.2930016E-007  0.1797385E+04  0.7818608E-02  0.8723984E-01
          2   -1    0    0  501    0  0.00000000000E+00  0.00000000000E+00  0.25942146047E+04  0.25942146047E+04  0.25500000000E-02 0. -1.
         -2   -1    0    0    0  501 -0.00000000000E+00 -0.00000000000E+00 -0.14265615747E+04  0.14265615747E+04  0.25500000000E-02 0.  1.
    8880023    1    1    2    0    0  0.16599271898E+04  0.20353194424E+03  0.14606739708E+04  0.23160661007E+04  0.65864270000E+03 0.  0.
    8880022    1    1    2    0    0 -0.16599271898E+04 -0.20353194424E+03 -0.29302094085E+03  0.17047100787E+04  0.15294330000E+03 0.  0.
<mgrwt>
<rscale>  0 0.17671173E+04</rscale>
<asrwt>0</asrwt>
<pdfrwt beam="1">  1        2 0.39910993E+00 0.17973852E+04</pdfrwt>
<pdfrwt beam="2">  1       -2 0.21947101E+00 0.17973852E+04</pdfrwt>
<totfact> 0.27784711E-01</totfact>
</mgrwt>
</event>
<event>
 4    2  0.2930016E-007  0.6791787E+03  0.7818608E-02  0.1009792E+00
         -2   -1    0    0    0  501 -0.00000000000E+00  0.00000000000E+00  0.22626984244E+03  0.22626984246E+03  0.25500000000E-02 0.  1.
          2   -1    0    0  501    0  0.00000000000E+00 -0.00000000000E+00 -0.12437713548E+04  0.12437713548E+04  0.25500000000E-02 0. -1.
    8880023    1    1    2    0    0  0.13371527039E+03 -0.97947869441E+02 -0.10413408444E+04  0.12432515912E+04  0.65864270000E+03 0. -1.
    8880022    1    1    2    0    0 -0.13371527039E+03  0.97947869441E+02  0.23839331963E+02  0.22678960608E+03  0.15294330000E+03 0.  0.
<mgrwt>
<rscale>  0 0.51557360E+03</rscale>
<asrwt>0</asrwt>
<pdfrwt beam="1">  1        2 0.19134943E+00 0.67917874E+03</pdfrwt>
<pdfrwt beam="2">  1       -2 0.34810746E-01 0.67917874E+03</pdfrwt>
<totfact> 0.14074757E+02</totfact>
</mgrwt>
</event>
<event>
 4    2  0.3206209E-007  0.7281544E+03  0.7818608E-02  0.9895902E-01
         -2   -1    0    0    0  501 -0.00000000000E+00  0.00000000000E+00  0.43907595737E+03  0.43907595738E+03  0.25500000000E-02 0.  1.
          2   -1    0    0  501    0  0.00000000000E+00 -0.00000000000E+00 -0.31649970346E+04  0.31649970346E+04  0.25500000000E-02 0. -1.
    8880023    1    1    2    0    0  0.27849972586E+03  0.13724614136E+03 -0.30464990057E+04  0.31323098503E+04  0.65864270000E+03 0. -1.
    8880022    1    1    2    0    0 -0.27849972586E+03 -0.13724614136E+03  0.32057792843E+03  0.47176314166E+03  0.15294330000E+03 0.  0.
<mgrwt>
<rscale>  0 0.60460298E+03</rscale>
<asrwt>0</asrwt>
<pdfrwt beam="1">  1        2 0.48692261E+00 0.72815438E+03</pdfrwt>
<pdfrwt beam="2">  1       -2 0.67550149E-01 0.72815438E+03</pdfrwt>
<totfact> 0.29597644E+00</totfact>
</mgrwt>
</event>
<event>
 4    2  0.2930016E-007  0.8982218E+03  0.7818608E-02  0.9528892E-01
         -2   -1    0    0    0  501 -0.00000000000E+00  0.00000000000E+00  0.48750589748E+03  0.48750589749E+03  0.25500000000E-02 0.  1.
          2   -1    0    0  501    0  0.00000000000E+00 -0.00000000000E+00 -0.16176425241E+04  0.16176425241E+04  0.25500000000E-02 0. -1.
    8880023    1    1    2    0    0  0.32013230345E+03  0.52010333817E+03 -0.10802836400E+03  0.90469470418E+03  0.65864270000E+03 0.  1.
    8880022    1    1    2    0    0 -0.32013230345E+03 -0.52010333817E+03 -0.10221082626E+04  0.12004537174E+04  0.15294330000E+03 0. -1.
<mgrwt>
<rscale>  0 0.82186821E+03</rscale>
<asrwt>0</asrwt>
<pdfrwt beam="1">  1        2 0.24886808E+00 0.89822179E+03</pdfrwt>
<pdfrwt beam="2">  1       -2 0.75000908E-01 0.89822179E+03</pdfrwt>
<totfact> 0.17558103E+01</totfact>
</mgrwt>
</event>
<event>
 4    2  0.2930016E-007  0.7851814E+03  0.7818608E-02  0.9743804E-01
         -2   -1    0    0    0  501 -0.00000000000E+00  0.00000000000E+00  0.58924667120E+03  0.58924667120E+03  0.25500000000E-02 0.  1.
          2   -1    0    0  501    0  0.00000000000E+00 -0.00000000000E+00 -0.75239701058E+03  0.75239701058E+03  0.25500000000E-02 0. -1.
    8880023    1    1    2    0    0  0.13501241844E+02 -0.42722041617E+03 -0.33842553601E+03  0.85500971761E+03  0.65864270000E+03 0.  0.
    8880022    1    1    2    0    0 -0.13501241844E+02  0.42722041617E+03  0.17527519662E+03  0.48663396418E+03  0.15294330000E+03 0. -1.
<mgrwt>
<rscale>  0 0.68467571E+03</rscale>
<asrwt>0</asrwt>
<pdfrwt beam="1">  1        2 0.11575339E+00 0.78518136E+03</pdfrwt>
<pdfrwt beam="2">  1       -2 0.90653334E-01 0.78518136E+03</pdfrwt>
<totfact> 0.39226672E+01</totfact>
</mgrwt>
</event>
<event>
 4    2  0.2930016E-007  0.8579437E+03  0.7818608E-02  0.9597232E-01
         -2   -1    0    0    0  501 -0.00000000000E+00  0.00000000000E+00  0.80039454957E+03  0.80039454958E+03  0.25500000000E-02 0.  1.
          2   -1    0    0  501    0  0.00000000000E+00 -0.00000000000E+00 -0.31191950769E+04  0.31191950769E+04  0.25500000000E-02 0. -1.
    8880023    1    1    2    0    0  0.68612626495E+02 -0.54548100469E+03 -0.29479113649E+04  0.30702196730E+04  0.65864270000E+03 0. -1.
    8880022    1    1    2    0    0 -0.68612626495E+02  0.54548100469E+03  0.62911083754E+03  0.84936995350E+03  0.15294330000E+03 0.  0.
<mgrwt>
<rscale>  0 0.77479676E+03</rscale>
<asrwt>0</asrwt>
<pdfrwt beam="1">  1        2 0.47987616E+00 0.85794372E+03</pdfrwt>
<pdfrwt beam="2">  1       -2 0.12313762E+00 0.85794372E+03</pdfrwt>
<totfact> 0.76337854E-01</totfact>
</mgrwt>
</event>
<event>
 4    2  0.2930016E-007  0.9640630E+03  0.7818608E-02  0.9430163E-01
          2   -1    0    0  501    0  0.00000000000E+00  0.00000000000E+00  0.56602217052E+03  0.56602217052E+03  0.25500000000E-02 0. -1.
         -2   -1    0    0    0  501 -0.00000000000E+00 -0.00000000000E+00 -0.15151641227E+04  0.15151641227E+04  0.25500000000E-02 0.  1.
    8880023    1    1    2    0    0 -0.48476773896E+03 -0.51049738255E+03 -0.96023244948E+03  0.13606850854E+04  0.65864270000E+03 0. -1.
    8880022    1    1    2    0    0  0.48476773896E+03  0.51049738255E+03  0.11090497306E+02  0.72050120782E+03  0.15294330000E+03 0.  0.
<mgrwt>
<rscale>  0 0.89634436E+03</rscale>
<asrwt>0</asrwt>
<pdfrwt beam="1">  1        2 0.87080334E-01 0.96406304E+03</pdfrwt>
<pdfrwt beam="2">  1       -2 0.23310217E+00 0.96406304E+03</pdfrwt>
<totfact> 0.43542396E+00</totfact>
</mgrwt>
</event>
<event>
 4    2  0.2930016E-007  0.7800044E+03  0.7818608E-02  0.9755827E-01
         -2   -1    0    0    0  501 -0.00000000000E+00  0.00000000000E+00  0.45345208826E+03  0.45345208827E+03  0.25500000000E-02 0.  1.
          2   -1    0    0  501    0  0.00000000000E+00 -0.00000000000E+00 -0.14663336313E+04  0.14663336313E+04  0.25500000000E-02 0. -1.
    8880023    1    1    2    0    0  0.31208525296E+02 -0.41668053236E+03 -0.12047594137E+04  0.14352184813E+04  0.65864270000E+03 0.  1.
    8880022    1    1    2    0    0 -0.31208525296E+02  0.41668053236E+03  0.19187787063E+03  0.48456723822E+03  0.15294330000E+03 0.  0.
<mgrwt>
<rscale>  0 0.67787985E+03</rscale>
<asrwt>0</asrwt>
<pdfrwt beam="1">  1        2 0.22558979E+00 0.78000439E+03</pdfrwt>
<pdfrwt beam="2">  1       -2 0.69761861E-01 0.78000439E+03</pdfrwt>
<totfact> 0.25325566E+01</totfact>
</mgrwt>
</event>
<event>
 4    2  0.2930016E-007  0.7257582E+03  0.7818608E-02  0.9903563E-01
         -2   -1    0    0    0  501 -0.00000000000E+00  0.00000000000E+00  0.91757271057E+03  0.91757271057E+03  0.25500000000E-02 0.  1.
          2   -1    0    0  501    0  0.00000000000E+00 -0.00000000000E+00 -0.36894555283E+03  0.36894555283E+03  0.25500000000E-02 0. -1.
    8880023    1    1    2    0    0  0.29380346917E+03 -0.81205039346E+02  0.11494249420E+03  0.73480386509E+03  0.65864270000E+03 0.  0.
    8880022    1    1    2    0    0 -0.29380346917E+03  0.81205039346E+02  0.43368466354E+03  0.55171439832E+03  0.15294330000E+03 0.  0.
<mgrwt>
<rscale>  0 0.60088921E+03</rscale>
<asrwt>0</asrwt>
<pdfrwt beam="1">  1        2 0.56760854E-01 0.72575819E+03</pdfrwt>
<pdfrwt beam="2">  1       -2 0.14116503E+00 0.72575819E+03</pdfrwt>
<totfact> 0.31036696E+01</totfact>
</mgrwt>
</event>
<event>
 4    2  0.2930016E-007  0.1473493E+04  0.7818608E-02  0.8928584E-01
          2   -1    0    0  501    0  0.00000000000E+00  0.00000000000E+00  0.23265797915E+04  0.23265797915E+04  0.25500000000E-02 0. -1.
         -2   -1    0    0    0  501 -0.00000000000E+00 -0.00000000000E+00 -0.12049711171E+04  0.12049711171E+04  0.25500000000E-02 0.  1.
    8880023    1    1    2    0    0  0.16269083306E+03  0.13080146195E+04  0.15486033047E+04  0.21376044895E+04  0.65864270000E+03 0.  0.
    8880022    1    1    2    0    0 -0.16269083306E+03 -0.13080146195E+04 -0.42699463038E+03  0.13939464191E+04  0.15294330000E+03 0.  0.
<mgrwt>
<rscale>  0 0.14354021E+04</rscale>
<asrwt>0</asrwt>
<pdfrwt beam="1">  1        2 0.35793535E+00 0.14734927E+04</pdfrwt>
<pdfrwt beam="2">  1       -2 0.18538017E+00 0.14734927E+04</pdfrwt>
<totfact> 0.68775296E-01</totfact>
</mgrwt>
</event>
<event>
 4    2  0.2930016E-007  0.9071662E+03  0.7818608E-02  0.9514624E-01
         -2   -1    0    0    0  501 -0.00000000000E+00  0.00000000000E+00  0.28730110193E+03  0.28730110194E+03  0.25500000000E-02 0.  1.
          2   -1    0    0  501    0  0.00000000000E+00 -0.00000000000E+00 -0.33431889847E+04  0.33431889847E+04  0.25500000000E-02 0. -1.
    8880023    1    1    2    0    0  0.54883254978E+03  0.29651824551E+03 -0.27927468883E+04  0.29363898968E+04  0.65864270000E+03 0. -1.
    8880022    1    1    2    0    0 -0.54883254978E+03 -0.29651824551E+03 -0.26314099454E+03  0.69410018991E+03  0.15294330000E+03 0.  0.
<mgrwt>
<rscale>  0 0.83214177E+03</rscale>
<asrwt>0</asrwt>
<pdfrwt beam="1">  1        2 0.51433674E+00 0.90716616E+03</pdfrwt>
<pdfrwt beam="2">  1       -2 0.44200172E-01 0.90716616E+03</pdfrwt>
<totfact> 0.52977166E+00</totfact>
</mgrwt>
</event>
<event>
 4    2  0.2930016E-007  0.6626427E+03  0.7818608E-02  0.1021599E+00
         -2   -1    0    0    0  501 -0.00000000000E+00  0.00000000000E+00  0.23958437112E+03  0.23958437113E+03  0.25500000000E-02 0.  1.
          2   -1    0    0  501    0  0.00000000000E+00 -0.00000000000E+00 -0.30423123505E+04  0.30423123505E+04  0.25500000000E-02 0. -1.
    8880023    1    1    2    0    0  0.71130205609E+02 -0.15023228307E+02 -0.29705036702E+04  0.30435156423E+04  0.65864270000E+03 0. -1.
    8880022    1    1    2    0    0 -0.71130205609E+02  0.15023228307E+02  0.16777569086E+03  0.23838107936E+03  0.15294330000E+03 0.  0.
<mgrwt>
<rscale>  0 0.47114114E+03</rscale>
<asrwt>0</asrwt>
<pdfrwt beam="1">  1        2 0.46804803E+00 0.66264275E+03</pdfrwt>
<pdfrwt beam="2">  1       -2 0.36859136E-01 0.66264275E+03</pdfrwt>
<totfact> 0.12276921E+01</totfact>
</mgrwt>
</event>
<event>
 4    2  0.2930016E-007  0.8085764E+03  0.7818608E-02  0.9692550E-01
          2   -1    0    0  501    0  0.00000000000E+00  0.00000000000E+00  0.16046123283E+04  0.16046123283E+04  0.25500000000E-02 0. -1.
         -2   -1    0    0    0  501 -0.00000000000E+00 -0.00000000000E+00 -0.33711377801E+03  0.33711377802E+03  0.25500000000E-02 0.  1.
    8880023    1    1    2    0    0 -0.46865818507E+03  0.18574977407E+02  0.31256111077E+03  0.86688533177E+03  0.65864270000E+03 0.  1.
    8880022    1    1    2    0    0  0.46865818507E+03 -0.18574977407E+02  0.95493743952E+03  0.10748407745E+04  0.15294330000E+03 0.  0.
<mgrwt>
<rscale>  0 0.71462098E+03</rscale>
<asrwt>0</asrwt>
<pdfrwt beam="1">  1        2 0.24686344E+00 0.80857636E+03</pdfrwt>
<pdfrwt beam="2">  1       -2 0.51863658E-01 0.80857636E+03</pdfrwt>
<totfact> 0.39608234E+01</totfact>
</mgrwt>
</event>
<event>
 4    2  0.2930016E-007  0.1556740E+04  0.7818608E-02  0.8870575E-01
         -2   -1    0    0    0  501 -0.00000000000E+00  0.00000000000E+00  0.11088497820E+04  0.11088497820E+04  0.25500000000E-02 0.  1.
          2   -1    0    0  501    0  0.00000000000E+00 -0.00000000000E+00 -0.37746777083E+04  0.37746777083E+04  0.25500000000E-02 0. -1.
    8880023    1    1    2    0    0  0.12315993717E+04 -0.68759993198E+03 -0.30406945981E+04  0.34160305215E+04  0.65864270000E+03 0.  0.
    8880022    1    1    2    0    0 -0.12315993717E+04  0.68759993198E+03  0.37486667176E+03  0.14674969688E+04  0.15294330000E+03 0.  0.
<mgrwt>
<rscale>  0 0.15210491E+04</rscale>
<asrwt>0</asrwt>
<pdfrwt beam="1">  1        2 0.58071964E+00 0.15567405E+04</pdfrwt>
<pdfrwt beam="2">  1       -2 0.17059228E+00 0.15567405E+04</pdfrwt>
<totfact> 0.10263191E-01</totfact>
</mgrwt>
</event>
<event>
 4    2  0.2930016E-007  0.7886911E+03  0.7818608E-02  0.9735804E-01
          2   -1    0    0  501    0  0.00000000000E+00  0.00000000000E+00  0.14353861552E+04  0.14353861552E+04  0.25500000000E-02 0. -1.
         -2   -1    0    0    0  501 -0.00000000000E+00 -0.00000000000E+00 -0.63251774845E+03  0.63251774846E+03  0.25500000000E-02 0.  1.
    8880023    1    1    2    0    0 -0.55348806483E+01 -0.43381190652E+03  0.12161526121E+04  0.14495036348E+04  0.65864270000E+03 0. -1.
    8880022    1    1    2    0    0  0.55348806483E+01  0.43381190652E+03 -0.41328420533E+03  0.61840026887E+03  0.15294330000E+03 0.  0.
<mgrwt>
<rscale>  0 0.68924483E+03</rscale>
<asrwt>0</asrwt>
<pdfrwt beam="1">  1        2 0.22082863E+00 0.78869107E+03</pdfrwt>
<pdfrwt beam="2">  1       -2 0.97310425E-01 0.78869107E+03</pdfrwt>
<totfact> 0.12390693E+01</totfact>
</mgrwt>
</event>
<event>
 4    2  0.2930016E-007  0.6906484E+03  0.7818608E-02  0.1003846E+00
         -2   -1    0    0    0  501 -0.00000000000E+00  0.00000000000E+00  0.47236167131E+03  0.47236167132E+03  0.25500000000E-02 0.  1.
          2   -1    0    0  501    0  0.00000000000E+00 -0.00000000000E+00 -0.26238473641E+04  0.26238473641E+04  0.25500000000E-02 0. -1.
    8880023    1    1    2    0    0  0.49957168598E+02 -0.20171597091E+03 -0.25386626486E+04  0.26309320214E+04  0.65864270000E+03 0. -1.
    8880022    1    1    2    0    0 -0.49957168598E+02  0.20171597091E+03  0.38717695583E+03  0.46527701399E+03  0.15294330000E+03 0.  0.
<mgrwt>
<rscale>  0 0.53995561E+03</rscale>
<asrwt>0</asrwt>
<pdfrwt beam="1">  1        2 0.40366882E+00 0.69064843E+03</pdfrwt>
<pdfrwt beam="2">  1       -2 0.72671028E-01 0.69064843E+03</pdfrwt>
<totfact> 0.53754816E+00</totfact>
</mgrwt>
</event>
<event>
 4    2  0.2930016E-007  0.1026747E+04  0.7818608E-02  0.9347372E-01
          2   -1    0    0  501    0  0.00000000000E+00  0.00000000000E+00  0.13653636803E+04  0.13653636803E+04  0.25500000000E-02 0. -1.
         -2   -1    0    0    0  501 -0.00000000000E+00 -0.00000000000E+00 -0.15495983114E+04  0.15495983114E+04  0.25500000000E-02 0.  1.
    8880023    1    1    2    0    0 -0.57964452418E+03  0.53330186654E+03  0.10333897753E+04  0.14567440713E+04  0.65864270000E+03 0.  0.
    8880022    1    1    2    0    0  0.57964452418E+03 -0.53330186654E+03 -0.12176244064E+04  0.14582179204E+04  0.15294330000E+03 0.  0.
<mgrwt>
<rscale>  0 0.96536279E+03</rscale>
<asrwt>0</asrwt>
<pdfrwt beam="1">  1        2 0.21005595E+00 0.10267467E+04</pdfrwt>
<pdfrwt beam="2">  1       -2 0.23839974E+00 0.10267467E+04</pdfrwt>
<totfact> 0.11394700E+00</totfact>
</mgrwt>
</event>
<event>
 4    2  0.2930016E-007  0.9490261E+03  0.7818608E-02  0.9451517E-01
          2   -1    0    0  501    0  0.00000000000E+00  0.00000000000E+00  0.15706618649E+04  0.15706618649E+04  0.25500000000E-02 0. -1.
         -2   -1    0    0    0  501 -0.00000000000E+00 -0.00000000000E+00 -0.56362740999E+03  0.56362741000E+03  0.25500000000E-02 0.  1.
    8880023    1    1    2    0    0  0.58983632449E+03  0.34486722752E+03  0.10712764218E+04  0.14311826133E+04  0.65864270000E+03 0.  0.
    8880022    1    1    2    0    0 -0.58983632449E+03 -0.34486722752E+03 -0.64241966915E+02  0.70310666163E+03  0.15294330000E+03 0.  0.
<mgrwt>
<rscale>  0 0.87954651E+03</rscale>
<asrwt>0</asrwt>
<pdfrwt beam="1">  1        2 0.24164029E+00 0.94902608E+03</pdfrwt>
<pdfrwt beam="2">  1       -2 0.86711909E-01 0.94902608E+03</pdfrwt>
<totfact> 0.13363604E+01</totfact>
</mgrwt>
</event>
<event>
 4    2  0.2930016E-007  0.7733340E+03  0.7818608E-02  0.9771735E-01
          2   -1    0    0  501    0  0.00000000000E+00  0.00000000000E+00  0.11537108422E+04  0.11537108422E+04  0.25500000000E-02 0. -1.
         -2   -1    0    0    0  501 -0.00000000000E+00 -0.00000000000E+00 -0.47390705383E+03  0.47390705384E+03  0.25500000000E-02 0.  1.
    8880023    1    1    2    0    0 -0.35535956608E+03 -0.19482002162E+03  0.86168747840E+03  0.11578215660E+04  0.65864270000E+03 0.  0.
    8880022    1    1    2    0    0  0.35535956608E+03  0.19482002162E+03 -0.18188369000E+03  0.46979633006E+03  0.15294330000E+03 0.  0.
<mgrwt>
<rscale>  0 0.66901710E+03</rscale>
<asrwt>0</asrwt>
<pdfrwt beam="1">  1        2 0.17749397E+00 0.77333400E+03</pdfrwt>
<pdfrwt beam="2">  1       -2 0.72908779E-01 0.77333400E+03</pdfrwt>
<totfact> 0.34866687E+01</totfact>
</mgrwt>
</event>
<event>
 4    2  0.2930016E-007  0.7793448E+03  0.7818608E-02  0.9757378E-01
         -2   -1    0    0    0  501 -0.00000000000E+00  0.00000000000E+00  0.14423796641E+03  0.14423796643E+03  0.25500000000E-02 0.  1.
          2   -1    0    0  501    0  0.00000000000E+00 -0.00000000000E+00 -0.35991920523E+04  0.35991920523E+04  0.25500000000E-02 0. -1.
    8880023    1    1    2    0    0  0.41482970043E+03  0.38528545703E+02 -0.30312978107E+04  0.31298793512E+04  0.65864270000E+03 0.  0.
    8880022    1    1    2    0    0 -0.41482970043E+03 -0.38528545703E+02 -0.42365627517E+03  0.61355066759E+03  0.15294330000E+03 0.  0.
<mgrwt>
<rscale>  0 0.67700898E+03</rscale>
<asrwt>0</asrwt>
<pdfrwt beam="1">  1        2 0.55372179E+00 0.77934481E+03</pdfrwt>
<pdfrwt beam="2">  1       -2 0.22190459E-01 0.77934481E+03</pdfrwt>
<totfact> 0.13215875E+01</totfact>
</mgrwt>
</event>
<event>
 4    2  0.2930016E-007  0.1158122E+04  0.7818608E-02  0.9198946E-01
          2   -1    0    0  501    0  0.00000000000E+00  0.00000000000E+00  0.14724846346E+04  0.14724846346E+04  0.25500000000E-02 0. -1.
         -2   -1    0    0    0  501 -0.00000000000E+00 -0.00000000000E+00 -0.91955221448E+03  0.91955221448E+03  0.25500000000E-02 0.  1.
    8880023    1    1    2    0    0 -0.79833163731E+03  0.51971521339E+03  0.78578842752E+03  0.13995395547E+04  0.65864270000E+03 0.  0.
    8880022    1    1    2    0    0  0.79833163731E+03 -0.51971521339E+03 -0.23285600737E+03  0.99249729438E+03  0.15294330000E+03 0.  0.
<mgrwt>
<rscale>  0 0.11064316E+04</rscale>
<asrwt>0</asrwt>
<pdfrwt beam="1">  1        2 0.22653610E+00 0.11581224E+04</pdfrwt>
<pdfrwt beam="2">  1       -2 0.14146957E+00 0.11581224E+04</pdfrwt>
<totfact> 0.44914146E+00</totfact>
</mgrwt>
</event>
<event>
 4    2  0.2930016E-007  0.9996530E+03  0.7818608E-02  0.9382012E-01
          2   -1    0    0  501    0  0.00000000000E+00  0.00000000000E+00  0.12429566044E+04  0.12429566044E+04  0.25500000000E-02 0. -1.
         -2   -1    0    0    0  501 -0.00000000000E+00 -0.00000000000E+00 -0.69537514870E+03  0.69537514870E+03  0.25500000000E-02 0.  1.
    8880023    1    1    2    0    0 -0.36954993764E+02  0.75108599878E+03  0.60554436898E+03  0.11687557650E+04  0.65864270000E+03 0. -1.
    8880022    1    1    2    0    0  0.36954993764E+02 -0.75108599878E+03 -0.57962913292E+02  0.76957598810E+03  0.15294330000E+03 0.  1.
<mgrwt>
<rscale>  0 0.93570939E+03</rscale>
<asrwt>0</asrwt>
<pdfrwt beam="1">  1        2 0.19122409E+00 0.99965297E+03</pdfrwt>
<pdfrwt beam="2">  1       -2 0.10698079E+00 0.99965297E+03</pdfrwt>
<totfact> 0.12471389E+01</totfact>
</mgrwt>
</event>
<event>
 4    2  0.2930016E-007  0.6947490E+03  0.7818608E-02  0.1001972E+00
          2   -1    0    0  501    0  0.00000000000E+00  0.00000000000E+00  0.79962800045E+03  0.79962800045E+03  0.25500000000E-02 0. -1.
         -2   -1    0    0    0  501 -0.00000000000E+00 -0.00000000000E+00 -0.51831876351E+03  0.51831876352E+03  0.25500000000E-02 0.  1.
    8880023    1    1    2    0    0 -0.19719010849E+03 -0.99910052045E+02  0.58796513408E+03  0.91015337308E+03  0.65864270000E+03 0. -1.
    8880022    1    1    2    0    0  0.19719010849E+03  0.99910052045E+02 -0.30665589714E+03  0.40779339088E+03  0.15294330000E+03 0.  0.
<mgrwt>
<rscale>  0 0.54793797E+03</rscale>
<asrwt>0</asrwt>
<pdfrwt beam="1">  1        2 0.12301969E+00 0.69474899E+03</pdfrwt>
<pdfrwt beam="2">  1       -2 0.79741349E-01 0.69474899E+03</pdfrwt>
<totfact> 0.48872363E+01</totfact>
</mgrwt>
</event>
<event>
 4    2  0.2930016E-007  0.7340559E+03  0.7818608E-02  0.9877613E-01
          2   -1    0    0  501    0  0.00000000000E+00  0.00000000000E+00  0.72322860509E+03  0.72322860510E+03  0.25500000000E-02 0. -1.
         -2   -1    0    0    0  501 -0.00000000000E+00 -0.00000000000E+00 -0.53863001754E+03  0.53863001755E+03  0.25500000000E-02 0.  1.
    8880023    1    1    2    0    0 -0.22826698868E+03  0.23004796217E+03  0.40775090764E+03  0.83970166843E+03  0.65864270000E+03 0. -1.
    8880022    1    1    2    0    0  0.22826698868E+03 -0.23004796217E+03 -0.22315232009E+03  0.42215695422E+03  0.15294330000E+03 0.  0.
<mgrwt>
<rscale>  0 0.61358643E+03</rscale>
<asrwt>0</asrwt>
<pdfrwt beam="1">  1        2 0.11126594E+00 0.73405592E+03</pdfrwt>
<pdfrwt beam="2">  1       -2 0.82866156E-01 0.73405592E+03</pdfrwt>
<totfact> 0.50889998E+01</totfact>
</mgrwt>
</event>
<event>
 4    2  0.3138799E-007  0.7722902E+03  0.7818608E-02  0.9774269E-01
          2   -1    0    0  501    0  0.00000000000E+00  0.00000000000E+00  0.30044888742E+04  0.30044888742E+04  0.25500000000E-02 0. -1.
         -2   -1    0    0    0  501 -0.00000000000E+00 -0.00000000000E+00 -0.52251898307E+03  0.52251898308E+03  0.25500000000E-02 0.  1.
    8880023    1    1    2    0    0 -0.33110360202E+03 -0.23020064146E+03  0.28544845464E+04  0.29571124704E+04  0.65864270000E+03 0.  0.
    8880022    1    1    2    0    0  0.33110360202E+03  0.23020064146E+03 -0.37251465527E+03  0.56989538690E+03  0.15294330000E+03 0.  0.
<mgrwt>
<rscale>  0 0.66761867E+03</rscale>
<asrwt>0</asrwt>
<pdfrwt beam="1">  1        2 0.46222905E+00 0.77229019E+03</pdfrwt>
<pdfrwt beam="2">  1       -2 0.80387537E-01 0.77229019E+03</pdfrwt>
<totfact> 0.25135407E+00</totfact>
</mgrwt>
</event>
<event>
 4    2  0.2930016E-007  0.6716811E+03  0.7818608E-02  0.1014485E+00
         -2   -1    0    0    0  501 -0.00000000000E+00  0.00000000000E+00  0.20033572518E+03  0.20033572520E+03  0.25500000000E-02 0.  1.
          2   -1    0    0  501    0  0.00000000000E+00 -0.00000000000E+00 -0.21251460800E+04  0.21251460800E+04  0.25500000000E-02 0. -1.
    8880023    1    1    2    0    0 -0.13102612839E+03  0.13321217701E+02 -0.20002475675E+04  0.21100108622E+04  0.65864270000E+03 0. -1.
    8880022    1    1    2    0    0  0.13102612839E+03 -0.13321217701E+02  0.75437212740E+02  0.21547094292E+03  0.15294330000E+03 0.  0.
<mgrwt>
<rscale>  0 0.49730282E+03</rscale>
<asrwt>0</asrwt>
<pdfrwt beam="1">  1        2 0.32694554E+00 0.67168111E+03</pdfrwt>
<pdfrwt beam="2">  1       -2 0.30820882E-01 0.67168111E+03</pdfrwt>
<totfact> 0.57768839E+01</totfact>
</mgrwt>
</event>
<event>
 4    2  0.2930016E-007  0.8821267E+03  0.7818608E-02  0.9555355E-01
         -2   -1    0    0    0  501 -0.00000000000E+00  0.00000000000E+00  0.41946460633E+03  0.41946460634E+03  0.25500000000E-02 0.  1.
          2   -1    0    0  501    0  0.00000000000E+00 -0.00000000000E+00 -0.22232452351E+04  0.22232452351E+04  0.25500000000E-02 0. -1.
    8880023    1    1    2    0    0  0.40242690682E+03  0.42707131019E+03 -0.18344553170E+04  0.20355279009E+04  0.65864270000E+03 0.  0.
    8880022    1    1    2    0    0 -0.40242690682E+03 -0.42707131019E+03  0.30674688223E+02  0.60718194047E+03  0.15294330000E+03 0.  0.
<mgrwt>
<rscale>  0 0.80322868E+03</rscale>
<asrwt>0</asrwt>
<pdfrwt beam="1">  1        2 0.34203772E+00 0.88212671E+03</pdfrwt>
<pdfrwt beam="2">  1       -2 0.64533018E-01 0.88212671E+03</pdfrwt>
<totfact> 0.11345615E+01</totfact>
</mgrwt>
</event>
<event>
 4    2  0.2930016E-007  0.6601901E+03  0.7818608E-02  0.1023962E+00
          2   -1    0    0  501    0  0.00000000000E+00  0.00000000000E+00  0.10055025728E+04  0.10055025728E+04  0.25500000000E-02 0. -1.
         -2   -1    0    0    0  501 -0.00000000000E+00 -0.00000000000E+00 -0.55789129017E+03  0.55789129017E+03  0.25500000000E-02 0.  1.
    8880023    1    1    2    0    0  0.16407262233E+02  0.42090562958E+02  0.88139150477E+03  0.11012274991E+04  0.65864270000E+03 0.  0.
    8880022    1    1    2    0    0 -0.16407262233E+02 -0.42090562958E+02 -0.43378022217E+03  0.46216636388E+03  0.15294330000E+03 0.  1.
<mgrwt>
<rscale>  0 0.46283409E+03</rscale>
<asrwt>0</asrwt>
<pdfrwt beam="1">  1        2 0.15469270E+00 0.66019014E+03</pdfrwt>
<pdfrwt beam="2">  1       -2 0.85829431E-01 0.66019014E+03</pdfrwt>
<totfact> 0.30199996E+01</totfact>
</mgrwt>
</event>
<event>
 4    2  0.4130416E-007  0.8175810E+03  0.7818608E-02  0.9673997E-01
          2   -1    0    0  501    0  0.00000000000E+00  0.00000000000E+00  0.21458595746E+04  0.21458595746E+04  0.25500000000E-02 0. -1.
         -2   -1    0    0    0  501 -0.00000000000E+00 -0.00000000000E+00 -0.13288514515E+04  0.13288514515E+04  0.25500000000E-02 0.  1.
    8880023    1    1    2    0    0 -0.43669186416E+03 -0.20959166419E+03  0.20144207488E+04  0.21740123296E+04  0.65864270000E+03 0.  0.
    8880022    1    1    2    0    0  0.43669186416E+03  0.20959166419E+03 -0.11974126257E+04  0.13006986965E+04  0.15294330000E+03 0.  0.
<mgrwt>
<rscale>  0 0.72586320E+03</rscale>
<asrwt>0</asrwt>
<pdfrwt beam="1">  1        2 0.33013224E+00 0.81758098E+03</pdfrwt>
<pdfrwt beam="2">  1       -2 0.20443869E+00 0.81758098E+03</pdfrwt>
<totfact> 0.71236421E-01</totfact>
</mgrwt>
</event>
<event>
 4    2  0.2930016E-007  0.8960422E+03  0.7818608E-02  0.9532415E-01
          2   -1    0    0  501    0  0.00000000000E+00  0.00000000000E+00  0.17194876444E+04  0.17194876444E+04  0.25500000000E-02 0. -1.
         -2   -1    0    0    0  501 -0.00000000000E+00 -0.00000000000E+00 -0.36564895263E+03  0.36564895264E+03  0.25500000000E-02 0.  1.
    8880023    1    1    2    0    0  0.23749637317E+02  0.60705629303E+03  0.10748274256E+04  0.13993375537E+04  0.65864270000E+03 0. -1.
    8880022    1    1    2    0    0 -0.23749637317E+02 -0.60705629303E+03  0.27901126625E+03  0.68579904338E+03  0.15294330000E+03 0.  0.
<mgrwt>
<rscale>  0 0.81935587E+03</rscale>
<asrwt>0</asrwt>
<pdfrwt beam="1">  1        2 0.26453656E+00 0.89604218E+03</pdfrwt>
<pdfrwt beam="2">  1       -2 0.56253686E-01 0.89604218E+03</pdfrwt>
<totfact> 0.28673111E+01</totfact>
</mgrwt>
</event>
<event>
 4    2  0.2930016E-007  0.8622826E+03  0.7818608E-02  0.9589516E-01
          2   -1    0    0  501    0  0.00000000000E+00  0.00000000000E+00  0.13308768499E+04  0.13308768499E+04  0.25500000000E-02 0. -1.
         -2   -1    0    0    0  501 -0.00000000000E+00 -0.00000000000E+00 -0.64349783284E+03  0.64349783285E+03  0.25500000000E-02 0.  1.
    8880023    1    1    2    0    0  0.46397224474E+03  0.30732863387E+03  0.99801855259E+03  0.13189284934E+04  0.65864270000E+03 0. -1.
    8880022    1    1    2    0    0 -0.46397224474E+03 -0.30732863387E+03 -0.31063953554E+03  0.65544618936E+03  0.15294330000E+03 0.  0.
<mgrwt>
<rscale>  0 0.77993991E+03</rscale>
<asrwt>0</asrwt>
<pdfrwt beam="1">  1        2 0.20475028E+00 0.86228263E+03</pdfrwt>
<pdfrwt beam="2">  1       -2 0.98999666E-01 0.86228263E+03</pdfrwt>
<totfact> 0.13528468E+01</totfact>
</mgrwt>
</event>
<event>
 4    2  0.2930016E-007  0.1012502E+04  0.7818608E-02  0.9365381E-01
          2   -1    0    0  501    0  0.00000000000E+00  0.00000000000E+00  0.17246470275E+04  0.17246470275E+04  0.25500000000E-02 0. -1.
         -2   -1    0    0    0  501 -0.00000000000E+00 -0.00000000000E+00 -0.13424652165E+04  0.13424652165E+04  0.25500000000E-02 0.  1.
    8880023    1    1    2    0    0 -0.27785963338E+03 -0.71703839028E+03  0.14338730183E+04  0.17553210726E+04  0.65864270000E+03 0. -1.
    8880022    1    1    2    0    0  0.27785963338E+03  0.71703839028E+03 -0.10516912073E+04  0.13117911715E+04  0.15294330000E+03 0.  0.
<mgrwt>
<rscale>  0 0.94980290E+03</rscale>
<asrwt>0</asrwt>
<pdfrwt beam="1">  1        2 0.26533031E+00 0.10125020E+04</pdfrwt>
<pdfrwt beam="2">  1       -2 0.20653311E+00 0.10125020E+04</pdfrwt>
<totfact> 0.11388483E+00</totfact>
</mgrwt>
</event>
<event>
 4    2  0.2930016E-007  0.7709960E+03  0.7818608E-02  0.9777429E-01
          2   -1    0    0  501    0  0.00000000000E+00  0.00000000000E+00  0.15632568433E+04  0.15632568433E+04  0.25500000000E-02 0. -1.
         -2   -1    0    0    0  501 -0.00000000000E+00 -0.00000000000E+00 -0.44590237940E+03  0.44590237941E+03  0.25500000000E-02 0.  1.
    8880023    1    1    2    0    0  0.16219752710E+03  0.36649218563E+03  0.13246800519E+04  0.15327139349E+04  0.65864270000E+03 0. -1.
    8880022    1    1    2    0    0 -0.16219752710E+03 -0.36649218563E+03 -0.20732558796E+03  0.47644528790E+03  0.15294330000E+03 0.  0.
<mgrwt>
<rscale>  0 0.66588018E+03</rscale>
<asrwt>0</asrwt>
<pdfrwt beam="1">  1        2 0.24050105E+00 0.77099596E+03</pdfrwt>
<pdfrwt beam="2">  1       -2 0.68600367E-01 0.77099596E+03</pdfrwt>
<totfact> 0.23224022E+01</totfact>
</mgrwt>
</event>
<event>
 4    2  0.2930016E-007  0.8819418E+03  0.7818608E-02  0.9555666E-01
          2   -1    0    0  501    0  0.00000000000E+00  0.00000000000E+00  0.29462195676E+04  0.29462195676E+04  0.25500000000E-02 0. -1.
         -2   -1    0    0    0  501 -0.00000000000E+00 -0.00000000000E+00 -0.32608452388E+03  0.32608452389E+03  0.25500000000E-02 0.  1.
    8880023    1    1    2    0    0 -0.58129583925E+03  0.78142507367E+02  0.25044829413E+04  0.26552318380E+04  0.65864270000E+03 0.  0.
    8880022    1    1    2    0    0  0.58129583925E+03 -0.78142507367E+02  0.11565210242E+03  0.61707225347E+03  0.15294330000E+03 0.  0.
<mgrwt>
<rscale>  0 0.80301330E+03</rscale>
<asrwt>0</asrwt>
<pdfrwt beam="1">  1        2 0.45326456E+00 0.88194178E+03</pdfrwt>
<pdfrwt beam="2">  1       -2 0.50166848E-01 0.88194178E+03</pdfrwt>
<totfact> 0.73487864E+00</totfact>
</mgrwt>
</event>
<event>
 4    2  0.2930016E-007  0.8168868E+03  0.7818608E-02  0.9675407E-01
          2   -1    0    0  501    0  0.00000000000E+00  0.00000000000E+00  0.10541690524E+04  0.10541690524E+04  0.25500000000E-02 0. -1.
         -2   -1    0    0    0  501 -0.00000000000E+00 -0.00000000000E+00 -0.11831700871E+04  0.11831700872E+04  0.25500000000E-02 0.  1.
    8880023    1    1    2    0    0 -0.27059485669E+03  0.40034015025E+03  0.82252425984E+03  0.11592455204E+04  0.65864270000E+03 0. -1.
    8880022    1    1    2    0    0  0.27059485669E+03 -0.40034015025E+03 -0.95152529458E+03  0.10780936191E+04  0.15294330000E+03 0.  0.
<mgrwt>
<rscale>  0 0.72500140E+03</rscale>
<asrwt>0</asrwt>
<pdfrwt beam="1">  1        2 0.16217985E+00 0.81688678E+03</pdfrwt>
<pdfrwt beam="2">  1       -2 0.18202617E+00 0.81688678E+03</pdfrwt>
<totfact> 0.41386659E+00</totfact>
</mgrwt>
</event>
<event>
 4    2  0.2930016E-007  0.8310812E+03  0.7818608E-02  0.9647232E-01
         -2   -1    0    0    0  501 -0.00000000000E+00  0.00000000000E+00  0.74783395665E+03  0.74783395665E+03  0.25500000000E-02 0.  1.
          2   -1    0    0  501    0  0.00000000000E+00 -0.00000000000E+00 -0.23411192010E+04  0.23411192010E+04  0.25500000000E-02 0. -1.
    8880023    1    1    2    0    0  0.44098681741E+03 -0.24983259334E+03 -0.21594340506E+04  0.23138390876E+04  0.65864270000E+03 0.  0.
    8880022    1    1    2    0    0 -0.44098681741E+03  0.24983259334E+03  0.56614880627E+03  0.77511407011E+03  0.15294330000E+03 0.  1.
<mgrwt>
<rscale>  0 0.74247371E+03</rscale>
<asrwt>0</asrwt>
<pdfrwt beam="1">  1        2 0.36017218E+00 0.83108117E+03</pdfrwt>
<pdfrwt beam="2">  1       -2 0.11505138E+00 0.83108117E+03</pdfrwt>
<totfact> 0.26082983E+00</totfact>
</mgrwt>
</event>
<event>
 4    2  0.2930016E-007  0.7480895E+03  0.7818608E-02  0.9836980E-01
          2   -1    0    0  501    0  0.00000000000E+00  0.00000000000E+00  0.16129517062E+04  0.16129517062E+04  0.25500000000E-02 0. -1.
         -2   -1    0    0    0  501 -0.00000000000E+00 -0.00000000000E+00 -0.33143425275E+03  0.33143425276E+03  0.25500000000E-02 0.  1.
    8880023    1    1    2    0    0  0.52860124748E+02 -0.35076134649E+03  0.13581663910E+04  0.15505656603E+04  0.65864270000E+03 0.  0.
    8880022    1    1    2    0    0 -0.52860124748E+02  0.35076134649E+03 -0.76648937567E+02  0.39382029864E+03  0.15294330000E+03 0.  0.
<mgrwt>
<rscale>  0 0.63415194E+03</rscale>
<asrwt>0</asrwt>
<pdfrwt beam="1">  1        2 0.24814641E+00 0.74808951E+03</pdfrwt>
<pdfrwt beam="2">  1       -2 0.50989886E-01 0.74808951E+03</pdfrwt>
<totfact> 0.40844988E+01</totfact>
</mgrwt>
</event>
<event>
 4    2  0.2930016E-007  0.6696125E+03  0.7818608E-02  0.1015942E+00
          2   -1    0    0  501    0  0.00000000000E+00  0.00000000000E+00  0.43841036112E+03  0.43841036113E+03  0.25500000000E-02 0. -1.
         -2   -1    0    0    0  501 -0.00000000000E+00 -0.00000000000E+00 -0.13823971324E+04  0.13823971324E+04  0.25500000000E-02 0.  1.
    8880023    1    1    2    0    0  0.14489593159E+02 -0.11983618021E+03  0.16923204472E+03  0.69066659802E+03  0.65864270000E+03 0. -1.
    8880022    1    1    2    0    0 -0.14489593159E+02  0.11983618021E+03 -0.11132188160E+04  0.11301408955E+04  0.15294330000E+03 0.  0.
<mgrwt>
<rscale>  0 0.49179797E+03</rscale>
<asrwt>0</asrwt>
<pdfrwt beam="1">  1        2 0.67447749E-01 0.66961247E+03</pdfrwt>
<pdfrwt beam="2">  1       -2 0.21267648E+00 0.66961247E+03</pdfrwt>
<totfact> 0.81284569E+00</totfact>
</mgrwt>
</event>
<event>
 4    2  0.2930016E-007  0.8289168E+03  0.7818608E-02  0.9651444E-01
         -2   -1    0    0    0  501 -0.00000000000E+00  0.00000000000E+00  0.36533146449E+04  0.36533146449E+04  0.25500000000E-02 0.  1.
          2   -1    0    0  501    0  0.00000000000E+00 -0.00000000000E+00 -0.13413405035E+03  0.13413405037E+03  0.25500000000E-02 0. -1.
    8880023    1    1    2    0    0 -0.94007433786E+02  0.49442436508E+03  0.16624066027E+04  0.18576056550E+04  0.65864270000E+03 0. -1.
    8880022    1    1    2    0    0  0.94007433786E+02 -0.49442436508E+03  0.18567739919E+04  0.19298430403E+04  0.15294330000E+03 0.  0.
<mgrwt>
<rscale>  0 0.73982893E+03</rscale>
<asrwt>0</asrwt>
<pdfrwt beam="1">  1        2 0.20636007E-01 0.82891680E+03</pdfrwt>
<pdfrwt beam="2">  1       -2 0.56204843E+00 0.82891680E+03</pdfrwt>
<totfact> 0.20744939E-01</totfact>
</mgrwt>
</event>
<event>
 4    2  0.2930016E-007  0.1070353E+04  0.7818608E-02  0.9294805E-01
         -2   -1    0    0    0  501 -0.00000000000E+00  0.00000000000E+00  0.96875724097E+03  0.96875724097E+03  0.25500000000E-02 0.  1.
          2   -1    0    0  501    0  0.00000000000E+00 -0.00000000000E+00 -0.16029454382E+04  0.16029454382E+04  0.25500000000E-02 0. -1.
    8880023    1    1    2    0    0 -0.73892660347E+03 -0.40722674614E+03 -0.11500131211E+04  0.15710463179E+04  0.65864270000E+03 0.  0.
    8880022    1    1    2    0    0  0.73892660347E+03  0.40722674614E+03  0.51582492392E+03  0.10006563612E+04  0.15294330000E+03 0.  0.
<mgrwt>
<rscale>  0 0.10126255E+04</rscale>
<asrwt>0</asrwt>
<pdfrwt beam="1">  1        2 0.24660699E+00 0.10703534E+04</pdfrwt>
<pdfrwt beam="2">  1       -2 0.14903958E+00 0.10703534E+04</pdfrwt>
<totfact> 0.33364630E+00</totfact>
</mgrwt>
</event>
<event>
 4    2  0.2930016E-007  0.6617877E+03  0.7818608E-02  0.1022395E+00
          2   -1    0    0  501    0  0.00000000000E+00  0.00000000000E+00  0.15600488387E+04  0.15600488387E+04  0.25500000000E-02 0. -1.
         -2   -1    0    0    0  501 -0.00000000000E+00 -0.00000000000E+00 -0.12885067012E+03  0.12885067014E+03  0.25500000000E-02 0.  1.
    8880023    1    1    2    0    0 -0.29522958100E+02  0.57280805502E+02  0.13514136409E+04  0.15047530465E+04  0.65864270000E+03 0. -1.
    8880022    1    1    2    0    0  0.29522958100E+02 -0.57280805502E+02  0.79784527656E+02  0.18414646237E+03  0.15294330000E+03 0.  0.
<mgrwt>
<rscale>  0 0.46832038E+03</rscale>
<asrwt>0</asrwt>
<pdfrwt beam="1">  1        2 0.24000753E+00 0.66178766E+03</pdfrwt>
<pdfrwt beam="2">  1       -2 0.19823179E-01 0.66178766E+03</pdfrwt>
<totfact> 0.25998783E+02</totfact>
</mgrwt>
</event>
<event>
 4    2  0.2930016E-007  0.7273281E+03  0.7818608E-02  0.9898528E-01
          2   -1    0    0  501    0  0.00000000000E+00  0.00000000000E+00  0.13581591823E+04  0.13581591823E+04  0.25500000000E-02 0. -1.
         -2   -1    0    0    0  501 -0.00000000000E+00 -0.00000000000E+00 -0.32766508414E+03  0.32766508415E+03  0.25500000000E-02 0.  1.
    8880023    1    1    2    0    0  0.19282196394E+02  0.30793524570E+03  0.11149906629E+04  0.13312438932E+04  0.65864270000E+03 0. -1.
    8880022    1    1    2    0    0 -0.19282196394E+02 -0.30793524570E+03 -0.84496564698E+02  0.35458037327E+03  0.15294330000E+03 0.  0.
<mgrwt>
<rscale>  0 0.60332686E+03</rscale>
<asrwt>0</asrwt>
<pdfrwt beam="1">  1        2 0.20894757E+00 0.72732807E+03</pdfrwt>
<pdfrwt beam="2">  1       -2 0.50410013E-01 0.72732807E+03</pdfrwt>
<totfact> 0.58143775E+01</totfact>
</mgrwt>
</event>
<event>
 4    2  0.2930016E-007  0.7818574E+03  0.7818608E-02  0.9751492E-01
         -2   -1    0    0    0  501 -0.00000000000E+00  0.00000000000E+00  0.38072252347E+03  0.38072252348E+03  0.25500000000E-02 0.  1.
          2   -1    0    0  501    0  0.00000000000E+00 -0.00000000000E+00 -0.26203574097E+04  0.26203574097E+04  0.25500000000E-02 0. -1.
    8880023    1    1    2    0    0 -0.18290726574E+03 -0.37952045898E+03 -0.24007076003E+04  0.25248164359E+04  0.65864270000E+03 0. -1.
    8880022    1    1    2    0    0  0.18290726574E+03  0.37952045898E+03  0.16107271403E+03  0.47626349730E+03  0.15294330000E+03 0.  0.
<mgrwt>
<rscale>  0 0.68032032E+03</rscale>
<asrwt>0</asrwt>
<pdfrwt beam="1">  1        2 0.40313190E+00 0.78185744E+03</pdfrwt>
<pdfrwt beam="2">  1       -2 0.58572698E-01 0.78185744E+03</pdfrwt>
<totfact> 0.84451340E+00</totfact>
</mgrwt>
</event>
<event>
 4    2  0.2930016E-007  0.6893862E+03  0.7818608E-02  0.1004446E+00
          2   -1    0    0  501    0  0.00000000000E+00  0.00000000000E+00  0.89437082118E+03  0.89437082119E+03  0.25500000000E-02 0. -1.
         -2   -1    0    0    0  501 -0.00000000000E+00 -0.00000000000E+00 -0.28494025404E+03  0.28494025405E+03  0.25500000000E-02 0.  1.
    8880023    1    1    2    0    0 -0.10898905614E+03  0.17194341340E+03  0.61613665711E+03  0.92459598651E+03  0.65864270000E+03 0.  0.
    8880022    1    1    2    0    0  0.10898905614E+03 -0.17194341340E+03 -0.67060899699E+01  0.25471508873E+03  0.15294330000E+03 0.  0.
<mgrwt>
<rscale>  0 0.53743132E+03</rscale>
<asrwt>0</asrwt>
<pdfrwt beam="1">  1        2 0.13759551E+00 0.68938622E+03</pdfrwt>
<pdfrwt beam="2">  1       -2 0.43836962E-01 0.68938622E+03</pdfrwt>
<totfact> 0.14819304E+02</totfact>
</mgrwt>
</event>
<event>
 4    2  0.2930016E-007  0.9037510E+03  0.7818608E-02  0.9520037E-01
         -2   -1    0    0    0  501 -0.00000000000E+00  0.00000000000E+00  0.57335007476E+03  0.57335007476E+03  0.25500000000E-02 0.  1.
          2   -1    0    0  501    0  0.00000000000E+00 -0.00000000000E+00 -0.14363369903E+04  0.14363369903E+04  0.25500000000E-02 0. -1.
    8880023    1    1    2    0    0 -0.60556431003E+03 -0.12746600134E+03 -0.10101959715E+04  0.13554563151E+04  0.65864270000E+03 0.  0.
    8880022    1    1    2    0    0  0.60556431003E+03  0.12746600134E+03  0.14720905590E+03  0.65423074999E+03  0.15294330000E+03 0. -1.
<mgrwt>
<rscale>  0 0.82822586E+03</rscale>
<asrwt>0</asrwt>
<pdfrwt beam="1">  1        2 0.22097492E+00 0.90375103E+03</pdfrwt>
<pdfrwt beam="2">  1       -2 0.88207704E-01 0.90375103E+03</pdfrwt>
<totfact> 0.15353581E+01</totfact>
</mgrwt>
</event>
<event>
 4    2  0.2930016E-007  0.7347413E+03  0.7818608E-02  0.9875539E-01
          2   -1    0    0  501    0  0.00000000000E+00  0.00000000000E+00  0.30693027819E+03  0.30693027820E+03  0.25500000000E-02 0. -1.
         -2   -1    0    0    0  501 -0.00000000000E+00 -0.00000000000E+00 -0.15372555083E+04  0.15372555083E+04  0.25500000000E-02 0.  1.
    8880023    1    1    2    0    0 -0.19509176185E+03  0.26071783201E+03 -0.21280411935E+03  0.76493815629E+03  0.65864270000E+03 0. -1.
    8880022    1    1    2    0    0  0.19509176185E+03 -0.26071783201E+03 -0.10175211108E+04  0.10792476302E+04  0.15294330000E+03 0.  0.
<mgrwt>
<rscale>  0 0.61461568E+03</rscale>
<asrwt>0</asrwt>
<pdfrwt beam="1">  1        2 0.47220044E-01 0.73474131E+03</pdfrwt>
<pdfrwt beam="2">  1       -2 0.23650084E+00 0.73474131E+03</pdfrwt>
<totfact> 0.85519686E+00</totfact>
</mgrwt>
</event>
<event>
 4    2  0.2930016E-007  0.7237983E+03  0.7818608E-02  0.9909937E-01
         -2   -1    0    0    0  501 -0.00000000000E+00  0.00000000000E+00  0.19660396110E+03  0.19660396112E+03  0.25500000000E-02 0.  1.
          2   -1    0    0  501    0  0.00000000000E+00 -0.00000000000E+00 -0.37692766132E+04  0.37692766132E+04  0.25500000000E-02 0. -1.
    8880023    1    1    2    0    0  0.22056257288E+03  0.20353367519E+03 -0.35556854068E+04  0.36286061682E+04  0.65864270000E+03 0. -1.
    8880022    1    1    2    0    0 -0.22056257288E+03 -0.20353367519E+03 -0.16987245274E+02  0.33727440610E+03  0.15294330000E+03 0.  0.
<mgrwt>
<rscale>  0 0.59782096E+03</rscale>
<asrwt>0</asrwt>
<pdfrwt beam="1">  1        2 0.57988866E+00 0.72379832E+03</pdfrwt>
<pdfrwt beam="2">  1       -2 0.30246766E-01 0.72379832E+03</pdfrwt>
<totfact> 0.57520086E+00</totfact>
</mgrwt>
</event>
<event>
 4    2  0.2930016E-007  0.9981236E+03  0.7818608E-02  0.9384017E-01
         -2   -1    0    0    0  501 -0.00000000000E+00  0.00000000000E+00  0.79942668818E+03  0.79942668818E+03  0.25500000000E-02 0.  1.
          2   -1    0    0  501    0  0.00000000000E+00 -0.00000000000E+00 -0.10005141054E+04  0.10005141054E+04  0.25500000000E-02 0. -1.
    8880023    1    1    2    0    0  0.20711923296E+03  0.72079275434E+03 -0.26255910102E+03  0.10320794830E+04  0.65864270000E+03 0. -1.
    8880022    1    1    2    0    0 -0.20711923296E+03 -0.72079275434E+03  0.61471683839E+02  0.76786131058E+03  0.15294330000E+03 0.  1.
<mgrwt>
<rscale>  0 0.93402803E+03</rscale>
<asrwt>0</asrwt>
<pdfrwt beam="1">  1        2 0.15392525E+00 0.99812363E+03</pdfrwt>
<pdfrwt beam="2">  1       -2 0.12298872E+00 0.99812363E+03</pdfrwt>
<totfact> 0.12475886E+01</totfact>
</mgrwt>
</event>
<event>
 4    2  0.2930016E-007  0.7127822E+03  0.7818608E-02  0.9947811E-01
          2   -1    0    0  501    0  0.00000000000E+00  0.00000000000E+00  0.24786071101E+04  0.24786071101E+04  0.25500000000E-02 0. -1.
         -2   -1    0    0    0  501 -0.00000000000E+00 -0.00000000000E+00 -0.39771771293E+03  0.39771771294E+03  0.25500000000E-02 0.  1.
    8880023    1    1    2    0    0  0.26254314194E+03 -0.72933569209E+02  0.23550966265E+04  0.24605971904E+04  0.65864270000E+03 0. -1.
    8880022    1    1    2    0    0 -0.26254314194E+03  0.72933569209E+02 -0.27420722935E+03  0.41572763264E+03  0.15294330000E+03 0.  0.
<mgrwt>
<rscale>  0 0.57999068E+03</rscale>
<asrwt>0</asrwt>
<pdfrwt beam="1">  1        2 0.38132417E+00 0.71278216E+03</pdfrwt>
<pdfrwt beam="2">  1       -2 0.61187340E-01 0.71278216E+03</pdfrwt>
<totfact> 0.93868560E+00</totfact>
</mgrwt>
</event>
<event>
 4    2  0.2930016E-007  0.7288872E+03  0.7818608E-02  0.9893587E-01
          2   -1    0    0  501    0  0.00000000000E+00  0.00000000000E+00  0.36697117436E+03  0.36697117437E+03  0.25500000000E-02 0. -1.
         -2   -1    0    0    0  501 -0.00000000000E+00 -0.00000000000E+00 -0.98732124175E+03  0.98732124176E+03  0.25500000000E-02 0.  1.
    8880023    1    1    2    0    0 -0.28414376093E+02 -0.31090036361E+03 -0.11052561943E+03  0.73721945964E+03  0.65864270000E+03 0.  0.
    8880022    1    1    2    0    0  0.28414376093E+02  0.31090036361E+03 -0.50982444796E+03  0.61707295648E+03  0.15294330000E+03 0.  1.
<mgrwt>
<rscale>  0 0.60573089E+03</rscale>
<asrwt>0</asrwt>
<pdfrwt beam="1">  1        2 0.56457104E-01 0.72888725E+03</pdfrwt>
<pdfrwt beam="2">  1       -2 0.15189557E+00 0.72888725E+03</pdfrwt>
<totfact> 0.25756333E+01</totfact>
</mgrwt>
</event>
<event>
 4    2  0.2930016E-007  0.7430386E+03  0.7818608E-02  0.9851183E-01
          2   -1    0    0  501    0  0.00000000000E+00  0.00000000000E+00  0.12216305178E+04  0.12216305178E+04  0.25500000000E-02 0. -1.
         -2   -1    0    0    0  501 -0.00000000000E+00 -0.00000000000E+00 -0.31372360690E+03  0.31372360691E+03  0.25500000000E-02 0.  1.
    8880023    1    1    2    0    0 -0.27162700664E+03  0.21098544593E+03  0.88876786992E+03  0.11584535476E+04  0.65864270000E+03 0. -1.
    8880022    1    1    2    0    0  0.27162700664E+03 -0.21098544593E+03  0.19139041013E+02  0.37690057713E+03  0.15294330000E+03 0.  1.
<mgrwt>
<rscale>  0 0.62686648E+03</rscale>
<asrwt>0</asrwt>
<pdfrwt beam="1">  1        2 0.18794315E+00 0.74303856E+03</pdfrwt>
<pdfrwt beam="2">  1       -2 0.48265171E-01 0.74303856E+03</pdfrwt>
<totfact> 0.76049873E+01</totfact>
</mgrwt>
</event>
<event>
 4    2  0.2930016E-007  0.8263995E+03  0.7818608E-02  0.9656379E-01
          2   -1    0    0  501    0  0.00000000000E+00  0.00000000000E+00  0.11995950031E+04  0.11995950031E+04  0.25500000000E-02 0. -1.
         -2   -1    0    0    0  501 -0.00000000000E+00 -0.00000000000E+00 -0.78700020120E+03  0.78700020120E+03  0.25500000000E-02 0.  1.
    8880023    1    1    2    0    0 -0.25377805485E+03 -0.42979368957E+03  0.93513990489E+03  0.12479674534E+04  0.65864270000E+03 0.  0.
    8880022    1    1    2    0    0  0.25377805485E+03  0.42979368957E+03 -0.52254510301E+03  0.73862775091E+03  0.15294330000E+03 0.  0.
<mgrwt>
<rscale>  0 0.73674440E+03</rscale>
<asrwt>0</asrwt>
<pdfrwt beam="1">  1        2 0.18455308E+00 0.82639949E+03</pdfrwt>
<pdfrwt beam="2">  1       -2 0.12107696E+00 0.82639949E+03</pdfrwt>
<totfact> 0.99455119E+00</totfact>
</mgrwt>
</event>
<event>
 4    2  0.2930016E-007  0.9598493E+03  0.7818608E-02  0.9436083E-01
          2   -1    0    0  501    0  0.00000000000E+00  0.00000000000E+00  0.16367694155E+04  0.16367694155E+04  0.25500000000E-02 0. -1.
         -2   -1    0    0    0  501 -0.00000000000E+00 -0.00000000000E+00 -0.88685259195E+03  0.88685259196E+03  0.25500000000E-02 0.  1.
    8880023    1    1    2    0    0  0.30027052225E+02  0.69756631644E+03  0.13040486498E+04  0.16192138454E+04  0.65864270000E+03 0.  1.
    8880022    1    1    2    0    0 -0.30027052225E+02 -0.69756631644E+03 -0.55413182629E+03  0.90440816207E+03  0.15294330000E+03 0.  0.
<mgrwt>
<rscale>  0 0.89164795E+03</rscale>
<asrwt>0</asrwt>
<pdfrwt beam="1">  1        2 0.25181068E+00 0.95984926E+03</pdfrwt>
<pdfrwt beam="2">  1       -2 0.13643886E+00 0.95984926E+03</pdfrwt>
<totfact> 0.40796170E+00</totfact>
</mgrwt>
</event>
<event>
 4    2  0.2930016E-007  0.6685832E+03  0.7818608E-02  0.1016700E+00
          2   -1    0    0  501    0  0.00000000000E+00  0.00000000000E+00  0.30195759390E+04  0.30195759390E+04  0.25500000000E-02 0. -1.
         -2   -1    0    0    0  501 -0.00000000000E+00 -0.00000000000E+00 -0.13700544083E+03  0.13700544086E+03  0.25500000000E-02 0.  1.
    8880023    1    1    2    0    0 -0.11057582748E+03  0.31085715992E+02  0.28888484173E+04  0.29652063536E+04  0.65864270000E+03 0. -1.
    8880022    1    1    2    0    0  0.11057582748E+03 -0.31085715992E+02 -0.62779191558E+01  0.19137502618E+03  0.15294330000E+03 0.  0.
<mgrwt>
<rscale>  0 0.48896692E+03</rscale>
<asrwt>0</asrwt>
<pdfrwt beam="1">  1        2 0.46455013E+00 0.66858323E+03</pdfrwt>
<pdfrwt beam="2">  1       -2 0.21077761E-01 0.66858323E+03</pdfrwt>
<totfact> 0.35281026E+01</totfact>
</mgrwt>
</event>
<event>
 4    2  0.2930016E-007  0.1045165E+04  0.7818608E-02  0.9324716E-01
         -2   -1    0    0    0  501 -0.00000000000E+00  0.00000000000E+00  0.86549294730E+03  0.86549294730E+03  0.25500000000E-02 0.  1.
          2   -1    0    0  501    0  0.00000000000E+00 -0.00000000000E+00 -0.21189166665E+04  0.21189166665E+04  0.25500000000E-02 0. -1.
    8880023    1    1    2    0    0  0.66248521546E+03  0.46869290714E+03 -0.17371738430E+04  0.20273487290E+04  0.65864270000E+03 0. -1.
    8880022    1    1    2    0    0 -0.66248521546E+03 -0.46869290714E+03  0.48375012381E+03  0.95706088480E+03  0.15294330000E+03 0.  0.
<mgrwt>
<rscale>  0 0.98538926E+03</rscale>
<asrwt>0</asrwt>
<pdfrwt beam="1">  1        2 0.32598718E+00 0.10451650E+04</pdfrwt>
<pdfrwt beam="2">  1       -2 0.13315276E+00 0.10451650E+04</pdfrwt>
<totfact> 0.23290950E+00</totfact>
</mgrwt>
</event>
<event>
 4    2  0.2930016E-007  0.6622518E+03  0.7818608E-02  0.1021959E+00
          2   -1    0    0  501    0  0.00000000000E+00  0.00000000000E+00  0.96039356064E+03  0.96039356064E+03  0.25500000000E-02 0. -1.
         -2   -1    0    0    0  501 -0.00000000000E+00 -0.00000000000E+00 -0.54940047459E+03  0.54940047460E+03  0.25500000000E-02 0.  1.
    8880023    1    1    2    0    0 -0.69044486296E+02 -0.32376645970E+00  0.82801488517E+03  0.10602764273E+04  0.65864270000E+03 0. -1.
    8880022    1    1    2    0    0  0.69044486296E+02  0.32376645970E+00 -0.41702179912E+03  0.44951760797E+03  0.15294330000E+03 0.  0.
<mgrwt>
<rscale>  0 0.46986092E+03</rscale>
<asrwt>0</asrwt>
<pdfrwt beam="1">  1        2 0.14775285E+00 0.66225180E+03</pdfrwt>
<pdfrwt beam="2">  1       -2 0.84523150E-01 0.66225180E+03</pdfrwt>
<totfact> 0.33416351E+01</totfact>
</mgrwt>
</event>
<event>
 4    2  0.2930016E-007  0.1138122E+04  0.7818608E-02  0.9219753E-01
          2   -1    0    0  501    0  0.00000000000E+00  0.00000000000E+00  0.13429567203E+04  0.13429567203E+04  0.25500000000E-02 0. -1.
         -2   -1    0    0    0  501 -0.00000000000E+00 -0.00000000000E+00 -0.10923442655E+04  0.10923442655E+04  0.25500000000E-02 0.  1.
    8880023    1    1    2    0    0 -0.90000291721E+03 -0.22695211850E+03  0.75708307527E+03  0.13669299559E+04  0.65864270000E+03 0.  0.
    8880022    1    1    2    0    0  0.90000291721E+03  0.22695211850E+03 -0.50647062052E+03  0.10683710299E+04  0.15294330000E+03 0.  0.
<mgrwt>
<rscale>  0 0.10851850E+04</rscale>
<asrwt>0</asrwt>
<pdfrwt beam="1">  1        2 0.20660873E+00 0.11381225E+04</pdfrwt>
<pdfrwt beam="2">  1       -2 0.16805296E+00 0.11381225E+04</pdfrwt>
<totfact> 0.33562422E+00</totfact>
</mgrwt>
</event>
<event>
 4    2  0.2930016E-007  0.7895468E+03  0.7818608E-02  0.9733871E-01
          2   -1    0    0  501    0  0.00000000000E+00  0.00000000000E+00  0.48758655462E+04  0.48758655462E+04  0.25500000000E-02 0. -1.
         -2   -1    0    0    0  501 -0.00000000000E+00 -0.00000000000E+00 -0.25632345331E+03  0.25632345333E+03  0.25500000000E-02 0.  1.
    8880023    1    1    2    0    0 -0.22352587459E+03 -0.37364435857E+03  0.46031964016E+04  0.46704176731E+04  0.65864270000E+03 0. -1.
    8880022    1    1    2    0    0  0.22352587459E+03  0.37364435857E+03  0.16345691328E+02  0.46177132646E+03  0.15294330000E+03 0.  0.
<mgrwt>
<rscale>  0 0.69035437E+03</rscale>
<asrwt>0</asrwt>
<pdfrwt beam="1">  1        2 0.75013314E+00 0.78954679E+03</pdfrwt>
<pdfrwt beam="2">  1       -2 0.39434378E-01 0.78954679E+03</pdfrwt>
<totfact> 0.34191521E-01</totfact>
</mgrwt>
</event>
<event>
 4    2  0.2930016E-007  0.1044463E+04  0.7818608E-02  0.9325568E-01
          2   -1    0    0  501    0  0.00000000000E+00  0.00000000000E+00  0.29831207532E+04  0.29831207532E+04  0.25500000000E-02 0. -1.
         -2   -1    0    0    0  501 -0.00000000000E+00 -0.00000000000E+00 -0.36327106428E+03  0.36327106429E+03  0.25500000000E-02 0.  1.
    8880023    1    1    2    0    0 -0.67987527823E+03 -0.44143129488E+03  0.21664675070E+04  0.24050953509E+04  0.65864270000E+03 0.  0.
    8880022    1    1    2    0    0  0.67987527823E+03  0.44143129488E+03  0.45338218195E+03  0.94129646657E+03  0.15294330000E+03 0.  0.
<mgrwt>
<rscale>  0 0.98462734E+03</rscale>
<asrwt>0</asrwt>
<pdfrwt beam="1">  1        2 0.45894164E+00 0.10444626E+04</pdfrwt>
<pdfrwt beam="2">  1       -2 0.55887858E-01 0.10444626E+04</pdfrwt>
<totfact> 0.54515892E+00</totfact>
</mgrwt>
</event>
<event>
 4    2  0.2930016E-007  0.7351367E+03  0.7818608E-02  0.9874347E-01
         -2   -1    0    0    0  501 -0.00000000000E+00  0.00000000000E+00  0.40576905282E+03  0.40576905283E+03  0.25500000000E-02 0.  1.
          2   -1    0    0  501    0  0.00000000000E+00 -0.00000000000E+00 -0.10512638687E+04  0.10512638687E+04  0.25500000000E-02 0. -1.
    8880023    1    1    2    0    0  0.28977033440E+03 -0.15049568536E+03 -0.78033725373E+03  0.10720784644E+04  0.65864270000E+03 0. -1.
    8880022    1    1    2    0    0 -0.28977033440E+03  0.15049568536E+03  0.13484243785E+03  0.38495445713E+03  0.15294330000E+03 0.  0.
<mgrwt>
<rscale>  0 0.61520821E+03</rscale>
<asrwt>0</asrwt>
<pdfrwt beam="1">  1        2 0.16173290E+00 0.73513672E+03</pdfrwt>
<pdfrwt beam="2">  1       -2 0.62426009E-01 0.73513672E+03</pdfrwt>
<totfact> 0.56574313E+01</totfact>
</mgrwt>
</event>
<event>
 4    2  0.2930016E-007  0.6843389E+03  0.7818608E-02  0.1006969E+00
         -2   -1    0    0    0  501 -0.00000000000E+00  0.00000000000E+00  0.79398557879E+03  0.79398557880E+03  0.25500000000E-02 0.  1.
          2   -1    0    0  501    0  0.00000000000E+00 -0.00000000000E+00 -0.73627258173E+03  0.73627258173E+03  0.25500000000E-02 0. -1.
    8880023    1    1    2    0    0 -0.18542262149E+03  0.11310442377E+02 -0.54914965303E+03  0.87743092170E+03  0.65864270000E+03 0. -1.
    8880022    1    1    2    0    0  0.18542262149E+03 -0.11310442377E+02  0.60686265009E+03  0.65282723883E+03  0.15294330000E+03 0.  0.
<mgrwt>
<rscale>  0 0.52697411E+03</rscale>
<asrwt>0</asrwt>
<pdfrwt beam="1">  1        2 0.11327271E+00 0.68433886E+03</pdfrwt>
<pdfrwt beam="2">  1       -2 0.12215163E+00 0.68433886E+03</pdfrwt>
<totfact> 0.19916755E+01</totfact>
</mgrwt>
</event>
<event>
 4    2  0.2930016E-007  0.8852826E+03  0.7818608E-02  0.9550083E-01
         -2   -1    0    0    0  501 -0.00000000000E+00  0.00000000000E+00  0.55227139496E+03  0.55227139497E+03  0.25500000000E-02 0.  1.
          2   -1    0    0  501    0  0.00000000000E+00 -0.00000000000E+00 -0.27701643285E+04  0.27701643285E+04  0.25500000000E-02 0. -1.
    8880023    1    1    2    0    0  0.44705966529E+03 -0.38736632236E+03 -0.24980499739E+04  0.26502790213E+04  0.65864270000E+03 0. -1.
    8880022    1    1    2    0    0 -0.44705966529E+03  0.38736632236E+03  0.28015704039E+03  0.67215670221E+03  0.15294330000E+03 0.  0.
<mgrwt>
<rscale>  0 0.80689988E+03</rscale>
<asrwt>0</asrwt>
<pdfrwt beam="1">  1        2 0.42617912E+00 0.88528256E+03</pdfrwt>
<pdfrwt beam="2">  1       -2 0.84964831E-01 0.88528256E+03</pdfrwt>
<totfact> 0.30045306E+00</totfact>
</mgrwt>
</event>
<event>
 4    2  0.2930016E-007  0.6644112E+03  0.7818608E-02  0.1020033E+00
         -2   -1    0    0    0  501 -0.00000000000E+00  0.00000000000E+00  0.23511333494E+03  0.23511333495E+03  0.25500000000E-02 0.  1.
          2   -1    0    0  501    0  0.00000000000E+00 -0.00000000000E+00 -0.13748485666E+04  0.13748485666E+04  0.25500000000E-02 0. -1.
    8880023    1    1    2    0    0  0.80756306167E+02 -0.33323616144E+02 -0.12403657650E+04  0.14071067769E+04  0.65864270000E+03 0. -1.
    8880022    1    1    2    0    0 -0.80756306167E+02  0.33323616144E+02  0.10063053327E+03  0.20285512471E+03  0.15294330000E+03 0.  0.
<mgrwt>
<rscale>  0 0.47674858E+03</rscale>
<asrwt>0</asrwt>
<pdfrwt beam="1">  1        2 0.21151516E+00 0.66441121E+03</pdfrwt>
<pdfrwt beam="2">  1       -2 0.36171283E-01 0.66441121E+03</pdfrwt>
<totfact> 0.11017925E+02</totfact>
</mgrwt>
</event>
<event>
 4    2  0.2930016E-007  0.7347072E+03  0.7818608E-02  0.9875642E-01
         -2   -1    0    0    0  501 -0.00000000000E+00  0.00000000000E+00  0.73101974059E+03  0.73101974059E+03  0.25500000000E-02 0.  1.
          2   -1    0    0  501    0  0.00000000000E+00 -0.00000000000E+00 -0.10078558985E+04  0.10078558985E+04  0.25500000000E-02 0. -1.
    8880023    1    1    2    0    0  0.30218239219E+03 -0.12112111636E+03 -0.81137395671E+03  0.10945877886E+04  0.65864270000E+03 0. -1.
    8880022    1    1    2    0    0 -0.30218239219E+03  0.12112111636E+03  0.53453779880E+03  0.64428785053E+03  0.15294330000E+03 0.  0.
<mgrwt>
<rscale>  0 0.61456458E+03</rscale>
<asrwt>0</asrwt>
<pdfrwt beam="1">  1        2 0.15505475E+00 0.73470724E+03</pdfrwt>
<pdfrwt beam="2">  1       -2 0.11246458E+00 0.73470724E+03</pdfrwt>
<totfact> 0.15789034E+01</totfact>
</mgrwt>
</event>
<event>
 4    2  0.2930016E-007  0.6987426E+03  0.7818608E-02  0.1000246E+00
         -2   -1    0    0    0  501 -0.00000000000E+00  0.00000000000E+00  0.61565572094E+03  0.61565572095E+03  0.25500000000E-02 0.  1.
          2   -1    0    0  501    0  0.00000000000E+00 -0.00000000000E+00 -0.49434097305E+03  0.49434097305E+03  0.25500000000E-02 0. -1.
    8880023    1    1    2    0    0 -0.16225820016E+03 -0.16764050202E+03 -0.15675678768E+03  0.71611029750E+03  0.65864270000E+03 0. -1.
    8880022    1    1    2    0    0  0.16225820016E+03  0.16764050202E+03  0.27807153558E+03  0.39388639650E+03  0.15294330000E+03 0.  0.
<mgrwt>
<rscale>  0 0.55542603E+03</rscale>
<asrwt>0</asrwt>
<pdfrwt beam="1">  1        2 0.76052457E-01 0.69874263E+03</pdfrwt>
<pdfrwt beam="2">  1       -2 0.94716265E-01 0.69874263E+03</pdfrwt>
<totfact> 0.59440836E+01</totfact>
</mgrwt>
</event>
<event>
 4    2  0.2930016E-007  0.8347674E+03  0.7818608E-02  0.9640127E-01
          2   -1    0    0  501    0  0.00000000000E+00  0.00000000000E+00  0.28088444561E+04  0.28088444561E+04  0.25500000000E-02 0. -1.
         -2   -1    0    0    0  501 -0.00000000000E+00 -0.00000000000E+00 -0.33479888718E+03  0.33479888719E+03  0.25500000000E-02 0.  1.
    8880023    1    1    2    0    0  0.46517619102E+03  0.21595731497E+03  0.24712759198E+04  0.26084557364E+04  0.65864270000E+03 0.  0.
    8880022    1    1    2    0    0 -0.46517619102E+03 -0.21595731497E+03  0.27696490885E+01  0.53518760688E+03  0.15294330000E+03 0.  0.
<mgrwt>
<rscale>  0 0.74696315E+03</rscale>
<asrwt>0</asrwt>
<pdfrwt beam="1">  1        2 0.43212993E+00 0.83476743E+03</pdfrwt>
<pdfrwt beam="2">  1       -2 0.51507519E-01 0.83476743E+03</pdfrwt>
<totfact> 0.84836027E+00</totfact>
</mgrwt>
</event>
<event>
 4    2  0.2930016E-007  0.8281829E+03  0.7818608E-02  0.9652878E-01
         -2   -1    0    0    0  501 -0.00000000000E+00  0.00000000000E+00  0.39335059521E+03  0.39335059522E+03  0.25500000000E-02 0.  1.
          2   -1    0    0  501    0  0.00000000000E+00 -0.00000000000E+00 -0.19432917382E+04  0.19432917382E+04  0.25500000000E-02 0. -1.
    8880023    1    1    2    0    0  0.41789535628E+02  0.50033022084E+03 -0.16078469950E+04  0.18086068840E+04  0.65864270000E+03 0.  0.
    8880022    1    1    2    0    0 -0.41789535628E+02 -0.50033022084E+03  0.57905852002E+02  0.52803544946E+03  0.15294330000E+03 0.  0.
<mgrwt>
<rscale>  0 0.73893060E+03</rscale>
<asrwt>0</asrwt>
<pdfrwt beam="1">  1        2 0.29896795E+00 0.82818289E+03</pdfrwt>
<pdfrwt beam="2">  1       -2 0.60515477E-01 0.82818289E+03</pdfrwt>
<totfact> 0.18683002E+01</totfact>
</mgrwt>
</event>
<event>
 4    2  0.2930016E-007  0.6870761E+03  0.7818608E-02  0.1005574E+00
          2   -1    0    0  501    0  0.00000000000E+00  0.00000000000E+00  0.40080473135E+04  0.40080473135E+04  0.25500000000E-02 0. -1.
         -2   -1    0    0    0  501 -0.00000000000E+00 -0.00000000000E+00 -0.24473073635E+03  0.24473073637E+03  0.25500000000E-02 0.  1.
    8880023    1    1    2    0    0  0.17936786459E+03  0.78042186988E+02  0.39062891150E+04  0.39662536820E+04  0.65864270000E+03 0. -1.
    8880022    1    1    2    0    0 -0.17936786459E+03 -0.78042186988E+02 -0.14297253784E+03  0.28652436788E+03  0.15294330000E+03 0.  0.
<mgrwt>
<rscale>  0 0.53272091E+03</rscale>
<asrwt>0</asrwt>
<pdfrwt beam="1">  1        2 0.61662263E+00 0.68707614E+03</pdfrwt>
<pdfrwt beam="2">  1       -2 0.37650884E-01 0.68707614E+03</pdfrwt>
<totfact> 0.25253776E+00</totfact>
</mgrwt>
</event>
<event>
 4    2  0.2930016E-007  0.7420546E+03  0.7818608E-02  0.9854002E-01
         -2   -1    0    0    0  501 -0.00000000000E+00  0.00000000000E+00  0.22428294837E+03  0.22428294839E+03  0.25500000000E-02 0.  1.
          2   -1    0    0  501    0  0.00000000000E+00 -0.00000000000E+00 -0.28269425573E+04  0.28269425573E+04  0.25500000000E-02 0. -1.
    8880023    1    1    2    0    0 -0.28483715191E+03 -0.18895127045E+03 -0.25704011094E+04  0.26753704145E+04  0.65864270000E+03 0. -1.
    8880022    1    1    2    0    0  0.28483715191E+03  0.18895127045E+03 -0.32258499533E+02  0.37585509112E+03  0.15294330000E+03 0.  0.
<mgrwt>
<rscale>  0 0.62543276E+03</rscale>
<asrwt>0</asrwt>
<pdfrwt beam="1">  1        2 0.43491422E+00 0.74205457E+03</pdfrwt>
<pdfrwt beam="2">  1       -2 0.34505071E-01 0.74205457E+03</pdfrwt>
<totfact> 0.18513644E+01</totfact>
</mgrwt>
</event>
<event>
 4    2  0.2930016E-007  0.7392092E+03  0.7818608E-02  0.9862257E-01
          2   -1    0    0  501    0  0.00000000000E+00  0.00000000000E+00  0.12427060414E+04  0.12427060414E+04  0.25500000000E-02 0. -1.
         -2   -1    0    0    0  501 -0.00000000000E+00 -0.00000000000E+00 -0.83549632543E+03  0.83549632543E+03  0.25500000000E-02 0.  1.
    8880023    1    1    2    0    0 -0.27059593035E+03 -0.19848890320E+03  0.10812982303E+04  0.13098229160E+04  0.65864270000E+03 0. -1.
    8880022    1    1    2    0    0  0.27059593035E+03  0.19848890320E+03 -0.67408851435E+03  0.76837945080E+03  0.15294330000E+03 0.  0.
<mgrwt>
<rscale>  0 0.62125876E+03</rscale>
<asrwt>0</asrwt>
<pdfrwt beam="1">  1        2 0.19118554E+00 0.73920918E+03</pdfrwt>
<pdfrwt beam="2">  1       -2 0.12853790E+00 0.73920918E+03</pdfrwt>
<totfact> 0.81614439E+00</totfact>
</mgrwt>
</event>
<event>
 4    2  0.2930016E-007  0.6695353E+03  0.7818608E-02  0.1015998E+00
          2   -1    0    0  501    0  0.00000000000E+00  0.00000000000E+00  0.13067579627E+04  0.13067579627E+04  0.25500000000E-02 0. -1.
         -2   -1    0    0    0  501 -0.00000000000E+00 -0.00000000000E+00 -0.61366505285E+03  0.61366505285E+03  0.25500000000E-02 0.  1.
    8880023    1    1    2    0    0  0.20578444439E+02 -0.11850671480E+03  0.12018311759E+04  0.13757455053E+04  0.65864270000E+03 0. -1.
    8880022    1    1    2    0    0 -0.20578444439E+02  0.11850671480E+03 -0.50873826602E+03  0.54467751024E+03  0.15294330000E+03 0.  0.
<mgrwt>
<rscale>  0 0.49158792E+03</rscale>
<asrwt>0</asrwt>
<pdfrwt beam="1">  1        2 0.20103969E+00 0.66953530E+03</pdfrwt>
<pdfrwt beam="2">  1       -2 0.94410008E-01 0.66953530E+03</pdfrwt>
<totfact> 0.15979571E+01</totfact>
</mgrwt>
</event>
<event>
 4    2  0.2930016E-007  0.7487159E+03  0.7818608E-02  0.9835249E-01
          2   -1    0    0  501    0  0.00000000000E+00  0.00000000000E+00  0.10220429627E+04  0.10220429627E+04  0.25500000000E-02 0. -1.
         -2   -1    0    0    0  501 -0.00000000000E+00 -0.00000000000E+00 -0.53824995609E+03  0.53824995610E+03  0.25500000000E-02 0.  1.
    8880023    1    1    2    0    0  0.69522162558E+01 -0.35597323565E+03  0.77346631333E+03  0.10764876320E+04  0.65864270000E+03 0. -1.
    8880022    1    1    2    0    0 -0.69522162558E+01  0.35597323565E+03 -0.28967330676E+03  0.48380528674E+03  0.15294330000E+03 0.  0.
<mgrwt>
<rscale>  0 0.63504713E+03</rscale>
<asrwt>0</asrwt>
<pdfrwt beam="1">  1        2 0.15723738E+00 0.74871589E+03</pdfrwt>
<pdfrwt beam="2">  1       -2 0.82807687E-01 0.74871589E+03</pdfrwt>
<totfact> 0.31690056E+01</totfact>
</mgrwt>
</event>
<event>
 4    2  0.2930016E-007  0.6717722E+03  0.7818608E-02  0.1014423E+00
         -2   -1    0    0    0  501 -0.00000000000E+00  0.00000000000E+00  0.23506836120E+03  0.23506836122E+03  0.25500000000E-02 0.  1.
          2   -1    0    0  501    0  0.00000000000E+00 -0.00000000000E+00 -0.10631571738E+04  0.10631571739E+04  0.25500000000E-02 0. -1.
    8880023    1    1    2    0    0  0.93619871016E+02  0.93290090416E+02 -0.86243269321E+03  0.10931916931E+04  0.65864270000E+03 0. -1.
    8880022    1    1    2    0    0 -0.93619871016E+02 -0.93290090416E+02  0.34343880560E+02  0.20503384200E+03  0.15294330000E+03 0.  0.
<mgrwt>
<rscale>  0 0.49754000E+03</rscale>
<asrwt>0</asrwt>
<pdfrwt beam="1">  1        2 0.16356264E+00 0.67177223E+03</pdfrwt>
<pdfrwt beam="2">  1       -2 0.36164364E-01 0.67177223E+03</pdfrwt>
<totfact> 0.16800524E+02</totfact>
</mgrwt>
</event>
<event>
 4    2  0.3070705E-007  0.9435346E+03  0.7818608E-02  0.9459478E-01
          2   -1    0    0  501    0  0.00000000000E+00  0.00000000000E+00  0.15067934878E+04  0.15067934879E+04  0.25500000000E-02 0. -1.
         -2   -1    0    0    0  501 -0.00000000000E+00 -0.00000000000E+00 -0.15053063215E+04  0.15053063215E+04  0.25500000000E-02 0.  1.
    8880023    1    1    2    0    0 -0.29493207016E+03  0.60783412335E+03  0.12608484247E+04  0.15748003696E+04  0.65864270000E+03 0. -1.
    8880022    1    1    2    0    0  0.29493207016E+03 -0.60783412335E+03 -0.12593612584E+04  0.14372994398E+04  0.15294330000E+03 0.  0.
<mgrwt>
<rscale>  0 0.87338411E+03</rscale>
<asrwt>0</asrwt>
<pdfrwt beam="1">  1        2 0.23181438E+00 0.94353455E+03</pdfrwt>
<pdfrwt beam="2">  1       -2 0.23158559E+00 0.94353455E+03</pdfrwt>
<totfact> 0.10562532E+00</totfact>
</mgrwt>
</event>
<event>
 4    2  0.2930016E-007  0.6773030E+03  0.7818608E-02  0.1010892E+00
         -2   -1    0    0    0  501 -0.00000000000E+00  0.00000000000E+00  0.16687548826E+03  0.16687548828E+03  0.25500000000E-02 0.  1.
          2   -1    0    0  501    0  0.00000000000E+00 -0.00000000000E+00 -0.18427279060E+04  0.18427279060E+04  0.25500000000E-02 0. -1.
    8880023    1    1    2    0    0 -0.57822266447E+01 -0.15778361194E+03 -0.16556814205E+04  0.17888600490E+04  0.65864270000E+03 0. -1.
    8880022    1    1    2    0    0  0.57822266447E+01  0.15778361194E+03 -0.20170997210E+02  0.22074334528E+03  0.15294330000E+03 0.  0.
<mgrwt>
<rscale>  0 0.51121542E+03</rscale>
<asrwt>0</asrwt>
<pdfrwt beam="1">  1        2 0.28349659E+00 0.67730297E+03</pdfrwt>
<pdfrwt beam="2">  1       -2 0.25673153E-01 0.67730297E+03</pdfrwt>
<totfact> 0.11498347E+02</totfact>
</mgrwt>
</event>
<event>
 4    2  0.2930016E-007  0.6896578E+03  0.7818608E-02  0.1004316E+00
         -2   -1    0    0    0  501 -0.00000000000E+00  0.00000000000E+00  0.64881547950E+02  0.64881548000E+02  0.25500000000E-02 0.  1.
          2   -1    0    0  501    0  0.00000000000E+00 -0.00000000000E+00 -0.35704540311E+04  0.35704540311E+04  0.25500000000E-02 0. -1.
    8880023    1    1    2    0    0 -0.19175804043E+03  0.71038767241E+02 -0.28378622694E+04  0.29204606005E+04  0.65864270000E+03 0. -1.
    8880022    1    1    2    0    0  0.19175804043E+03 -0.71038767241E+02 -0.66771021378E+03  0.71487497867E+03  0.15294330000E+03 0.  1.
<mgrwt>
<rscale>  0 0.53797727E+03</rscale>
<asrwt>0</asrwt>
<pdfrwt beam="1">  1        2 0.54930047E+00 0.68965778E+03</pdfrwt>
<pdfrwt beam="2">  1       -2 0.99817794E-02 0.68965778E+03</pdfrwt>
<totfact> 0.54374842E+01</totfact>
</mgrwt>
</event>
<event>
 4    2  0.2930016E-007  0.8972014E+03  0.7818608E-02  0.9530539E-01
          2   -1    0    0  501    0  0.00000000000E+00  0.00000000000E+00  0.22713536891E+04  0.22713536891E+04  0.25500000000E-02 0. -1.
         -2   -1    0    0    0  501 -0.00000000000E+00 -0.00000000000E+00 -0.41510314085E+03  0.41510314086E+03  0.25500000000E-02 0.  1.
    8880023    1    1    2    0    0 -0.26773595291E+03 -0.54724550859E+03  0.18524787284E+04  0.20583118891E+04  0.65864270000E+03 0.  0.
    8880022    1    1    2    0    0  0.26773595291E+03  0.54724550859E+03  0.37718198419E+01  0.62814494091E+03  0.15294330000E+03 0.  0.
<mgrwt>
<rscale>  0 0.82069252E+03</rscale>
<asrwt>0</asrwt>
<pdfrwt beam="1">  1        2 0.34943902E+00 0.89720142E+03</pdfrwt>
<pdfrwt beam="2">  1       -2 0.63862023E-01 0.89720142E+03</pdfrwt>
<totfact> 0.10888648E+01</totfact>
</mgrwt>
</event>
<event>
 4    2  0.2930016E-007  0.6615571E+03  0.7818608E-02  0.1022615E+00
          2   -1    0    0  501    0  0.00000000000E+00  0.00000000000E+00  0.36256536654E+04  0.36256536654E+04  0.25500000000E-02 0. -1.
         -2   -1    0    0    0  501 -0.00000000000E+00 -0.00000000000E+00 -0.66083419632E+02  0.66083419681E+02  0.25500000000E-02 0.  1.
    8880023    1    1    2    0    0  0.59300804514E+02  0.18193544658E+02  0.33943056629E+04  0.34581741903E+04  0.65864270000E+03 0.  0.
    8880022    1    1    2    0    0 -0.59300804514E+02 -0.18193544658E+02  0.16526458283E+03  0.23356289482E+03  0.15294330000E+03 0.  0.
<mgrwt>
<rscale>  0 0.46754658E+03</rscale>
<asrwt>0</asrwt>
<pdfrwt beam="1">  1        2 0.55779297E+00 0.66155710E+03</pdfrwt>
<pdfrwt beam="2">  1       -2 0.10166678E-01 0.66155710E+03</pdfrwt>
<totfact> 0.48534872E+01</totfact>
</mgrwt>
</event>
<event>
 4    2  0.3762788E-007  0.9027501E+03  0.7818608E-02  0.9521631E-01
          2   -1    0    0  501    0  0.00000000000E+00  0.00000000000E+00  0.14079649393E+04  0.14079649393E+04  0.25500000000E-02 0. -1.
         -2   -1    0    0    0  501 -0.00000000000E+00 -0.00000000000E+00 -0.10963163241E+04  0.10963163241E+04  0.25500000000E-02 0.  1.
    8880023    1    1    2    0    0 -0.61542041562E+03  0.49043452942E+02  0.11436502592E+04  0.14570153293E+04  0.65864270000E+03 0.  0.
    8880022    1    1    2    0    0  0.61542041562E+03 -0.49043452942E+02 -0.83200164391E+03  0.10472659341E+04  0.15294330000E+03 0.  0.
<mgrwt>
<rscale>  0 0.82707661E+03</rscale>
<asrwt>0</asrwt>
<pdfrwt beam="1">  1        2 0.21660999E+00 0.90275011E+03</pdfrwt>
<pdfrwt beam="2">  1       -2 0.16866405E+00 0.90275011E+03</pdfrwt>
<totfact> 0.31324822E+00</totfact>
</mgrwt>
</event>
<event>
 4    2  0.2930016E-007  0.1104247E+04  0.7818608E-02  0.9256343E-01
         -2   -1    0    0    0  501 -0.00000000000E+00  0.00000000000E+00  0.59005573153E+03  0.59005573154E+03  0.25500000000E-02 0.  1.
          2   -1    0    0  501    0  0.00000000000E+00 -0.00000000000E+00 -0.36515646430E+04  0.36515646430E+04  0.25500000000E-02 0. -1.
    8880023    1    1    2    0    0  0.73926714302E+02  0.88322427820E+03 -0.31499261611E+04  0.33378728723E+04  0.65864270000E+03 0.  0.
    8880022    1    1    2    0    0 -0.73926714302E+02 -0.88322427820E+03  0.88417249707E+02  0.90374750221E+03  0.15294330000E+03 0.  0.
<mgrwt>
<rscale>  0 0.10490332E+04</rscale>
<asrwt>0</asrwt>
<pdfrwt beam="1">  1        2 0.56177916E+00 0.11042466E+04</pdfrwt>
<pdfrwt beam="2">  1       -2 0.90777807E-01 0.11042466E+04</pdfrwt>
<totfact> 0.66987078E-01</totfact>
</mgrwt>
</event>
<event>
 4    2  0.2930016E-007  0.6730042E+03  0.7818608E-02  0.1013595E+00
          2   -1    0    0  501    0  0.00000000000E+00  0.00000000000E+00  0.22290913063E+04  0.22290913063E+04  0.25500000000E-02 0. -1.
         -2   -1    0    0    0  501 -0.00000000000E+00 -0.00000000000E+00 -0.20416856810E+03  0.20416856812E+03  0.25500000000E-02 0.  1.
    8880023    1    1    2    0    0  0.68797001168E+02  0.11996424308E+03  0.21065890414E+04  0.22114818658E+04  0.65864270000E+03 0. -1.
    8880022    1    1    2    0    0 -0.68797001168E+02 -0.11996424308E+03 -0.81666303270E+02  0.22177800859E+03  0.15294330000E+03 0.  0.
<mgrwt>
<rscale>  0 0.50070567E+03</rscale>
<asrwt>0</asrwt>
<pdfrwt beam="1">  1        2 0.34293714E+00 0.67300420E+03</pdfrwt>
<pdfrwt beam="2">  1       -2 0.31410548E-01 0.67300420E+03</pdfrwt>
<totfact> 0.48894490E+01</totfact>
</mgrwt>
</event>
<event>
 4    2  0.2930016E-007  0.7123966E+03  0.7818608E-02  0.9949207E-01
         -2   -1    0    0    0  501 -0.00000000000E+00  0.00000000000E+00  0.49557495044E+03  0.49557495045E+03  0.25500000000E-02 0.  1.
          2   -1    0    0  501    0  0.00000000000E+00 -0.00000000000E+00 -0.89635352071E+03  0.89635352071E+03  0.25500000000E-02 0. -1.
    8880023    1    1    2    0    0 -0.18931617131E+03 -0.19457156356E+03 -0.67162440094E+03  0.97907520052E+03  0.65864270000E+03 0. -1.
    8880022    1    1    2    0    0  0.18931617131E+03  0.19457156356E+03  0.27084583068E+03  0.41285327064E+03  0.15294330000E+03 0.  0.
<mgrwt>
<rscale>  0 0.57934650E+03</rscale>
<asrwt>0</asrwt>
<pdfrwt beam="1">  1        2 0.13790054E+00 0.71239660E+03</pdfrwt>
<pdfrwt beam="2">  1       -2 0.76242300E-01 0.71239660E+03</pdfrwt>
<totfact> 0.46211784E+01</totfact>
</mgrwt>
</event>
<event>
 4    2  0.2930016E-007  0.7605144E+03  0.7818608E-02  0.9803777E-01
         -2   -1    0    0    0  501 -0.00000000000E+00  0.00000000000E+00  0.55979232854E+03  0.55979232855E+03  0.25500000000E-02 0.  1.
          2   -1    0    0  501    0  0.00000000000E+00 -0.00000000000E+00 -0.12984065750E+04  0.12984065750E+04  0.25500000000E-02 0. -1.
    8880023    1    1    2    0    0  0.32308142141E+03  0.20047546946E+03 -0.10826749813E+04  0.13230900725E+04  0.65864270000E+03 0. -1.
    8880022    1    1    2    0    0 -0.32308142141E+03 -0.20047546946E+03  0.34406073484E+03  0.53510883098E+03  0.15294330000E+03 0.  0.
<mgrwt>
<rscale>  0 0.65160217E+03</rscale>
<asrwt>0</asrwt>
<pdfrwt beam="1">  1        2 0.19975486E+00 0.76051445E+03</pdfrwt>
<pdfrwt beam="2">  1       -2 0.86121897E-01 0.76051445E+03</pdfrwt>
<totfact> 0.19748118E+01</totfact>
</mgrwt>
</event>
<event>
 4    2  0.2930016E-007  0.1120030E+04  0.7818608E-02  0.9239077E-01
          2   -1    0    0  501    0  0.00000000000E+00  0.00000000000E+00  0.21629922469E+04  0.21629922469E+04  0.25500000000E-02 0. -1.
         -2   -1    0    0    0  501 -0.00000000000E+00 -0.00000000000E+00 -0.72801711751E+03  0.72801711752E+03  0.25500000000E-02 0.  1.
    8880023    1    1    2    0    0 -0.62109537728E+03 -0.65946716210E+03 -0.76048784088E+02  0.11226085824E+04  0.65864270000E+03 0. -1.
    8880022    1    1    2    0    0  0.62109537728E+03  0.65946716210E+03  0.15110239135E+04  0.17684007819E+04  0.15294330000E+03 0.  0.
<mgrwt>
<rscale>  0 0.10659039E+04</rscale>
<asrwt>0</asrwt>
<pdfrwt beam="1">  1        2 0.33276802E+00 0.11200297E+04</pdfrwt>
<pdfrwt beam="2">  1       -2 0.11200264E+00 0.11200297E+04</pdfrwt>
<totfact> 0.33632085E+00</totfact>
</mgrwt>
</event>
<event>
 4    2  0.2930016E-007  0.6727509E+03  0.7818608E-02  0.1013763E+00
          2   -1    0    0  501    0  0.00000000000E+00  0.00000000000E+00  0.87178491444E+03  0.87178491445E+03  0.25500000000E-02 0. -1.
         -2   -1    0    0    0  501 -0.00000000000E+00 -0.00000000000E+00 -0.32914644310E+03  0.32914644311E+03  0.25500000000E-02 0.  1.
    8880023    1    1    2    0    0 -0.72456585346E+02 -0.11633420309E+03  0.67786951483E+03  0.95503973162E+03  0.65864270000E+03 0.  0.
    8880022    1    1    2    0    0  0.72456585346E+02  0.11633420309E+03 -0.13523104348E+03  0.24589162594E+03  0.15294330000E+03 0.  0.
<mgrwt>
<rscale>  0 0.50006095E+03</rscale>
<asrwt>0</asrwt>
<pdfrwt beam="1">  1        2 0.13412076E+00 0.67275093E+03</pdfrwt>
<pdfrwt beam="2">  1       -2 0.50637914E-01 0.67275093E+03</pdfrwt>
<totfact> 0.11502759E+02</totfact>
</mgrwt>
</event>
<event>
 4    2  0.2930016E-007  0.1233558E+04  0.7818608E-02  0.9125172E-01
          2   -1    0    0  501    0  0.00000000000E+00  0.00000000000E+00  0.96444696427E+03  0.96444696427E+03  0.25500000000E-02 0. -1.
         -2   -1    0    0    0  501 -0.00000000000E+00 -0.00000000000E+00 -0.16262442009E+04  0.16262442009E+04  0.25500000000E-02 0.  1.
    8880023    1    1    2    0    0 -0.19760217526E+03 -0.10241139219E+04  0.17351577252E+03  0.12457021611E+04  0.65864270000E+03 0.  0.
    8880022    1    1    2    0    0  0.19760217526E+03  0.10241139219E+04 -0.83531300916E+03  0.13449890040E+04  0.15294330000E+03 0.  0.
<mgrwt>
<rscale>  0 0.11860312E+04</rscale>
<asrwt>0</asrwt>
<pdfrwt beam="1">  1        2 0.14837646E+00 0.12335583E+04</pdfrwt>
<pdfrwt beam="2">  1       -2 0.25019142E+00 0.12335583E+04</pdfrwt>
<totfact> 0.16534498E+00</totfact>
</mgrwt>
</event>
<event>
 4    2  0.2930016E-007  0.6675906E+03  0.7818608E-02  0.1017452E+00
         -2   -1    0    0    0  501 -0.00000000000E+00  0.00000000000E+00  0.24171360765E+03  0.24171360766E+03  0.25500000000E-02 0.  1.
          2   -1    0    0  501    0  0.00000000000E+00 -0.00000000000E+00 -0.77977493492E+03  0.77977493492E+03  0.25500000000E-02 0. -1.
    8880023    1    1    2    0    0 -0.57496735109E+01 -0.10878374708E+03 -0.34230294451E+03  0.75023228034E+03  0.65864270000E+03 0.  0.
    8880022    1    1    2    0    0  0.57496735109E+01  0.10878374708E+03 -0.19575838276E+03  0.27125626225E+03  0.15294330000E+03 0. -1.
<mgrwt>
<rscale>  0 0.48617296E+03</rscale>
<asrwt>0</asrwt>
<pdfrwt beam="1">  1        2 0.11996537E+00 0.66759057E+03</pdfrwt>
<pdfrwt beam="2">  1       -2 0.37186709E-01 0.66759057E+03</pdfrwt>
<totfact> 0.24597338E+02</totfact>
</mgrwt>
</event>
<event>
 4    2  0.2930016E-007  0.6650061E+03  0.7818608E-02  0.1019528E+00
         -2   -1    0    0    0  501 -0.00000000000E+00  0.00000000000E+00  0.12864840716E+04  0.12864840716E+04  0.25500000000E-02 0.  1.
          2   -1    0    0  501    0  0.00000000000E+00 -0.00000000000E+00 -0.35317185427E+03  0.35317185428E+03  0.25500000000E-02 0. -1.
    8880023    1    1    2    0    0  0.79677000882E+02  0.45546706795E+02 -0.24421591866E+02  0.66545439166E+03  0.65864270000E+03 0. -1.
    8880022    1    1    2    0    0 -0.79677000882E+02 -0.45546706795E+02  0.95773380918E+03  0.97420153420E+03  0.15294330000E+03 0.  0.
<mgrwt>
<rscale>  0 0.47857224E+03</rscale>
<asrwt>0</asrwt>
<pdfrwt beam="1">  1        2 0.54334132E-01 0.66500612E+03</pdfrwt>
<pdfrwt beam="2">  1       -2 0.19792062E+00 0.66500612E+03</pdfrwt>
<totfact> 0.12890613E+01</totfact>
</mgrwt>
</event>
<event>
 4    2  0.2930016E-007  0.6750494E+03  0.7818608E-02  0.1012275E+00
         -2   -1    0    0    0  501 -0.00000000000E+00  0.00000000000E+00  0.32120302494E+03  0.32120302495E+03  0.25500000000E-02 0.  1.
          2   -1    0    0  501    0  0.00000000000E+00 -0.00000000000E+00 -0.15575406048E+04  0.15575406048E+04  0.25500000000E-02 0. -1.
    8880023    1    1    2    0    0  0.14733112048E+03 -0.13227839374E+02 -0.14361292098E+04  0.15868707409E+04  0.65864270000E+03 0. -1.
    8880022    1    1    2    0    0 -0.14733112048E+03  0.13227839374E+02  0.19979162999E+03  0.29187288881E+03  0.15294330000E+03 0.  0.
<mgrwt>
<rscale>  0 0.50580331E+03</rscale>
<asrwt>0</asrwt>
<pdfrwt beam="1">  1        2 0.23962163E+00 0.67504936E+03</pdfrwt>
<pdfrwt beam="2">  1       -2 0.49415851E-01 0.67504936E+03</pdfrwt>
<totfact> 0.47105383E+01</totfact>
</mgrwt>
</event>
<event>
 4    2  0.2930016E-007  0.6892909E+03  0.7818608E-02  0.1004491E+00
         -2   -1    0    0    0  501 -0.00000000000E+00  0.00000000000E+00  0.93579186071E+02  0.93579186105E+02  0.25500000000E-02 0.  1.
          2   -1    0    0  501    0  0.00000000000E+00 -0.00000000000E+00 -0.23793122342E+04  0.23793122342E+04  0.25500000000E-02 0. -1.
    8880023    1    1    2    0    0  0.20298872764E+03 -0.10356157483E+02 -0.16824479939E+04  0.18181730203E+04  0.65864270000E+03 0.  0.
    8880022    1    1    2    0    0 -0.20298872764E+03  0.10356157483E+02 -0.60328505423E+03  0.65471839994E+03  0.15294330000E+03 0.  1.
<mgrwt>
<rscale>  0 0.53723922E+03</rscale>
<asrwt>0</asrwt>
<pdfrwt beam="1">  1        2 0.36604799E+00 0.68929085E+03</pdfrwt>
<pdfrwt beam="2">  1       -2 0.14396800E-01 0.68929085E+03</pdfrwt>
<totfact> 0.15970073E+02</totfact>
</mgrwt>
</event>
<event>
 4    2  0.2930016E-007  0.8635724E+03  0.7818608E-02  0.9587240E-01
         -2   -1    0    0    0  501 -0.00000000000E+00  0.00000000000E+00  0.14173957686E+04  0.14173957686E+04  0.25500000000E-02 0.  1.
          2   -1    0    0  501    0  0.00000000000E+00 -0.00000000000E+00 -0.14462082268E+04  0.14462082268E+04  0.25500000000E-02 0. -1.
    8880023    1    1    2    0    0 -0.47275450046E+03 -0.29740592132E+03  0.12155597025E+04  0.14910877561E+04  0.65864270000E+03 0.  0.
    8880022    1    1    2    0    0  0.47275450046E+03  0.29740592132E+03 -0.12443721608E+04  0.13725162393E+04  0.15294330000E+03 0.  0.
<mgrwt>
<rscale>  0 0.78146501E+03</rscale>
<asrwt>0</asrwt>
<pdfrwt beam="1">  1        2 0.22249357E+00 0.86357241E+03</pdfrwt>
<pdfrwt beam="2">  1       -2 0.21806089E+00 0.86357241E+03</pdfrwt>
<totfact> 0.14048239E+00</totfact>
</mgrwt>
</event>
<event>
 4    2  0.4403694E-007  0.7262341E+03  0.7818608E-02  0.9902030E-01
         -2   -1    0    0    0  501 -0.00000000000E+00  0.00000000000E+00  0.13489059839E+04  0.13489059839E+04  0.25500000000E-02 0.  1.
          2   -1    0    0  501    0  0.00000000000E+00 -0.00000000000E+00 -0.15153614517E+04  0.15153614517E+04  0.25500000000E-02 0. -1.
    8880023    1    1    2    0    0 -0.10551725332E+03  0.28717908845E+03 -0.14037930116E+04  0.15805223014E+04  0.65864270000E+03 0. -1.
    8880022    1    1    2    0    0  0.10551725332E+03 -0.28717908845E+03  0.12373375437E+04  0.12837451343E+04  0.15294330000E+03 0.  0.
<mgrwt>
<rscale>  0 0.60162999E+03</rscale>
<asrwt>0</asrwt>
<pdfrwt beam="1">  1        2 0.23313253E+00 0.72623407E+03</pdfrwt>
<pdfrwt beam="2">  1       -2 0.20752400E+00 0.72623407E+03</pdfrwt>
<totfact> 0.15350773E+00</totfact>
</mgrwt>
</event>
<event>
 4    2  0.2930016E-007  0.7833177E+03  0.7818608E-02  0.9748101E-01
          2   -1    0    0  501    0  0.00000000000E+00  0.00000000000E+00  0.32610510530E+04  0.32610510530E+04  0.25500000000E-02 0. -1.
         -2   -1    0    0    0  501 -0.00000000000E+00 -0.00000000000E+00 -0.12325261973E+03  0.12325261976E+03  0.25500000000E-02 0.  1.
    8880023    1    1    2    0    0 -0.47966124367E+02 -0.42127852246E+03  0.23444894716E+04  0.24718854001E+04  0.65864270000E+03 0.  0.
    8880022    1    1    2    0    0  0.47966124367E+02  0.42127852246E+03  0.79330896164E+03  0.91241827262E+03  0.15294330000E+03 0.  1.
<mgrwt>
<rscale>  0 0.68223712E+03</rscale>
<asrwt>0</asrwt>
<pdfrwt beam="1">  1        2 0.50170003E+00 0.78331766E+03</pdfrwt>
<pdfrwt beam="2">  1       -2 0.18961946E-01 0.78331766E+03</pdfrwt>
<totfact> 0.29378546E+01</totfact>
</mgrwt>
</event>
<event>
 4    2  0.2930016E-007  0.1023119E+04  0.7818608E-02  0.9351917E-01
         -2   -1    0    0    0  501 -0.00000000000E+00  0.00000000000E+00  0.12568504783E+04  0.12568504783E+04  0.25500000000E-02 0.  1.
          2   -1    0    0  501    0  0.00000000000E+00 -0.00000000000E+00 -0.11163040556E+04  0.11163040556E+04  0.25500000000E-02 0. -1.
    8880023    1    1    2    0    0  0.61867772099E+03  0.47979161207E+03 -0.68021350843E+03  0.12286019440E+04  0.65864270000E+03 0.  0.
    8880022    1    1    2    0    0 -0.61867772099E+03 -0.47979161207E+03  0.82075993118E+03  0.11445525899E+04  0.15294330000E+03 0.  0.
<mgrwt>
<rscale>  0 0.96140619E+03</rscale>
<asrwt>0</asrwt>
<pdfrwt beam="1">  1        2 0.17173909E+00 0.10231189E+04</pdfrwt>
<pdfrwt beam="2">  1       -2 0.19336161E+00 0.10231189E+04</pdfrwt>
<totfact> 0.30992611E+00</totfact>
</mgrwt>
</event>
<event>
 4    2  0.2930016E-007  0.7040733E+03  0.7818608E-02  0.9980705E-01
         -2   -1    0    0    0  501 -0.00000000000E+00  0.00000000000E+00  0.26030757336E+03  0.26030757337E+03  0.25500000000E-02 0.  1.
          2   -1    0    0  501    0  0.00000000000E+00 -0.00000000000E+00 -0.23825500767E+04  0.23825500767E+04  0.25500000000E-02 0. -1.
    8880023    1    1    2    0    0  0.24147470553E+03  0.59991335056E+02 -0.22246147100E+04  0.23333730537E+04  0.65864270000E+03 0. -1.
    8880022    1    1    2    0    0 -0.24147470553E+03 -0.59991335056E+02  0.10237220661E+03  0.30948459638E+03  0.15294330000E+03 0.  0.
<mgrwt>
<rscale>  0 0.56504423E+03</rscale>
<asrwt>0</asrwt>
<pdfrwt beam="1">  1        2 0.36654615E+00 0.70407329E+03</pdfrwt>
<pdfrwt beam="2">  1       -2 0.40047321E-01 0.70407329E+03</pdfrwt>
<totfact> 0.25177675E+01</totfact>
</mgrwt>
</event>
<event>
 4    2  0.2930016E-007  0.9307342E+03  0.7818608E-02  0.9478393E-01
          2   -1    0    0  501    0  0.00000000000E+00  0.00000000000E+00  0.32712782084E+04  0.32712782084E+04  0.25500000000E-02 0. -1.
         -2   -1    0    0    0  501 -0.00000000000E+00 -0.00000000000E+00 -0.83832078941E+03  0.83832078942E+03  0.25500000000E-02 0.  1.
    8880023    1    1    2    0    0  0.11872647177E+03 -0.64680749185E+03  0.30537349157E+04  0.31924227552E+04  0.65864270000E+03 0.  0.
    8880022    1    1    2    0    0 -0.11872647177E+03  0.64680749185E+03 -0.62077749667E+03  0.91717624261E+03  0.15294330000E+03 0.  0.
<mgrwt>
<rscale>  0 0.85895755E+03</rscale>
<asrwt>0</asrwt>
<pdfrwt beam="1">  1        2 0.50327357E+00 0.93073418E+03</pdfrwt>
<pdfrwt beam="2">  1       -2 0.12897243E+00 0.93073418E+03</pdfrwt>
<totfact> 0.53539797E-01</totfact>
</mgrwt>
</event>
<event>
 4    2  0.3370651E-007  0.6766098E+03  0.7818608E-02  0.1011310E+00
          2   -1    0    0  501    0  0.00000000000E+00  0.00000000000E+00  0.22063138976E+04  0.22063138976E+04  0.25500000000E-02 0. -1.
         -2   -1    0    0    0  501 -0.00000000000E+00 -0.00000000000E+00 -0.73400796919E+03  0.73400796920E+03  0.25500000000E-02 0.  1.
    8880023    1    1    2    0    0 -0.11998010884E+03  0.97956168516E+02  0.21366522196E+04  0.22412236727E+04  0.65864270000E+03 0. -1.
    8880022    1    1    2    0    0  0.11998010884E+03 -0.97956168516E+02 -0.66434629113E+03  0.69909819412E+03  0.15294330000E+03 0.  0.
<mgrwt>
<rscale>  0 0.50957220E+03</rscale>
<asrwt>0</asrwt>
<pdfrwt beam="1">  1        2 0.33943291E+00 0.67660982E+03</pdfrwt>
<pdfrwt beam="2">  1       -2 0.11292430E+00 0.67660982E+03</pdfrwt>
<totfact> 0.33355133E+00</totfact>
</mgrwt>
</event>
<event>
 4    2  0.2930016E-007  0.1045439E+04  0.7818608E-02  0.9324384E-01
         -2   -1    0    0    0  501 -0.00000000000E+00  0.00000000000E+00  0.16175807509E+04  0.16175807509E+04  0.25500000000E-02 0.  1.
          2   -1    0    0  501    0  0.00000000000E+00 -0.00000000000E+00 -0.54179064591E+03  0.54179064592E+03  0.25500000000E-02 0. -1.
    8880023    1    1    2    0    0  0.53296882773E+02  0.81011909130E+03  0.63068433674E+03  0.12209448958E+04  0.65864270000E+03 0.  1.
    8880022    1    1    2    0    0 -0.53296882773E+02 -0.81011909130E+03  0.44510576826E+03  0.93842650099E+03  0.15294330000E+03 0. -1.
<mgrwt>
<rscale>  0 0.98568695E+03</rscale>
<asrwt>0</asrwt>
<pdfrwt beam="1">  1        2 0.83352407E-01 0.10454395E+04</pdfrwt>
<pdfrwt beam="2">  1       -2 0.24885858E+00 0.10454395E+04</pdfrwt>
<totfact> 0.36414927E+00</totfact>
</mgrwt>
</event>
<event>
 4    2  0.2930016E-007  0.7866914E+03  0.7818608E-02  0.9740347E-01
          2   -1    0    0  501    0  0.00000000000E+00  0.00000000000E+00  0.93980910914E+03  0.93980910914E+03  0.25500000000E-02 0. -1.
         -2   -1    0    0    0  501 -0.00000000000E+00 -0.00000000000E+00 -0.50894452825E+03  0.50894452826E+03  0.25500000000E-02 0.  1.
    8880023    1    1    2    0    0 -0.45879728982E+02  0.42774773990E+03  0.56995451132E+03  0.97145840352E+03  0.65864270000E+03 0.  0.
    8880022    1    1    2    0    0  0.45879728982E+02 -0.42774773990E+03 -0.13908993044E+03  0.47729523388E+03  0.15294330000E+03 0.  0.
<mgrwt>
<rscale>  0 0.68664515E+03</rscale>
<asrwt>0</asrwt>
<pdfrwt beam="1">  1        2 0.14458602E+00 0.78669135E+03</pdfrwt>
<pdfrwt beam="2">  1       -2 0.78299158E-01 0.78669135E+03</pdfrwt>
<totfact> 0.40478859E+01</totfact>
</mgrwt>
</event>
<event>
 4    2  0.2930016E-007  0.7545135E+03  0.7818608E-02  0.9819524E-01
          2   -1    0    0  501    0  0.00000000000E+00  0.00000000000E+00  0.17085498933E+04  0.17085498933E+04  0.25500000000E-02 0. -1.
         -2   -1    0    0    0  501 -0.00000000000E+00 -0.00000000000E+00 -0.20364169722E+03  0.20364169723E+03  0.25500000000E-02 0.  1.
    8880023    1    1    2    0    0 -0.28896106286E+03  0.22799558720E+03  0.11668803463E+04  0.13895684339E+04  0.65864270000E+03 0. -1.
    8880022    1    1    2    0    0  0.28896106286E+03 -0.22799558720E+03  0.33802784983E+03  0.52262315669E+03  0.15294330000E+03 0.  0.
<mgrwt>
<rscale>  0 0.64325215E+03</rscale>
<asrwt>0</asrwt>
<pdfrwt beam="1">  1        2 0.26285383E+00 0.75451355E+03</pdfrwt>
<pdfrwt beam="2">  1       -2 0.31329492E-01 0.75451355E+03</pdfrwt>
<totfact> 0.93613530E+01</totfact>
</mgrwt>
</event>
<event>
 4    2  0.2930016E-007  0.6705813E+03  0.7818608E-02  0.1015250E+00
         -2   -1    0    0    0  501 -0.00000000000E+00  0.00000000000E+00  0.16768514506E+03  0.16768514508E+03  0.25500000000E-02 0.  1.
          2   -1    0    0  501    0  0.00000000000E+00 -0.00000000000E+00 -0.16298726611E+04  0.16298726611E+04  0.25500000000E-02 0. -1.
    8880023    1    1    2    0    0  0.83592064627E+02  0.94241046902E+02 -0.14517469461E+04  0.15991398970E+04  0.65864270000E+03 0. -1.
    8880022    1    1    2    0    0 -0.83592064627E+02 -0.94241046902E+02 -0.10440569928E+02  0.19841790923E+03  0.15294330000E+03 0.  0.
<mgrwt>
<rscale>  0 0.49440546E+03</rscale>
<asrwt>0</asrwt>
<pdfrwt beam="1">  1        2 0.25074963E+00 0.67058125E+03</pdfrwt>
<pdfrwt beam="2">  1       -2 0.25797716E-01 0.67058125E+03</pdfrwt>
<totfact> 0.14896822E+02</totfact>
</mgrwt>
</event>
<event>
 4    2  0.2930016E-007  0.7699165E+03  0.7818608E-02  0.9780080E-01
          2   -1    0    0  501    0  0.00000000000E+00  0.00000000000E+00  0.18054094073E+04  0.18054094073E+04  0.25500000000E-02 0. -1.
         -2   -1    0    0    0  501 -0.00000000000E+00 -0.00000000000E+00 -0.42953601143E+03  0.42953601144E+03  0.25500000000E-02 0.  1.
    8880023    1    1    2    0    0  0.26885191934E+03  0.29441439647E+03  0.15830258984E+04  0.17603245135E+04  0.65864270000E+03 0.  0.
    8880022    1    1    2    0    0 -0.26885191934E+03 -0.29441439647E+03 -0.20715250257E+03  0.47462090526E+03  0.15294330000E+03 0.  0.
<mgrwt>
<rscale>  0 0.66442625E+03</rscale>
<asrwt>0</asrwt>
<pdfrwt beam="1">  1        2 0.27775529E+00 0.76991649E+03</pdfrwt>
<pdfrwt beam="2">  1       -2 0.66082463E-01 0.76991649E+03</pdfrwt>
<totfact> 0.18547129E+01</totfact>
</mgrwt>
</event>
<event>
 4    2  0.2930016E-007  0.9109682E+03  0.7818608E-02  0.9508649E-01
         -2   -1    0    0    0  501 -0.00000000000E+00  0.00000000000E+00  0.95130657457E+03  0.95130657458E+03  0.25500000000E-02 0.  1.
          2   -1    0    0  501    0  0.00000000000E+00 -0.00000000000E+00 -0.91358751828E+03  0.91358751829E+03  0.25500000000E-02 0. -1.
    8880023    1    1    2    0    0 -0.10584155812E+03  0.62036310672E+03 -0.48553647672E+03  0.10322832441E+04  0.65864270000E+03 0.  0.
    8880022    1    1    2    0    0  0.10584155812E+03 -0.62036310672E+03  0.52325553301E+03  0.83261084874E+03  0.15294330000E+03 0.  0.
<mgrwt>
<rscale>  0 0.83649185E+03</rscale>
<asrwt>0</asrwt>
<pdfrwt beam="1">  1        2 0.14055193E+00 0.91096818E+03</pdfrwt>
<pdfrwt beam="2">  1       -2 0.14635486E+00 0.91096818E+03</pdfrwt>
<totfact> 0.91777466E+00</totfact>
</mgrwt>
</event>
<event>
 4    2  0.2930016E-007  0.7417596E+03  0.7818608E-02  0.9854851E-01
         -2   -1    0    0    0  501 -0.00000000000E+00  0.00000000000E+00  0.59356924986E+03  0.59356924987E+03  0.25500000000E-02 0.  1.
          2   -1    0    0  501    0  0.00000000000E+00 -0.00000000000E+00 -0.70070818166E+03  0.70070818166E+03  0.25500000000E-02 0. -1.
    8880023    1    1    2    0    0  0.33959957771E+03  0.32699203804E+02 -0.37806707091E+03  0.83255151641E+03  0.65864270000E+03 0. -1.
    8880022    1    1    2    0    0 -0.33959957771E+03 -0.32699203804E+02  0.27092813912E+03  0.46172591512E+03  0.15294330000E+03 0.  0.
<mgrwt>
<rscale>  0 0.62500202E+03</rscale>
<asrwt>0</asrwt>
<pdfrwt beam="1">  1        2 0.10780126E+00 0.74175961E+03</pdfrwt>
<pdfrwt beam="2">  1       -2 0.91318346E-01 0.74175961E+03</pdfrwt>
<totfact> 0.42389288E+01</totfact>
</mgrwt>
</event>
<event>
 4    2  0.2930016E-007  0.8655426E+03  0.7818608E-02  0.9583779E-01
         -2   -1    0    0    0  501 -0.00000000000E+00  0.00000000000E+00  0.10507258825E+04  0.10507258825E+04  0.25500000000E-02 0.  1.
          2   -1    0    0  501    0  0.00000000000E+00 -0.00000000000E+00 -0.49886351972E+03  0.49886351973E+03  0.25500000000E-02 0. -1.
    8880023    1    1    2    0    0 -0.44473439936E+03  0.34287759733E+03  0.31144736060E+03  0.91987140265E+03  0.65864270000E+03 0.  1.
    8880022    1    1    2    0    0  0.44473439936E+03 -0.34287759733E+03  0.24041500219E+03  0.62971799960E+03  0.15294330000E+03 0. -1.
<mgrwt>
<rscale>  0 0.78379141E+03</rscale>
<asrwt>0</asrwt>
<pdfrwt beam="1">  1        2 0.76748235E-01 0.86554257E+03</pdfrwt>
<pdfrwt beam="2">  1       -2 0.16165013E+00 0.86554257E+03</pdfrwt>
<totfact> 0.15190352E+01</totfact>
</mgrwt>
</event>
<event>
 4    2  0.2930016E-007  0.7245099E+03  0.7818608E-02  0.9907611E-01
         -2   -1    0    0    0  501 -0.00000000000E+00  0.00000000000E+00  0.26174353605E+03  0.26174353606E+03  0.25500000000E-02 0.  1.
          2   -1    0    0  501    0  0.00000000000E+00 -0.00000000000E+00 -0.23499796675E+04  0.23499796675E+04  0.25500000000E-02 0. -1.
    8880023    1    1    2    0    0 -0.24677471163E+03 -0.17380073150E+03 -0.21490836295E+04  0.22679230819E+04  0.65864270000E+03 0. -1.
    8880022    1    1    2    0    0  0.24677471163E+03  0.17380073150E+03  0.60847498117E+02  0.34380012160E+03  0.15294330000E+03 0.  0.
<mgrwt>
<rscale>  0 0.59893832E+03</rscale>
<asrwt>0</asrwt>
<pdfrwt beam="1">  1        2 0.36153532E+00 0.72450994E+03</pdfrwt>
<pdfrwt beam="2">  1       -2 0.40268238E-01 0.72450994E+03</pdfrwt>
<totfact> 0.25892723E+01</totfact>
</mgrwt>
</event>
<event>
 4    2  0.2930016E-007  0.8245850E+03  0.7818608E-02  0.9659962E-01
         -2   -1    0    0    0  501 -0.00000000000E+00  0.00000000000E+00  0.44542250781E+03  0.44542250782E+03  0.25500000000E-02 0.  1.
          2   -1    0    0  501    0  0.00000000000E+00 -0.00000000000E+00 -0.18563492791E+04  0.18563492791E+04  0.25500000000E-02 0. -1.
    8880023    1    1    2    0    0  0.63782236962E+02 -0.49199798679E+03 -0.28499696380E+02  0.82507734893E+03  0.65864270000E+03 0.  0.
    8880022    1    1    2    0    0 -0.63782236962E+02  0.49199798679E+03 -0.13824270749E+04  0.14766944380E+04  0.15294330000E+03 0.  0.
<mgrwt>
<rscale>  0 0.73451524E+03</rscale>
<asrwt>0</asrwt>
<pdfrwt beam="1">  1        2 0.28559219E+00 0.82458499E+03</pdfrwt>
<pdfrwt beam="2">  1       -2 0.68526541E-01 0.82458499E+03</pdfrwt>
<totfact> 0.15968183E+01</totfact>
</mgrwt>
</event>
<event>
 4    2  0.2930016E-007  0.1591193E+04  0.7818608E-02  0.8847789E-01
          2   -1    0    0  501    0  0.00000000000E+00  0.00000000000E+00  0.30343994314E+04  0.30343994314E+04  0.25500000000E-02 0. -1.
         -2   -1    0    0    0  501 -0.00000000000E+00 -0.00000000000E+00 -0.84019367863E+03  0.84019367863E+03  0.25500000000E-02 0.  1.
    8880023    1    1    2    0    0  0.28310675910E+03  0.14205405210E+04  0.17192362673E+04  0.23425772896E+04  0.65864270000E+03 0. -1.
    8880022    1    1    2    0    0 -0.28310675910E+03 -0.14205405210E+04  0.47496948540E+03  0.15320158204E+04  0.15294330000E+03 0.  0.
<mgrwt>
<rscale>  0 0.15564025E+04</rscale>
<asrwt>0</asrwt>
<pdfrwt beam="1">  1        2 0.46683069E+00 0.15911930E+04</pdfrwt>
<pdfrwt beam="2">  1       -2 0.12926056E+00 0.15911930E+04</pdfrwt>
<totfact> 0.68761565E-01</totfact>
</mgrwt>
</event>
<event>
 4    2  0.2930016E-007  0.9752027E+03  0.7818608E-02  0.9414744E-01
         -2   -1    0    0    0  501 -0.00000000000E+00  0.00000000000E+00  0.51008907031E+03  0.51008907032E+03  0.25500000000E-02 0.  1.
          2   -1    0    0  501    0  0.00000000000E+00 -0.00000000000E+00 -0.16451952605E+04  0.16451952605E+04  0.25500000000E-02 0. -1.
    8880023    1    1    2    0    0  0.71863494348E+03 -0.27820177934E+02 -0.10198161438E+04  0.14110440523E+04  0.65864270000E+03 0. -1.
    8880022    1    1    2    0    0 -0.71863494348E+03  0.27820177934E+02 -0.11529004642E+03  0.74424027848E+03  0.15294330000E+03 0.  0.
<mgrwt>
<rscale>  0 0.90872163E+03</rscale>
<asrwt>0</asrwt>
<pdfrwt beam="1">  1        2 0.25310696E+00 0.97520272E+03</pdfrwt>
<pdfrwt beam="2">  1       -2 0.78475242E-01 0.97520272E+03</pdfrwt>
<totfact> 0.15199161E+01</totfact>
</mgrwt>
</event>
<event>
 4    2  0.2930016E-007  0.6767072E+03  0.7818608E-02  0.1011251E+00
         -2   -1    0    0    0  501 -0.00000000000E+00  0.00000000000E+00  0.81134755052E+03  0.81134755053E+03  0.25500000000E-02 0.  1.
          2   -1    0    0  501    0  0.00000000000E+00 -0.00000000000E+00 -0.66800456946E+03  0.66800456947E+03  0.25500000000E-02 0. -1.
    8880023    1    1    2    0    0  0.14034750919E+03 -0.66520972983E+02 -0.47298101582E+03  0.82561716962E+03  0.65864270000E+03 0. -1.
    8880022    1    1    2    0    0 -0.14034750919E+03  0.66520972983E+02  0.61632399689E+03  0.65373495037E+03  0.15294330000E+03 0.  0.
<mgrwt>
<rscale>  0 0.50980424E+03</rscale>
<asrwt>0</asrwt>
<pdfrwt beam="1">  1        2 0.10276993E+00 0.67670723E+03</pdfrwt>
<pdfrwt beam="2">  1       -2 0.12482270E+00 0.67670723E+03</pdfrwt>
<totfact> 0.21347545E+01</totfact>
</mgrwt>
</event>
<event>
 4    2  0.2930016E-007  0.7279080E+03  0.7818608E-02  0.9896683E-01
          2   -1    0    0  501    0  0.00000000000E+00  0.00000000000E+00  0.94649220659E+03  0.94649220659E+03  0.25500000000E-02 0. -1.
         -2   -1    0    0    0  501 -0.00000000000E+00 -0.00000000000E+00 -0.30474207368E+03  0.30474207369E+03  0.25500000000E-02 0.  1.
    8880023    1    1    2    0    0  0.87898570667E+02 -0.29717630401E+03  0.41503013749E+03  0.83791415770E+03  0.65864270000E+03 0. -1.
    8880022    1    1    2    0    0 -0.87898570667E+02  0.29717630401E+03  0.22671999542E+03  0.41332012258E+03  0.15294330000E+03 0.  1.
<mgrwt>
<rscale>  0 0.60422304E+03</rscale>
<asrwt>0</asrwt>
<pdfrwt beam="1">  1        2 0.14561418E+00 0.72790804E+03</pdfrwt>
<pdfrwt beam="2">  1       -2 0.46883398E-01 0.72790804E+03</pdfrwt>
<totfact> 0.11936307E+02</totfact>
</mgrwt>
</event>
<event>
 4    2  0.2930016E-007  0.7192625E+03  0.7818608E-02  0.9925090E-01
         -2   -1    0    0    0  501 -0.00000000000E+00  0.00000000000E+00  0.31180946661E+03  0.31180946662E+03  0.25500000000E-02 0.  1.
          2   -1    0    0  501    0  0.00000000000E+00 -0.00000000000E+00 -0.21657390642E+04  0.21657390642E+04  0.25500000000E-02 0. -1.
    8880023    1    1    2    0    0 -0.26070296276E+03  0.12474868884E+03 -0.19955462772E+04  0.21212127241E+04  0.65864270000E+03 0. -1.
    8880022    1    1    2    0    0  0.26070296276E+03 -0.12474868884E+03  0.14161667965E+03  0.35633580669E+03  0.15294330000E+03 0.  0.
<mgrwt>
<rscale>  0 0.59060602E+03</rscale>
<asrwt>0</asrwt>
<pdfrwt beam="1">  1        2 0.33319062E+00 0.71926245E+03</pdfrwt>
<pdfrwt beam="2">  1       -2 0.47970688E-01 0.71926245E+03</pdfrwt>
<totfact> 0.23152025E+01</totfact>
</mgrwt>
</event>
<event>
 4    2  0.2930016E-007  0.8085123E+03  0.7818608E-02  0.9692684E-01
          2   -1    0    0  501    0  0.00000000000E+00  0.00000000000E+00  0.49695223596E+03  0.49695223597E+03  0.25500000000E-02 0. -1.
         -2   -1    0    0    0  501 -0.00000000000E+00 -0.00000000000E+00 -0.88512815734E+03  0.88512815734E+03  0.25500000000E-02 0.  1.
    8880023    1    1    2    0    0 -0.39109027014E+03 -0.25870909991E+03 -0.11040746368E+03  0.81601593861E+03  0.65864270000E+03 0.  0.
    8880022    1    1    2    0    0  0.39109027014E+03  0.25870909991E+03 -0.27776845770E+03  0.56606445470E+03  0.15294330000E+03 0.  0.
<mgrwt>
<rscale>  0 0.71454054E+03</rscale>
<asrwt>0</asrwt>
<pdfrwt beam="1">  1        2 0.76454190E-01 0.80851234E+03</pdfrwt>
<pdfrwt beam="2">  1       -2 0.13617356E+00 0.80851234E+03</pdfrwt>
<totfact> 0.24125431E+01</totfact>
</mgrwt>
</event>
<event>
 4    2  0.2930016E-007  0.8048658E+03  0.7818608E-02  0.9700372E-01
         -2   -1    0    0    0  501 -0.00000000000E+00  0.00000000000E+00  0.77151285530E+03  0.77151285530E+03  0.25500000000E-02 0.  1.
          2   -1    0    0  501    0  0.00000000000E+00 -0.00000000000E+00 -0.77701589549E+03  0.77701589549E+03  0.25500000000E-02 0. -1.
    8880023    1    1    2    0    0  0.46173288249E+03  0.28310884323E+02 -0.42088468915E+03  0.90826917198E+03  0.65864270000E+03 0.  0.
    8880022    1    1    2    0    0 -0.46173288249E+03 -0.28310884323E+02  0.41538164897E+03  0.64025957881E+03  0.15294330000E+03 0.  0.
<mgrwt>
<rscale>  0 0.70994631E+03</rscale>
<asrwt>0</asrwt>
<pdfrwt beam="1">  1        2 0.11954091E+00 0.80486581E+03</pdfrwt>
<pdfrwt beam="2">  1       -2 0.11869429E+00 0.80486581E+03</pdfrwt>
<totfact> 0.19715609E+01</totfact>
</mgrwt>
</event>
<event>
 4    2  0.2930016E-007  0.7536926E+03  0.7818608E-02  0.9821719E-01
          2   -1    0    0  501    0  0.00000000000E+00  0.00000000000E+00  0.21647237834E+04  0.21647237834E+04  0.25500000000E-02 0. -1.
         -2   -1    0    0    0  501 -0.00000000000E+00 -0.00000000000E+00 -0.26588002473E+03  0.26588002474E+03  0.25500000000E-02 0.  1.
    8880023    1    1    2    0    0  0.24691870620E+03 -0.27069082650E+03  0.18886044581E+04  0.20334402810E+04  0.65864270000E+03 0. -1.
    8880022    1    1    2    0    0 -0.24691870620E+03  0.27069082650E+03  0.10239300604E+02  0.39716352717E+03  0.15294330000E+03 0.  0.
<mgrwt>
<rscale>  0 0.64209893E+03</rscale>
<asrwt>0</asrwt>
<pdfrwt beam="1">  1        2 0.33303444E+00 0.75369263E+03</pdfrwt>
<pdfrwt beam="2">  1       -2 0.40904618E-01 0.75369263E+03</pdfrwt>
<totfact> 0.31668387E+01</totfact>
</mgrwt>
</event>
<event>
 4    2  0.2930016E-007  0.7899422E+03  0.7818608E-02  0.9732980E-01
         -2   -1    0    0    0  501 -0.00000000000E+00  0.00000000000E+00  0.29745576936E+03  0.29745576937E+03  0.25500000000E-02 0.  1.
          2   -1    0    0  501    0  0.00000000000E+00 -0.00000000000E+00 -0.19137302191E+04  0.19137302191E+04  0.25500000000E-02 0. -1.
    8880023    1    1    2    0    0 -0.31094286064E+03  0.30579903498E+03 -0.15561044182E+04  0.17451274105E+04  0.65864270000E+03 0. -1.
    8880022    1    1    2    0    0  0.31094286064E+03 -0.30579903498E+03 -0.60170031562E+02  0.46605857796E+03  0.15294330000E+03 0.  0.
<mgrwt>
<rscale>  0 0.69086653E+03</rscale>
<asrwt>0</asrwt>
<pdfrwt beam="1">  1        2 0.29442003E+00 0.78994222E+03</pdfrwt>
<pdfrwt beam="2">  1       -2 0.45762427E-01 0.78994222E+03</pdfrwt>
<totfact> 0.34636574E+01</totfact>
</mgrwt>
</event>
<event>
 4    2  0.2930016E-007  0.1333590E+04  0.7818608E-02  0.9037082E-01
         -2   -1    0    0    0  501 -0.00000000000E+00  0.00000000000E+00  0.10461338672E+04  0.10461338673E+04  0.25500000000E-02 0.  1.
          2   -1    0    0  501    0  0.00000000000E+00 -0.00000000000E+00 -0.15219959542E+04  0.15219959542E+04  0.25500000000E-02 0. -1.
    8880023    1    1    2    0    0  0.11422211849E+04 -0.19995920640E+03 -0.41598677996E+03  0.13969638960E+04  0.65864270000E+03 0.  0.
    8880022    1    1    2    0    0 -0.11422211849E+04  0.19995920640E+03 -0.59875306996E+02  0.11711659254E+04  0.15294330000E+03 0.  0.
<mgrwt>
<rscale>  0 0.12905634E+04</rscale>
<asrwt>0</asrwt>
<pdfrwt beam="1">  1        2 0.23415322E+00 0.13335903E+04</pdfrwt>
<pdfrwt beam="2">  1       -2 0.16094367E+00 0.13335903E+04</pdfrwt>
<totfact> 0.29329604E+00</totfact>
</mgrwt>
</event>
<event>
 4    2  0.2930016E-007  0.8971549E+03  0.7818608E-02  0.9530614E-01
          2   -1    0    0  501    0  0.00000000000E+00  0.00000000000E+00  0.14235745117E+04  0.14235745117E+04  0.25500000000E-02 0. -1.
         -2   -1    0    0    0  501 -0.00000000000E+00 -0.00000000000E+00 -0.78882014626E+03  0.78882014627E+03  0.25500000000E-02 0.  1.
    8880023    1    1    2    0    0  0.18492204519E+03 -0.58041415202E+03  0.11082290973E+04  0.14258536703E+04  0.65864270000E+03 0. -1.
    8880022    1    1    2    0    0 -0.18492204519E+03  0.58041415202E+03 -0.47347473184E+03  0.78654098772E+03  0.15294330000E+03 0.  0.
<mgrwt>
<rscale>  0 0.82063892E+03</rscale>
<asrwt>0</asrwt>
<pdfrwt beam="1">  1        2 0.21901146E+00 0.89715492E+03</pdfrwt>
<pdfrwt beam="2">  1       -2 0.12135695E+00 0.89715492E+03</pdfrwt>
<totfact> 0.72773209E+00</totfact>
</mgrwt>
</event>
<event>
 4    2  0.2930016E-007  0.1011268E+04  0.7818608E-02  0.9366962E-01
         -2   -1    0    0    0  501 -0.00000000000E+00  0.00000000000E+00  0.68874906311E+03  0.68874906311E+03  0.25500000000E-02 0.  1.
          2   -1    0    0  501    0  0.00000000000E+00 -0.00000000000E+00 -0.11680198004E+04  0.11680198004E+04  0.25500000000E-02 0. -1.
    8880023    1    1    2    0    0  0.73785029605E+03 -0.21078443973E+03 -0.25959519114E+03  0.10440560373E+04  0.65864270000E+03 0.  1.
    8880022    1    1    2    0    0 -0.73785029605E+03  0.21078443973E+03 -0.21967554620E+03  0.81271282630E+03  0.15294330000E+03 0. -1.
<mgrwt>
<rscale>  0 0.94845209E+03</rscale>
<asrwt>0</asrwt>
<pdfrwt beam="1">  1        2 0.17969535E+00 0.10112682E+04</pdfrwt>
<pdfrwt beam="2">  1       -2 0.10596139E+00 0.10112682E+04</pdfrwt>
<totfact> 0.14133447E+01</totfact>
</mgrwt>
</event>
<event>
 4    2  0.2930016E-007  0.1066323E+04  0.7818608E-02  0.9299511E-01
         -2   -1    0    0    0  501 -0.00000000000E+00  0.00000000000E+00  0.79269152995E+03  0.79269152996E+03  0.25500000000E-02 0.  1.
          2   -1    0    0  501    0  0.00000000000E+00 -0.00000000000E+00 -0.29555671952E+04  0.29555671952E+04  0.25500000000E-02 0. -1.
    8880023    1    1    2    0    0  0.63261791026E+03 -0.55048129151E+03  0.32794610711E+03  0.11156137002E+04  0.65864270000E+03 0.  0.
    8880022    1    1    2    0    0 -0.63261791026E+03  0.55048129151E+03 -0.24908217724E+04  0.26326450250E+04  0.15294330000E+03 0.  0.
<mgrwt>
<rscale>  0 0.10082787E+04</rscale>
<asrwt>0</asrwt>
<pdfrwt beam="1">  1        2 0.45470264E+00 0.10663233E+04</pdfrwt>
<pdfrwt beam="2">  1       -2 0.12195255E+00 0.10663233E+04</pdfrwt>
<totfact> 0.95250162E-01</totfact>
</mgrwt>
</event>
<event>
 4    2  0.2930016E-007  0.6673610E+03  0.7818608E-02  0.1017630E+00
          2   -1    0    0  501    0  0.00000000000E+00  0.00000000000E+00  0.46305968573E+03  0.46305968574E+03  0.25500000000E-02 0. -1.
         -2   -1    0    0    0  501 -0.00000000000E+00 -0.00000000000E+00 -0.55911993785E+03  0.55911993786E+03  0.25500000000E-02 0.  1.
    8880023    1    1    2    0    0  0.78932205094E+01  0.10722935040E+03  0.17775413964E+03  0.69062810321E+03  0.65864270000E+03 0. -1.
    8880022    1    1    2    0    0 -0.78932205094E+01 -0.10722935040E+03 -0.27381439177E+03  0.33155152039E+03  0.15294330000E+03 0.  0.
<mgrwt>
<rscale>  0 0.48551733E+03</rscale>
<asrwt>0</asrwt>
<pdfrwt beam="1">  1        2 0.71239952E-01 0.66736095E+03</pdfrwt>
<pdfrwt beam="2">  1       -2 0.86018452E-01 0.66736095E+03</pdfrwt>
<totfact> 0.80182296E+01</totfact>
</mgrwt>
</event>
<event>
 4    2  0.2930016E-007  0.8992256E+03  0.7818608E-02  0.9527276E-01
          2   -1    0    0  501    0  0.00000000000E+00  0.00000000000E+00  0.12873423831E+04  0.12873423831E+04  0.25500000000E-02 0. -1.
         -2   -1    0    0    0  501 -0.00000000000E+00 -0.00000000000E+00 -0.45508466153E+03  0.45508466154E+03  0.25500000000E-02 0.  1.
    8880023    1    1    2    0    0  0.12422300165E+03  0.59947067777E+03  0.51240176480E+03  0.10349696722E+04  0.65864270000E+03 0. -1.
    8880022    1    1    2    0    0 -0.12422300165E+03 -0.59947067777E+03  0.31985595676E+03  0.70745737238E+03  0.15294330000E+03 0.  1.
<mgrwt>
<rscale>  0 0.82302405E+03</rscale>
<asrwt>0</asrwt>
<pdfrwt beam="1">  1        2 0.19805267E+00 0.89922559E+03</pdfrwt>
<pdfrwt beam="2">  1       -2 0.70013026E-01 0.89922559E+03</pdfrwt>
<totfact> 0.31409768E+01</totfact>
</mgrwt>
</event>
<event>
 4    2  0.2930016E-007  0.6649283E+03  0.7818608E-02  0.1019594E+00
         -2   -1    0    0    0  501 -0.00000000000E+00  0.00000000000E+00  0.31494660014E+03  0.31494660015E+03  0.25500000000E-02 0.  1.
          2   -1    0    0  501    0  0.00000000000E+00 -0.00000000000E+00 -0.69239571290E+03  0.69239571290E+03  0.25500000000E-02 0. -1.
    8880023    1    1    2    0    0  0.88514122342E+02  0.22015579817E+02 -0.46253758631E+03  0.80998188907E+03  0.65864270000E+03 0. -1.
    8880022    1    1    2    0    0 -0.88514122342E+02 -0.22015579817E+02  0.85088473553E+02  0.19736042398E+03  0.15294330000E+03 0.  0.
<mgrwt>
<rscale>  0 0.47833538E+03</rscale>
<asrwt>0</asrwt>
<pdfrwt beam="1">  1        2 0.10652242E+00 0.66492830E+03</pdfrwt>
<pdfrwt beam="2">  1       -2 0.48453323E-01 0.66492830E+03</pdfrwt>
<totfact> 0.17008781E+02</totfact>
</mgrwt>
</event>
<event>
 4    2  0.2930016E-007  0.8446955E+03  0.7818608E-02  0.9621389E-01
          2   -1    0    0  501    0  0.00000000000E+00  0.00000000000E+00  0.10948577571E+04  0.10948577571E+04  0.25500000000E-02 0. -1.
         -2   -1    0    0    0  501 -0.00000000000E+00 -0.00000000000E+00 -0.88601071004E+03  0.88601071004E+03  0.25500000000E-02 0.  1.
    8880023    1    1    2    0    0  0.29910891844E+02 -0.52802049768E+03  0.80678593966E+03  0.11680813611E+04  0.65864270000E+03 0.  0.
    8880022    1    1    2    0    0 -0.29910891844E+02  0.52802049768E+03 -0.59793889262E+03  0.81278710604E+03  0.15294330000E+03 0.  0.
<mgrwt>
<rscale>  0 0.75896534E+03</rscale>
<asrwt>0</asrwt>
<pdfrwt beam="1">  1        2 0.16843966E+00 0.84469552E+03</pdfrwt>
<pdfrwt beam="2">  1       -2 0.13630934E+00 0.84469552E+03</pdfrwt>
<totfact> 0.85101765E+00</totfact>
</mgrwt>
</event>
<event>
 4    2  0.2930016E-007  0.6711654E+03  0.7818608E-02  0.1014841E+00
          2   -1    0    0  501    0  0.00000000000E+00  0.00000000000E+00  0.39700370657E+03  0.39700370658E+03  0.25500000000E-02 0. -1.
         -2   -1    0    0    0  501 -0.00000000000E+00 -0.00000000000E+00 -0.62677114836E+03  0.62677114836E+03  0.25500000000E-02 0.  1.
    8880023    1    1    2    0    0 -0.12397507172E+03  0.35818894231E+02  0.57560823659E+02  0.67362917564E+03  0.65864270000E+03 0. -1.
    8880022    1    1    2    0    0  0.12397507172E+03 -0.35818894231E+02 -0.28732826544E+03  0.35014567930E+03  0.15294330000E+03 0.  0.
<mgrwt>
<rscale>  0 0.49595239E+03</rscale>
<asrwt>0</asrwt>
<pdfrwt beam="1">  1        2 0.61077494E-01 0.67116542E+03</pdfrwt>
<pdfrwt beam="2">  1       -2 0.96426330E-01 0.67116542E+03</pdfrwt>
<totfact> 0.73290572E+01</totfact>
</mgrwt>
</event>
<event>
 4    2  0.2930016E-007  0.6672514E+03  0.7818608E-02  0.1017715E+00
         -2   -1    0    0    0  501 -0.00000000000E+00  0.00000000000E+00  0.18813506426E+04  0.18813506426E+04  0.25500000000E-02 0.  1.
          2   -1    0    0  501    0  0.00000000000E+00 -0.00000000000E+00 -0.18747208105E+03  0.18747208107E+03  0.25500000000E-02 0. -1.
    8880023    1    1    2    0    0  0.10542546363E+03 -0.17313571934E+02  0.43574156605E+03  0.79692860835E+03  0.65864270000E+03 0. -1.
    8880022    1    1    2    0    0 -0.10542546363E+03  0.17313571934E+02  0.12581369955E+04  0.12718941153E+04  0.15294330000E+03 0.  0.
<mgrwt>
<rscale>  0 0.48520338E+03</rscale>
<asrwt>0</asrwt>
<pdfrwt beam="1">  1        2 0.28841859E-01 0.66725145E+03</pdfrwt>
<pdfrwt beam="2">  1       -2 0.28943856E+00 0.66725145E+03</pdfrwt>
<totfact> 0.71816075E+00</totfact>
</mgrwt>
</event>
<event>
 4    2  0.4408530E-007  0.1258308E+04  0.7818608E-02  0.9102427E-01
         -2   -1    0    0    0  501 -0.00000000000E+00  0.00000000000E+00  0.16861579851E+04  0.16861579851E+04  0.25500000000E-02 0.  1.
          2   -1    0    0  501    0  0.00000000000E+00 -0.00000000000E+00 -0.24899191467E+04  0.24899191467E+04  0.25500000000E-02 0. -1.
    8880023    1    1    2    0    0  0.27564365976E+02 -0.10718062312E+04 -0.21238249576E+04  0.24685969797E+04  0.65864270000E+03 0.  0.
    8880022    1    1    2    0    0 -0.27564365976E+02  0.10718062312E+04  0.13200637959E+04  0.17074801521E+04  0.15294330000E+03 0.  0.
<mgrwt>
<rscale>  0 0.12119891E+04</rscale>
<asrwt>0</asrwt>
<pdfrwt beam="1">  1        2 0.38306448E+00 0.12583078E+04</pdfrwt>
<pdfrwt beam="2">  1       -2 0.25940892E+00 0.12583078E+04</pdfrwt>
<totfact> 0.19236407E-01</totfact>
</mgrwt>
</event>
<event>
 4    2  0.2930016E-007  0.6895697E+03  0.7818608E-02  0.1004358E+00
          2   -1    0    0  501    0  0.00000000000E+00  0.00000000000E+00  0.94088108824E+03  0.94088108825E+03  0.25500000000E-02 0. -1.
         -2   -1    0    0    0  501 -0.00000000000E+00 -0.00000000000E+00 -0.28755967136E+03  0.28755967138E+03  0.25500000000E-02 0.  1.
    8880023    1    1    2    0    0  0.19681459893E+01  0.20418698009E+03  0.68425622293E+03  0.97144890824E+03  0.65864270000E+03 0. -1.
    8880022    1    1    2    0    0 -0.19681459893E+01 -0.20418698009E+03 -0.30934806054E+02  0.25699185138E+03  0.15294330000E+03 0.  0.
<mgrwt>
<rscale>  0 0.53780041E+03</rscale>
<asrwt>0</asrwt>
<pdfrwt beam="1">  1        2 0.14475094E+00 0.68956972E+03</pdfrwt>
<pdfrwt beam="2">  1       -2 0.44239949E-01 0.68956972E+03</pdfrwt>
<totfact> 0.13553340E+02</totfact>
</mgrwt>
</event>
<event>
 4    2  0.3698719E-007  0.7456875E+03  0.7818608E-02  0.9843679E-01
          2   -1    0    0  501    0  0.00000000000E+00  0.00000000000E+00  0.27327300320E+04  0.27327300320E+04  0.25500000000E-02 0. -1.
         -2   -1    0    0    0  501 -0.00000000000E+00 -0.00000000000E+00 -0.49439356711E+03  0.49439356711E+03  0.25500000000E-02 0.  1.
    8880023    1    1    2    0    0 -0.34958657162E+03  0.53718715971E+01  0.25978981340E+04  0.27027993912E+04  0.65864270000E+03 0. -1.
    8880022    1    1    2    0    0  0.34958657162E+03 -0.53718715971E+01 -0.35956166914E+03  0.52432420790E+03  0.15294330000E+03 0.  0.
<mgrwt>
<rscale>  0 0.63070239E+03</rscale>
<asrwt>0</asrwt>
<pdfrwt beam="1">  1        2 0.42042002E+00 0.74568749E+03</pdfrwt>
<pdfrwt beam="2">  1       -2 0.76060547E-01 0.74568749E+03</pdfrwt>
<totfact> 0.41579624E+00</totfact>
</mgrwt>
</event>
<event>
 4    2  0.2930016E-007  0.7278661E+03  0.7818608E-02  0.9896816E-01
         -2   -1    0    0    0  501 -0.00000000000E+00  0.00000000000E+00  0.33957323358E+03  0.33957323359E+03  0.25500000000E-02 0.  1.
          2   -1    0    0  501    0  0.00000000000E+00 -0.00000000000E+00 -0.12329557544E+04  0.12329557544E+04  0.25500000000E-02 0. -1.
    8880023    1    1    2    0    0  0.15087684447E+03 -0.27058286182E+03 -0.97577149424E+03  0.12173410050E+04  0.65864270000E+03 0.  0.
    8880022    1    1    2    0    0 -0.15087684447E+03  0.27058286182E+03  0.82388973388E+02  0.35518798299E+03  0.15294330000E+03 0.  0.
<mgrwt>
<rscale>  0 0.60415836E+03</rscale>
<asrwt>0</asrwt>
<pdfrwt beam="1">  1        2 0.18968550E+00 0.72786614E+03</pdfrwt>
<pdfrwt beam="2">  1       -2 0.52242036E-01 0.72786614E+03</pdfrwt>
<totfact> 0.63827717E+01</totfact>
</mgrwt>
</event>
<event>
 4    2  0.2930016E-007  0.7704171E+03  0.7818608E-02  0.9778849E-01
          2   -1    0    0  501    0  0.00000000000E+00  0.00000000000E+00  0.17506935867E+04  0.17506935867E+04  0.25500000000E-02 0. -1.
         -2   -1    0    0    0  501 -0.00000000000E+00 -0.00000000000E+00 -0.20567746358E+03  0.20567746360E+03  0.25500000000E-02 0.  1.
    8880023    1    1    2    0    0  0.32269144123E+03 -0.23580177452E+03  0.10437269589E+04  0.12972695996E+04  0.65864270000E+03 0.  0.
    8880022    1    1    2    0    0 -0.32269144123E+03  0.23580177452E+03  0.50128916421E+03  0.65910145067E+03  0.15294330000E+03 0. -1.
<mgrwt>
<rscale>  0 0.66510092E+03</rscale>
<asrwt>0</asrwt>
<pdfrwt beam="1">  1        2 0.26933748E+00 0.77041706E+03</pdfrwt>
<pdfrwt beam="2">  1       -2 0.31642686E-01 0.77041706E+03</pdfrwt>
<totfact> 0.87002646E+01</totfact>
</mgrwt>
</event>
<event>
 4    2  0.2930016E-007  0.7544782E+03  0.7818608E-02  0.9819618E-01
         -2   -1    0    0    0  501 -0.00000000000E+00  0.00000000000E+00  0.67254184086E+03  0.67254184086E+03  0.25500000000E-02 0.  1.
          2   -1    0    0  501    0  0.00000000000E+00 -0.00000000000E+00 -0.49421414496E+03  0.49421414496E+03  0.25500000000E-02 0. -1.
    8880023    1    1    2    0    0  0.34921931274E+03 -0.11607337277E+03  0.12178387279E+03  0.76424385781E+03  0.65864270000E+03 0.  1.
    8880022    1    1    2    0    0 -0.34921931274E+03  0.11607337277E+03  0.56543823106E+02  0.40251212802E+03  0.15294330000E+03 0. -1.
<mgrwt>
<rscale>  0 0.64320256E+03</rscale>
<asrwt>0</asrwt>
<pdfrwt beam="1">  1        2 0.76032946E-01 0.75447821E+03</pdfrwt>
<pdfrwt beam="2">  1       -2 0.10346797E+00 0.75447821E+03</pdfrwt>
<totfact> 0.48073793E+01</totfact>
</mgrwt>
</event>
<event>
 4    2  0.2930016E-007  0.7126675E+03  0.7818608E-02  0.9948226E-01
         -2   -1    0    0    0  501 -0.00000000000E+00  0.00000000000E+00  0.94849168585E+03  0.94849168585E+03  0.25500000000E-02 0.  1.
          2   -1    0    0  501    0  0.00000000000E+00 -0.00000000000E+00 -0.55959455793E+03  0.55959455794E+03  0.25500000000E-02 0. -1.
    8880023    1    1    2    0    0  0.20837722265E+03 -0.17511050961E+03 -0.28330741384E+03  0.76691463312E+03  0.65864270000E+03 0.  0.
    8880022    1    1    2    0    0 -0.20837722265E+03  0.17511050961E+03  0.67220454175E+03  0.74117161067E+03  0.15294330000E+03 0.  0.
<mgrwt>
<rscale>  0 0.57979926E+03</rscale>
<asrwt>0</asrwt>
<pdfrwt beam="1">  1        2 0.86091471E-01 0.71266750E+03</pdfrwt>
<pdfrwt beam="2">  1       -2 0.14592180E+00 0.71266750E+03</pdfrwt>
<totfact> 0.17682232E+01</totfact>
</mgrwt>
</event>
<event>
 4    2  0.2930016E-007  0.7217688E+03  0.7818608E-02  0.9916646E-01
          2   -1    0    0  501    0  0.00000000000E+00  0.00000000000E+00  0.84011541409E+03  0.84011541410E+03  0.25500000000E-02 0. -1.
         -2   -1    0    0    0  501 -0.00000000000E+00 -0.00000000000E+00 -0.38774576051E+03  0.38774576051E+03  0.25500000000E-02 0.  1.
    8880023    1    1    2    0    0 -0.27244695665E+03 -0.11363407656E+03  0.51873388026E+03  0.88883918249E+03  0.65864270000E+03 0.  0.
    8880022    1    1    2    0    0  0.27244695665E+03  0.11363407656E+03 -0.66364226672E+02  0.33902199212E+03  0.15294330000E+03 0.  0.
<mgrwt>
<rscale>  0 0.59461307E+03</rscale>
<asrwt>0</asrwt>
<pdfrwt beam="1">  1        2 0.12924853E+00 0.72176884E+03</pdfrwt>
<pdfrwt beam="2">  1       -2 0.59653194E-01 0.72176884E+03</pdfrwt>
<totfact> 0.85825747E+01</totfact>
</mgrwt>
</event>
<event>
 4    2  0.2930016E-007  0.6622688E+03  0.7818608E-02  0.1021944E+00
         -2   -1    0    0    0  501 -0.00000000000E+00  0.00000000000E+00  0.27533156511E+03  0.27533156512E+03  0.25500000000E-02 0.  1.
          2   -1    0    0  501    0  0.00000000000E+00 -0.00000000000E+00 -0.15740983494E+04  0.15740983494E+04  0.25500000000E-02 0. -1.
    8880023    1    1    2    0    0 -0.69102060820E+02 -0.38306772468E+01 -0.14683603873E+04  0.16108017265E+04  0.65864270000E+03 0. -1.
    8880022    1    1    2    0    0  0.69102060820E+02  0.38306772468E+01  0.16959360303E+03  0.23862818799E+03  0.15294330000E+03 0.  0.
<mgrwt>
<rscale>  0 0.46991693E+03</rscale>
<asrwt>0</asrwt>
<pdfrwt beam="1">  1        2 0.24216897E+00 0.66226881E+03</pdfrwt>
<pdfrwt beam="2">  1       -2 0.42358703E-01 0.66226881E+03</pdfrwt>
<totfact> 0.62843191E+01</totfact>
</mgrwt>
</event>
<event>
 4    2  0.2930016E-007  0.8915873E+03  0.7818608E-02  0.9539674E-01
         -2   -1    0    0    0  501 -0.00000000000E+00  0.00000000000E+00  0.19957547241E+04  0.19957547241E+04  0.25500000000E-02 0.  1.
          2   -1    0    0  501    0  0.00000000000E+00 -0.00000000000E+00 -0.12782217842E+04  0.12782217842E+04  0.25500000000E-02 0. -1.
    8880023    1    1    2    0    0  0.30407766638E+03 -0.51831896295E+03 -0.10636724663E+04  0.13879218625E+04  0.65864270000E+03 0. -1.
    8880022    1    1    2    0    0 -0.30407766638E+03  0.51831896295E+03  0.17812054063E+04  0.18860546458E+04  0.15294330000E+03 0.  0.
<mgrwt>
<rscale>  0 0.81420974E+03</rscale>
<asrwt>0</asrwt>
<pdfrwt beam="1">  1        2 0.19664951E+00 0.89158734E+03</pdfrwt>
<pdfrwt beam="2">  1       -2 0.30703919E+00 0.89158734E+03</pdfrwt>
<totfact> 0.50148947E-01</totfact>
</mgrwt>
</event>
<event>
 4    2  0.2930016E-007  0.6690462E+03  0.7818608E-02  0.1016356E+00
          2   -1    0    0  501    0  0.00000000000E+00  0.00000000000E+00  0.37383473997E+04  0.37383473997E+04  0.25500000000E-02 0. -1.
         -2   -1    0    0    0  501 -0.00000000000E+00 -0.00000000000E+00 -0.50237632095E+02  0.50237632160E+02  0.25500000000E-02 0.  1.
    8880023    1    1    2    0    0 -0.89347121441E+02  0.76352100513E+02  0.30178935860E+04  0.30911655494E+04  0.65864270000E+03 0. -1.
    8880022    1    1    2    0    0  0.89347121441E+02 -0.76352100513E+02  0.67021618164E+03  0.69741948246E+03  0.15294330000E+03 0. -1.
<mgrwt>
<rscale>  0 0.49024826E+03</rscale>
<asrwt>0</asrwt>
<pdfrwt beam="1">  1        2 0.57513028E+00 0.66904616E+03</pdfrwt>
<pdfrwt beam="2">  1       -2 0.77288676E-02 0.66904616E+03</pdfrwt>
<totfact> 0.62624532E+01</totfact>
</mgrwt>
</event>
<event>
 4    2  0.2930016E-007  0.9147045E+03  0.7818608E-02  0.9502827E-01
          2   -1    0    0  501    0  0.00000000000E+00  0.00000000000E+00  0.56649403134E+03  0.56649403135E+03  0.25500000000E-02 0. -1.
         -2   -1    0    0    0  501 -0.00000000000E+00 -0.00000000000E+00 -0.12182669639E+04  0.12182669639E+04  0.25500000000E-02 0.  1.
    8880023    1    1    2    0    0 -0.59726287593E+03 -0.21482805216E+03 -0.82282478839E+02  0.91839786996E+03  0.65864270000E+03 0.  0.
    8880022    1    1    2    0    0  0.59726287593E+03  0.21482805216E+03 -0.56949045370E+03  0.86636312527E+03  0.15294330000E+03 0.  0.
<mgrwt>
<rscale>  0 0.84075729E+03</rscale>
<asrwt>0</asrwt>
<pdfrwt beam="1">  1        2 0.87152928E-01 0.91470446E+03</pdfrwt>
<pdfrwt beam="2">  1       -2 0.18742569E+00 0.91470446E+03</pdfrwt>
<totfact> 0.85859609E+00</totfact>
</mgrwt>
</event>
<event>
 4    2  0.2930016E-007  0.8552740E+03  0.7818608E-02  0.9602026E-01
         -2   -1    0    0    0  501 -0.00000000000E+00  0.00000000000E+00  0.81912540061E+03  0.81912540062E+03  0.25500000000E-02 0.  1.
          2   -1    0    0  501    0  0.00000000000E+00 -0.00000000000E+00 -0.83410889211E+03  0.83410889212E+03  0.25500000000E-02 0. -1.
    8880023    1    1    2    0    0  0.39637028381E+03 -0.37493205742E+03 -0.42380119858E+03  0.95451616631E+03  0.65864270000E+03 0.  0.
    8880022    1    1    2    0    0 -0.39637028381E+03  0.37493205742E+03  0.40881770708E+03  0.69871812643E+03  0.15294330000E+03 0.  0.
<mgrwt>
<rscale>  0 0.77162234E+03</rscale>
<asrwt>0</asrwt>
<pdfrwt beam="1">  1        2 0.12832445E+00 0.85527402E+03</pdfrwt>
<pdfrwt beam="2">  1       -2 0.12601929E+00 0.85527402E+03</pdfrwt>
<totfact> 0.15373636E+01</totfact>
</mgrwt>
</event>
<event>
 4    2  0.2930016E-007  0.8523930E+03  0.7818608E-02  0.9607241E-01
          2   -1    0    0  501    0  0.00000000000E+00  0.00000000000E+00  0.20393423990E+04  0.20393423990E+04  0.25500000000E-02 0. -1.
         -2   -1    0    0    0  501 -0.00000000000E+00 -0.00000000000E+00 -0.32467873038E+03  0.32467873039E+03  0.25500000000E-02 0.  1.
    8880023    1    1    2    0    0  0.53699846694E+03  0.66303789936E+02  0.15651445056E+04  0.17822039938E+04  0.65864270000E+03 0. -1.
    8880022    1    1    2    0    0 -0.53699846694E+03 -0.66303789936E+02  0.14951916301E+03  0.58181713552E+03  0.15294330000E+03 0.  0.
<mgrwt>
<rscale>  0 0.76818784E+03</rscale>
<asrwt>0</asrwt>
<pdfrwt beam="1">  1        2 0.31374499E+00 0.85239296E+03</pdfrwt>
<pdfrwt beam="2">  1       -2 0.49950574E-01 0.85239296E+03</pdfrwt>
<totfact> 0.24588906E+01</totfact>
</mgrwt>
</event>
<event>
 4    2  0.2930016E-007  0.8111453E+03  0.7818608E-02  0.9687196E-01
          2   -1    0    0  501    0  0.00000000000E+00  0.00000000000E+00  0.35273471373E+03  0.35273471374E+03  0.25500000000E-02 0. -1.
         -2   -1    0    0    0  501 -0.00000000000E+00 -0.00000000000E+00 -0.14987535205E+04  0.14987535205E+04  0.25500000000E-02 0.  1.
    8880023    1    1    2    0    0  0.12867746162E+02  0.47326614006E+03 -0.29008150167E+03  0.86145452700E+03  0.65864270000E+03 0.  0.
    8880022    1    1    2    0    0 -0.12867746162E+02 -0.47326614006E+03 -0.85593730514E+03  0.99003370728E+03  0.15294330000E+03 0.  0.
<mgrwt>
<rscale>  0 0.71784259E+03</rscale>
<asrwt>0</asrwt>
<pdfrwt beam="1">  1        2 0.54266880E-01 0.81114525E+03</pdfrwt>
<pdfrwt beam="2">  1       -2 0.23057746E+00 0.81114525E+03</pdfrwt>
<totfact> 0.78998733E+00</totfact>
</mgrwt>
</event>
<event>
 4    2  0.2930016E-007  0.8863510E+03  0.7818608E-02  0.9548308E-01
          2   -1    0    0  501    0  0.00000000000E+00  0.00000000000E+00  0.21700977169E+04  0.21700977169E+04  0.25500000000E-02 0. -1.
         -2   -1    0    0    0  501 -0.00000000000E+00 -0.00000000000E+00 -0.33421785338E+03  0.33421785339E+03  0.25500000000E-02 0.  1.
    8880023    1    1    2    0    0  0.13268671174E+03  0.57810210684E+03  0.16347985421E+04  0.18596193936E+04  0.65864270000E+03 0. -1.
    8880022    1    1    2    0    0 -0.13268671174E+03 -0.57810210684E+03  0.20108132137E+03  0.64469617668E+03  0.15294330000E+03 0.  0.
<mgrwt>
<rscale>  0 0.80814086E+03</rscale>
<asrwt>0</asrwt>
<pdfrwt beam="1">  1        2 0.33386120E+00 0.88635096E+03</pdfrwt>
<pdfrwt beam="2">  1       -2 0.51418129E-01 0.88635096E+03</pdfrwt>
<totfact> 0.19554039E+01</totfact>
</mgrwt>
</event>
<event>
 4    2  0.2930016E-007  0.6666905E+03  0.7818608E-02  0.1018155E+00
          2   -1    0    0  501    0  0.00000000000E+00  0.00000000000E+00  0.11414101139E+04  0.11414101139E+04  0.25500000000E-02 0. -1.
         -2   -1    0    0    0  501 -0.00000000000E+00 -0.00000000000E+00 -0.34099435817E+03  0.34099435818E+03  0.25500000000E-02 0.  1.
    8880023    1    1    2    0    0 -0.93018908710E+02 -0.44872513323E+02  0.10055425906E+04  0.12064792446E+04  0.65864270000E+03 0. -1.
    8880022    1    1    2    0    0  0.93018908710E+02  0.44872513323E+02 -0.20512683481E+03  0.27592522756E+03  0.15294330000E+03 0.  0.
<mgrwt>
<rscale>  0 0.48358203E+03</rscale>
<asrwt>0</asrwt>
<pdfrwt beam="1">  1        2 0.17560156E+00 0.66669053E+03</pdfrwt>
<pdfrwt beam="2">  1       -2 0.52460670E-01 0.66669053E+03</pdfrwt>
<totfact> 0.72123319E+01</totfact>
</mgrwt>
</event>
<event>
 4    2  0.2930016E-007  0.7517551E+03  0.7818608E-02  0.9826940E-01
         -2   -1    0    0    0  501 -0.00000000000E+00  0.00000000000E+00  0.65704218878E+03  0.65704218878E+03  0.25500000000E-02 0.  1.
          2   -1    0    0  501    0  0.00000000000E+00 -0.00000000000E+00 -0.27374298125E+04  0.27374298125E+04  0.25500000000E-02 0. -1.
    8880023    1    1    2    0    0 -0.19896330946E+03 -0.30288457405E+03 -0.26205640818E+04  0.27262596679E+04  0.65864270000E+03 0.  0.
    8880022    1    1    2    0    0  0.19896330946E+03  0.30288457405E+03  0.54017645804E+03  0.66821233343E+03  0.15294330000E+03 0.  1.
<mgrwt>
<rscale>  0 0.63936604E+03</rscale>
<asrwt>0</asrwt>
<pdfrwt beam="1">  1        2 0.42114304E+00 0.75175506E+03</pdfrwt>
<pdfrwt beam="2">  1       -2 0.10108342E+00 0.75175506E+03</pdfrwt>
<totfact> 0.21481179E+00</totfact>
</mgrwt>
</event>
<event>
 4    2  0.2930016E-007  0.6935681E+03  0.7818608E-02  0.1002501E+00
          2   -1    0    0  501    0  0.00000000000E+00  0.00000000000E+00  0.45443073931E+03  0.45443073932E+03  0.25500000000E-02 0. -1.
         -2   -1    0    0    0  501 -0.00000000000E+00 -0.00000000000E+00 -0.85379543325E+03  0.85379543325E+03  0.25500000000E-02 0.  1.
    8880023    1    1    2    0    0  0.44088639624E+01 -0.21727175809E+03  0.13944603121E+03  0.70744742337E+03  0.65864270000E+03 0. -1.
    8880022    1    1    2    0    0 -0.44088639624E+01  0.21727175809E+03 -0.53881072515E+03  0.60077874920E+03  0.15294330000E+03 0.  0.
<mgrwt>
<rscale>  0 0.54567157E+03</rscale>
<asrwt>0</asrwt>
<pdfrwt beam="1">  1        2 0.69912422E-01 0.69356807E+03</pdfrwt>
<pdfrwt beam="2">  1       -2 0.13135314E+00 0.69356807E+03</pdfrwt>
<totfact> 0.29581177E+01</totfact>
</mgrwt>
</event>
<event>
 4    2  0.2930016E-007  0.8519738E+03  0.7818608E-02  0.9608003E-01
         -2   -1    0    0    0  501 -0.00000000000E+00  0.00000000000E+00  0.12008273189E+04  0.12008273189E+04  0.25500000000E-02 0.  1.
          2   -1    0    0  501    0  0.00000000000E+00 -0.00000000000E+00 -0.74841361887E+03  0.74841361887E+03  0.25500000000E-02 0. -1.
    8880023    1    1    2    0    0  0.22909508486E+03 -0.48945328716E+03 -0.38981823001E+03  0.93691917310E+03  0.65864270000E+03 0. -1.
    8880022    1    1    2    0    0 -0.22909508486E+03  0.48945328716E+03  0.84223193002E+03  0.10123217646E+04  0.15294330000E+03 0.  0.
<mgrwt>
<rscale>  0 0.76768735E+03</rscale>
<asrwt>0</asrwt>
<pdfrwt beam="1">  1        2 0.11514056E+00 0.85197376E+03</pdfrwt>
<pdfrwt beam="2">  1       -2 0.18474266E+00 0.85197376E+03</pdfrwt>
<totfact> 0.63717516E+00</totfact>
</mgrwt>
</event>
<event>
 4    2  0.2930016E-007  0.6952262E+03  0.7818608E-02  0.1001761E+00
          2   -1    0    0  501    0  0.00000000000E+00  0.00000000000E+00  0.48278667403E+03  0.48278667403E+03  0.25500000000E-02 0. -1.
         -2   -1    0    0    0  501 -0.00000000000E+00 -0.00000000000E+00 -0.66100175412E+03  0.66100175412E+03  0.25500000000E-02 0.  1.
    8880023    1    1    2    0    0  0.25390899792E+02  0.22109841268E+03  0.15760228805E+03  0.71286597151E+03  0.65864270000E+03 0. -1.
    8880022    1    1    2    0    0 -0.25390899792E+02 -0.22109841268E+03 -0.33581736814E+03  0.43092245664E+03  0.15294330000E+03 0.  0.
<mgrwt>
<rscale>  0 0.54884669E+03</rscale>
<asrwt>0</asrwt>
<pdfrwt beam="1">  1        2 0.74274873E-01 0.69522616E+03</pdfrwt>
<pdfrwt beam="2">  1       -2 0.10169258E+00 0.69522616E+03</pdfrwt>
<totfact> 0.51684516E+01</totfact>
</mgrwt>
</event>
<event>
 4    2  0.2930016E-007  0.6857068E+03  0.7818608E-02  0.1006264E+00
         -2   -1    0    0    0  501 -0.00000000000E+00  0.00000000000E+00  0.74874346627E+03  0.74874346627E+03  0.25500000000E-02 0.  1.
          2   -1    0    0  501    0  0.00000000000E+00 -0.00000000000E+00 -0.69969562087E+03  0.69969562088E+03  0.25500000000E-02 0. -1.
    8880023    1    1    2    0    0 -0.18348562165E+03  0.52121340427E+02 -0.49918365387E+03  0.84816162024E+03  0.65864270000E+03 0. -1.
    8880022    1    1    2    0    0  0.18348562165E+03 -0.52121340427E+02  0.54823149927E+03  0.60027746692E+03  0.15294330000E+03 0.  0.
<mgrwt>
<rscale>  0 0.52986963E+03</rscale>
<asrwt>0</asrwt>
<pdfrwt beam="1">  1        2 0.10764548E+00 0.68570680E+03</pdfrwt>
<pdfrwt beam="2">  1       -2 0.11519130E+00 0.68570680E+03</pdfrwt>
<totfact> 0.24550177E+01</totfact>
</mgrwt>
</event>
<event>
 4    2  0.2930016E-007  0.1187076E+04  0.7818608E-02  0.9169788E-01
         -2   -1    0    0    0  501 -0.00000000000E+00  0.00000000000E+00  0.11846436258E+04  0.11846436258E+04  0.25500000000E-02 0.  1.
          2   -1    0    0  501    0  0.00000000000E+00 -0.00000000000E+00 -0.21382059600E+04  0.21382059600E+04  0.25500000000E-02 0. -1.
    8880023    1    1    2    0    0 -0.50465813035E+03  0.84891713033E+03  0.70925856704E+03  0.13828224918E+04  0.65864270000E+03 0.  0.
    8880022    1    1    2    0    0  0.50465813035E+03 -0.84891713033E+03 -0.16628209012E+04  0.19400270939E+04  0.15294330000E+03 0.  0.
<mgrwt>
<rscale>  0 0.11370776E+04</rscale>
<asrwt>0</asrwt>
<pdfrwt beam="1">  1        2 0.32895476E+00 0.11870764E+04</pdfrwt>
<pdfrwt beam="2">  1       -2 0.18225287E+00 0.11870764E+04</pdfrwt>
<totfact> 0.95335330E-01</totfact>
</mgrwt>
</event>
<event>
 4    2  0.4006443E-007  0.8269422E+03  0.7818608E-02  0.9655311E-01
          2   -1    0    0  501    0  0.00000000000E+00  0.00000000000E+00  0.22969845620E+04  0.22969845620E+04  0.25500000000E-02 0. -1.
         -2   -1    0    0    0  501 -0.00000000000E+00 -0.00000000000E+00 -0.65733997785E+03  0.65733997785E+03  0.25500000000E-02 0.  1.
    8880023    1    1    2    0    0 -0.20280822153E+02 -0.49961174842E+03  0.21004445042E+04  0.22573658393E+04  0.65864270000E+03 0.  0.
    8880022    1    1    2    0    0  0.20280822153E+02  0.49961174842E+03 -0.46079992007E+03  0.69695870054E+03  0.15294330000E+03 0.  0.
<mgrwt>
<rscale>  0 0.73741019E+03</rscale>
<asrwt>0</asrwt>
<pdfrwt beam="1">  1        2 0.35338225E+00 0.82694221E+03</pdfrwt>
<pdfrwt beam="2">  1       -2 0.10112923E+00 0.82694221E+03</pdfrwt>
<totfact> 0.37724247E+00</totfact>
</mgrwt>
</event>
<event>
 4    2  0.2930016E-007  0.1021932E+04  0.7818608E-02  0.9353410E-01
          2   -1    0    0  501    0  0.00000000000E+00  0.00000000000E+00  0.13927177813E+04  0.13927177813E+04  0.25500000000E-02 0. -1.
         -2   -1    0    0    0  501 -0.00000000000E+00 -0.00000000000E+00 -0.81260524918E+03  0.81260524919E+03  0.25500000000E-02 0.  1.
    8880023    1    1    2    0    0  0.50561041451E+03 -0.59572960979E+03  0.88586042279E+03  0.13524402220E+04  0.65864270000E+03 0.  0.
    8880022    1    1    2    0    0 -0.50561041451E+03  0.59572960979E+03 -0.30574789070E+03  0.85288280843E+03  0.15294330000E+03 0.  0.
<mgrwt>
<rscale>  0 0.96011126E+03</rscale>
<asrwt>0</asrwt>
<pdfrwt beam="1">  1        2 0.21426428E+00 0.10219324E+04</pdfrwt>
<pdfrwt beam="2">  1       -2 0.12501619E+00 0.10219324E+04</pdfrwt>
<totfact> 0.69391075E+00</totfact>
</mgrwt>
</event>
<event>
 4    2  0.3072615E-007  0.1061776E+04  0.7818608E-02  0.9304857E-01
         -2   -1    0    0    0  501 -0.00000000000E+00  0.00000000000E+00  0.10534966467E+04  0.10534966467E+04  0.25500000000E-02 0.  1.
          2   -1    0    0  501    0  0.00000000000E+00 -0.00000000000E+00 -0.38200955080E+04  0.38200955080E+04  0.25500000000E-02 0. -1.
    8880023    1    1    2    0    0  0.82975971459E+03 -0.71115463049E+02 -0.35589441468E+04  0.37139537207E+04  0.65864270000E+03 0.  0.
    8880022    1    1    2    0    0 -0.82975971459E+03  0.71115463049E+02  0.79234528553E+03  0.11596384340E+04  0.15294330000E+03 0.  0.
<mgrwt>
<rscale>  0 0.10033695E+04</rscale>
<asrwt>0</asrwt>
<pdfrwt beam="1">  1        2 0.58770699E+00 0.10617762E+04</pdfrwt>
<pdfrwt beam="2">  1       -2 0.16207641E+00 0.10617762E+04</pdfrwt>
<totfact> 0.11850911E-01</totfact>
</mgrwt>
</event>
<event>
 4    2  0.2930016E-007  0.6903388E+03  0.7818608E-02  0.1003992E+00
          2   -1    0    0  501    0  0.00000000000E+00  0.00000000000E+00  0.25848932900E+04  0.25848932900E+04  0.25500000000E-02 0. -1.
         -2   -1    0    0    0  501 -0.00000000000E+00 -0.00000000000E+00 -0.21839355754E+03  0.21839355755E+03  0.25500000000E-02 0.  1.
    8880023    1    1    2    0    0  0.16875187056E+03  0.11950029279E+03  0.24400147698E+04  0.25357917495E+04  0.65864270000E+03 0.  0.
    8880022    1    1    2    0    0 -0.16875187056E+03 -0.11950029279E+03 -0.73515037266E+02  0.26749509811E+03  0.15294330000E+03 0.  1.
<mgrwt>
<rscale>  0 0.53933957E+03</rscale>
<asrwt>0</asrwt>
<pdfrwt beam="1">  1        2 0.39767591E+00 0.69033884E+03</pdfrwt>
<pdfrwt beam="2">  1       -2 0.33599007E-01 0.69033884E+03</pdfrwt>
<totfact> 0.27160520E+01</totfact>
</mgrwt>
</event>
<event>
 4    2  0.2930016E-007  0.8059277E+03  0.7818608E-02  0.9698123E-01
          2   -1    0    0  501    0  0.00000000000E+00  0.00000000000E+00  0.47880743700E+04  0.47880743700E+04  0.25500000000E-02 0. -1.
         -2   -1    0    0    0  501 -0.00000000000E+00 -0.00000000000E+00 -0.21670552186E+03  0.21670552188E+03  0.25500000000E-02 0.  1.
    8880023    1    1    2    0    0 -0.29283456332E+03 -0.36049569557E+03  0.44200481646E+04  0.44929216788E+04  0.65864270000E+03 0. -1.
    8880022    1    1    2    0    0  0.29283456332E+03  0.36049569557E+03  0.15132068349E+03  0.51185821305E+03  0.15294330000E+03 0.  0.
<mgrwt>
<rscale>  0 0.71128672E+03</rscale>
<asrwt>0</asrwt>
<pdfrwt beam="1">  1        2 0.73662684E+00 0.80592769E+03</pdfrwt>
<pdfrwt beam="2">  1       -2 0.33339310E-01 0.80592769E+03</pdfrwt>
<totfact> 0.58921995E-01</totfact>
</mgrwt>
</event>
<event>
 4    2  0.2930016E-007  0.7053587E+03  0.7818608E-02  0.9975657E-01
          2   -1    0    0  501    0  0.00000000000E+00  0.00000000000E+00  0.56602619473E+03  0.56602619474E+03  0.25500000000E-02 0. -1.
         -2   -1    0    0    0  501 -0.00000000000E+00 -0.00000000000E+00 -0.53068418393E+03  0.53068418393E+03  0.25500000000E-02 0.  1.
    8880023    1    1    2    0    0 -0.11224949641E+03 -0.22609900182E+03  0.23143809451E+03  0.74235739770E+03  0.65864270000E+03 0.  0.
    8880022    1    1    2    0    0  0.11224949641E+03  0.22609900182E+03 -0.19609608370E+03  0.35435298097E+03  0.15294330000E+03 0.  0.
<mgrwt>
<rscale>  0 0.56730616E+03</rscale>
<asrwt>0</asrwt>
<pdfrwt beam="1">  1        2 0.87080953E-01 0.70535871E+03</pdfrwt>
<pdfrwt beam="2">  1       -2 0.81643721E-01 0.70535871E+03</pdfrwt>
<totfact> 0.71270027E+01</totfact>
</mgrwt>
</event>
<event>
 4    2  0.2930016E-007  0.8133367E+03  0.7818608E-02  0.9682668E-01
          2   -1    0    0  501    0  0.00000000000E+00  0.00000000000E+00  0.90946222140E+03  0.90946222140E+03  0.25500000000E-02 0. -1.
         -2   -1    0    0    0  501 -0.00000000000E+00 -0.00000000000E+00 -0.72445653929E+03  0.72445653929E+03  0.25500000000E-02 0.  1.
    8880023    1    1    2    0    0  0.28654536731E+02 -0.47632472493E+03  0.57741360314E+03  0.99745827051E+03  0.65864270000E+03 0. -1.
    8880022    1    1    2    0    0 -0.28654536731E+02  0.47632472493E+03 -0.39240792103E+03  0.63646049018E+03  0.15294330000E+03 0.  0.
<mgrwt>
<rscale>  0 0.72058160E+03</rscale>
<asrwt>0</asrwt>
<pdfrwt beam="1">  1        2 0.13991727E+00 0.81333667E+03</pdfrwt>
<pdfrwt beam="2">  1       -2 0.11145485E+00 0.81333667E+03</pdfrwt>
<totfact> 0.18558774E+01</totfact>
</mgrwt>
</event>
<event>
 4    2  0.2930016E-007  0.8078612E+03  0.7818608E-02  0.9694049E-01
         -2   -1    0    0    0  501 -0.00000000000E+00  0.00000000000E+00  0.99001236637E+03  0.99001236638E+03  0.25500000000E-02 0.  1.
          2   -1    0    0  501    0  0.00000000000E+00 -0.00000000000E+00 -0.61700993744E+03  0.61700993745E+03  0.25500000000E-02 0. -1.
    8880023    1    1    2    0    0  0.15565856054E+03  0.44113481337E+03 -0.21913680223E+03  0.83705475053E+03  0.65864270000E+03 0. -1.
    8880022    1    1    2    0    0 -0.15565856054E+03 -0.44113481337E+03  0.59213923116E+03  0.76996755329E+03  0.15294330000E+03 0.  0.
<mgrwt>
<rscale>  0 0.71372198E+03</rscale>
<asrwt>0</asrwt>
<pdfrwt beam="1">  1        2 0.94924607E-01 0.80786120E+03</pdfrwt>
<pdfrwt beam="2">  1       -2 0.15230959E+00 0.80786120E+03</pdfrwt>
<totfact> 0.13916938E+01</totfact>
</mgrwt>
</event>
<event>
 4    2  0.2930016E-007  0.1162816E+04  0.7818608E-02  0.9194144E-01
         -2   -1    0    0    0  501 -0.00000000000E+00  0.00000000000E+00  0.83420766435E+03  0.83420766435E+03  0.25500000000E-02 0.  1.
          2   -1    0    0  501    0  0.00000000000E+00 -0.00000000000E+00 -0.14679928171E+04  0.14679928171E+04  0.25500000000E-02 0. -1.
    8880023    1    1    2    0    0 -0.76286922202E+03  0.57996630159E+03 -0.64897788163E+03  0.13316579358E+04  0.65864270000E+03 0.  0.
    8880022    1    1    2    0    0  0.76286922202E+03 -0.57996630159E+03  0.15192728874E+02  0.97054254565E+03  0.15294330000E+03 0.  0.
<mgrwt>
<rscale>  0 0.11114080E+04</rscale>
<asrwt>0</asrwt>
<pdfrwt beam="1">  1        2 0.22584505E+00 0.11628158E+04</pdfrwt>
<pdfrwt beam="2">  1       -2 0.12833964E+00 0.11628158E+04</pdfrwt>
<totfact> 0.58037638E+00</totfact>
</mgrwt>
</event>
<event>
 4    2  0.2930016E-007  0.7847272E+03  0.7818608E-02  0.9744848E-01
          2   -1    0    0  501    0  0.00000000000E+00  0.00000000000E+00  0.44698066639E+03  0.44698066640E+03  0.25500000000E-02 0. -1.
         -2   -1    0    0    0  501 -0.00000000000E+00 -0.00000000000E+00 -0.10702055750E+04  0.10702055750E+04  0.25500000000E-02 0.  1.
    8880023    1    1    2    0    0  0.20181601056E+03 -0.37584150005E+03 -0.70709399760E+03  0.10563042474E+04  0.65864270000E+03 0.  0.
    8880022    1    1    2    0    0 -0.20181601056E+03  0.37584150005E+03  0.83869089040E+02  0.46088199400E+03  0.15294330000E+03 0.  0.
<mgrwt>
<rscale>  0 0.68408223E+03</rscale>
<asrwt>0</asrwt>
<pdfrwt beam="1">  1        2 0.68766257E-01 0.78472718E+03</pdfrwt>
<pdfrwt beam="2">  1       -2 0.16464701E+00 0.78472718E+03</pdfrwt>
<totfact> 0.16508386E+01</totfact>
</mgrwt>
</event>
<event>
 4    2  0.2930016E-007  0.8214460E+03  0.7818608E-02  0.9666211E-01
          2   -1    0    0  501    0  0.00000000000E+00  0.00000000000E+00  0.15607348471E+04  0.15607348471E+04  0.25500000000E-02 0. -1.
         -2   -1    0    0    0  501 -0.00000000000E+00 -0.00000000000E+00 -0.69174410742E+03  0.69174410743E+03  0.25500000000E-02 0.  1.
    8880023    1    1    2    0    0  0.23577007210E+03 -0.43055298158E+03  0.13291338783E+04  0.15624885502E+04  0.65864270000E+03 0. -1.
    8880022    1    1    2    0    0 -0.23577007210E+03  0.43055298158E+03 -0.46014313870E+03  0.68999040425E+03  0.15294330000E+03 0.  0.
<mgrwt>
<rscale>  0 0.73064721E+03</rscale>
<asrwt>0</asrwt>
<pdfrwt beam="1">  1        2 0.24011305E+00 0.82144604E+03</pdfrwt>
<pdfrwt beam="2">  1       -2 0.10642217E+00 0.82144604E+03</pdfrwt>
<totfact> 0.84844126E+00</totfact>
</mgrwt>
</event>
<event>
 4    2  0.2930016E-007  0.7650951E+03  0.7818608E-02  0.9792091E-01
          2   -1    0    0  501    0  0.00000000000E+00  0.00000000000E+00  0.40816492056E+04  0.40816492056E+04  0.25500000000E-02 0. -1.
         -2   -1    0    0    0  501 -0.00000000000E+00 -0.00000000000E+00 -0.24898714257E+03  0.24898714258E+03  0.25500000000E-02 0.  1.
    8880023    1    1    2    0    0 -0.81936695612E+02  0.38058738225E+03  0.38368031653E+04  0.39123431742E+04  0.65864270000E+03 0.  0.
    8880022    1    1    2    0    0  0.81936695612E+02 -0.38058738225E+03 -0.41411022692E+01  0.41829317393E+03  0.15294330000E+03 0.  0.
<mgrwt>
<rscale>  0 0.65788723E+03</rscale>
<asrwt>0</asrwt>
<pdfrwt beam="1">  1        2 0.62794599E+00 0.76509515E+03</pdfrwt>
<pdfrwt beam="2">  1       -2 0.38305717E-01 0.76509515E+03</pdfrwt>
<totfact> 0.20928592E+00</totfact>
</mgrwt>
</event>
<event>
 4    2  0.2930016E-007  0.8268795E+03  0.7818608E-02  0.9655435E-01
          2   -1    0    0  501    0  0.00000000000E+00  0.00000000000E+00  0.17152154504E+04  0.17152154504E+04  0.25500000000E-02 0. -1.
         -2   -1    0    0    0  501 -0.00000000000E+00 -0.00000000000E+00 -0.60926070238E+03  0.60926070239E+03  0.25500000000E-02 0.  1.
    8880023    1    1    2    0    0 -0.49973508736E+03  0.13576919610E+02  0.14705662819E+04  0.16870965847E+04  0.65864270000E+03 0.  0.
    8880022    1    1    2    0    0  0.49973508736E+03 -0.13576919610E+02 -0.36461153384E+03  0.63737956816E+03  0.15294330000E+03 0.  0.
<mgrwt>
<rscale>  0 0.73733327E+03</rscale>
<asrwt>0</asrwt>
<pdfrwt beam="1">  1        2 0.26387930E+00 0.82687949E+03</pdfrwt>
<pdfrwt beam="2">  1       -2 0.93732417E-01 0.82687949E+03</pdfrwt>
<totfact> 0.94179415E+00</totfact>
</mgrwt>
</event>
<event>
 4    2  0.2930016E-007  0.9386823E+03  0.7818608E-02  0.9466588E-01
         -2   -1    0    0    0  501 -0.00000000000E+00  0.00000000000E+00  0.51483628708E+03  0.51483628708E+03  0.25500000000E-02 0.  1.
          2   -1    0    0  501    0  0.00000000000E+00 -0.00000000000E+00 -0.20446789250E+04  0.20446789250E+04  0.25500000000E-02 0. -1.
    8880023    1    1    2    0    0 -0.15323794746E+03 -0.65102404597E+03 -0.16151927361E+04  0.18681466640E+04  0.65864270000E+03 0. -1.
    8880022    1    1    2    0    0  0.15323794746E+03  0.65102404597E+03  0.85350098252E+02  0.69136854807E+03  0.15294330000E+03 0.  0.
<mgrwt>
<rscale>  0 0.86792591E+03</rscale>
<asrwt>0</asrwt>
<pdfrwt beam="1">  1        2 0.31456598E+00 0.93868226E+03</pdfrwt>
<pdfrwt beam="2">  1       -2 0.79205584E-01 0.93868226E+03</pdfrwt>
<totfact> 0.90092620E+00</totfact>
</mgrwt>
</event>
<event>
 4    2  0.2930016E-007  0.9199847E+03  0.7818608E-02  0.9494682E-01
          2   -1    0    0  501    0  0.00000000000E+00  0.00000000000E+00  0.10387196889E+04  0.10387196889E+04  0.25500000000E-02 0. -1.
         -2   -1    0    0    0  501 -0.00000000000E+00 -0.00000000000E+00 -0.20231024560E+04  0.20231024560E+04  0.25500000000E-02 0.  1.
    8880023    1    1    2    0    0 -0.57738235101E+02  0.63970932407E+03  0.76213541757E+03  0.11946641051E+04  0.65864270000E+03 0.  0.
    8880022    1    1    2    0    0  0.57738235101E+02 -0.63970932407E+03 -0.17465181847E+04  0.18671580398E+04  0.15294330000E+03 0.  0.
<mgrwt>
<rscale>  0 0.84677002E+03</rscale>
<asrwt>0</asrwt>
<pdfrwt beam="1">  1        2 0.15980303E+00 0.91998474E+03</pdfrwt>
<pdfrwt beam="2">  1       -2 0.31124653E+00 0.91998474E+03</pdfrwt>
<totfact> 0.65684756E-01</totfact>
</mgrwt>
</event>
<event>
 4    2  0.2930016E-007  0.6992997E+03  0.7818608E-02  0.1000012E+00
          2   -1    0    0  501    0  0.00000000000E+00  0.00000000000E+00  0.25848954824E+04  0.25848954824E+04  0.25500000000E-02 0. -1.
         -2   -1    0    0    0  501 -0.00000000000E+00 -0.00000000000E+00 -0.17613671411E+03  0.17613671413E+03  0.25500000000E-02 0.  1.
    8880023    1    1    2    0    0  0.20698507697E+02 -0.23405441266E+03  0.23783528642E+04  0.24790285293E+04  0.65864270000E+03 0. -1.
    8880022    1    1    2    0    0 -0.20698507697E+02  0.23405441266E+03  0.30405904115E+02  0.28200366722E+03  0.15294330000E+03 0.  0.
<mgrwt>
<rscale>  0 0.55645033E+03</rscale>
<asrwt>0</asrwt>
<pdfrwt beam="1">  1        2 0.39767619E+00 0.69929972E+03</pdfrwt>
<pdfrwt beam="2">  1       -2 0.27097958E-01 0.69929972E+03</pdfrwt>
<totfact> 0.40425362E+01</totfact>
</mgrwt>
</event>
<event>
 4    2  0.2930016E-007  0.8189210E+03  0.7818608E-02  0.9671286E-01
          2   -1    0    0  501    0  0.00000000000E+00  0.00000000000E+00  0.44324541812E+03  0.44324541813E+03  0.25500000000E-02 0. -1.
         -2   -1    0    0    0  501 -0.00000000000E+00 -0.00000000000E+00 -0.40053853655E+04  0.40053853655E+04  0.25500000000E-02 0.  1.
    8880023    1    1    2    0    0  0.47661883584E+03  0.98264379711E+02  0.30955469395E+02  0.81950585742E+03  0.65864270000E+03 0. -1.
    8880022    1    1    2    0    0 -0.47661883584E+03 -0.98264379711E+02 -0.35930954167E+04  0.36291249262E+04  0.15294330000E+03 0.  0.
<mgrwt>
<rscale>  0 0.72752453E+03</rscale>
<asrwt>0</asrwt>
<pdfrwt beam="1">  1        2 0.68191606E-01 0.81892100E+03</pdfrwt>
<pdfrwt beam="2">  1       -2 0.61621311E+00 0.81892100E+03</pdfrwt>
<totfact> 0.31494967E-02</totfact>
</mgrwt>
</event>
<event>
 4    2  0.5131771E-007  0.7217511E+03  0.7818608E-02  0.9916705E-01
         -2   -1    0    0    0  501 -0.00000000000E+00  0.00000000000E+00  0.18233029624E+04  0.18233029624E+04  0.25500000000E-02 0.  1.
          2   -1    0    0  501    0  0.00000000000E+00 -0.00000000000E+00 -0.18607646537E+04  0.18607646537E+04  0.25500000000E-02 0. -1.
    8880023    1    1    2    0    0 -0.88981153949E+02 -0.28141914264E+03 -0.17744166604E+04  0.19155884397E+04  0.65864270000E+03 0. -1.
    8880022    1    1    2    0    0  0.88981153949E+02  0.28141914264E+03  0.17369549691E+04  0.17684791764E+04  0.15294330000E+03 0.  0.
<mgrwt>
<rscale>  0 0.59458482E+03</rscale>
<asrwt>0</asrwt>
<pdfrwt beam="1">  1        2 0.28627149E+00 0.72175106E+03</pdfrwt>
<pdfrwt beam="2">  1       -2 0.28050815E+00 0.72175106E+03</pdfrwt>
<totfact> 0.35553397E-01</totfact>
</mgrwt>
</event>
<event>
 4    2  0.2930016E-007  0.8270720E+03  0.7818608E-02  0.9655056E-01
         -2   -1    0    0    0  501 -0.00000000000E+00  0.00000000000E+00  0.25854773152E+03  0.25854773154E+03  0.25500000000E-02 0.  1.
          2   -1    0    0  501    0  0.00000000000E+00 -0.00000000000E+00 -0.32178650717E+04  0.32178650717E+04  0.25500000000E-02 0. -1.
    8880023    1    1    2    0    0  0.31142704580E+03  0.39147293104E+03 -0.28146941924E+04  0.29336924623E+04  0.65864270000E+03 0. -1.
    8880022    1    1    2    0    0 -0.31142704580E+03 -0.39147293104E+03 -0.14462314785E+03  0.54272034097E+03  0.15294330000E+03 0.  0.
<mgrwt>
<rscale>  0 0.73756933E+03</rscale>
<asrwt>0</asrwt>
<pdfrwt beam="1">  1        2 0.49505614E+00 0.82707198E+03</pdfrwt>
<pdfrwt beam="2">  1       -2 0.39776576E-01 0.82707198E+03</pdfrwt>
<totfact> 0.79749273E+00</totfact>
</mgrwt>
</event>
<event>
 4    2  0.2930016E-007  0.9652624E+03  0.7818608E-02  0.9428487E-01
         -2   -1    0    0    0  501 -0.00000000000E+00  0.00000000000E+00  0.17268119157E+04  0.17268119157E+04  0.25500000000E-02 0.  1.
          2   -1    0    0  501    0  0.00000000000E+00 -0.00000000000E+00 -0.65982514743E+03  0.65982514743E+03  0.25500000000E-02 0. -1.
    8880023    1    1    2    0    0  0.68223895974E+03 -0.18019784467E+03  0.13078638881E+04  0.16254966679E+04  0.65864270000E+03 0.  1.
    8880022    1    1    2    0    0 -0.68223895974E+03  0.18019784467E+03 -0.24087711979E+03  0.76114039523E+03  0.15294330000E+03 0.  0.
<mgrwt>
<rscale>  0 0.89767958E+03</rscale>
<asrwt>0</asrwt>
<pdfrwt beam="1">  1        2 0.10151156E+00 0.96526238E+03</pdfrwt>
<pdfrwt beam="2">  1       -2 0.26566336E+00 0.96526238E+03</pdfrwt>
<totfact> 0.22839470E+00</totfact>
</mgrwt>
</event>
<event>
 4    2  0.2930016E-007  0.7496171E+03  0.7818608E-02  0.9832770E-01
          2   -1    0    0  501    0  0.00000000000E+00  0.00000000000E+00  0.13069148742E+04  0.13069148742E+04  0.25500000000E-02 0. -1.
         -2   -1    0    0    0  501 -0.00000000000E+00 -0.00000000000E+00 -0.28766812667E+03  0.28766812668E+03  0.25500000000E-02 0.  1.
    8880023    1    1    2    0    0  0.23803463141E+03 -0.26731078912E+03  0.93133813953E+03  0.11955402461E+04  0.65864270000E+03 0. -1.
    8880022    1    1    2    0    0 -0.23803463141E+03  0.26731078912E+03  0.87908607997E+02  0.39904275473E+03  0.15294330000E+03 0.  0.
<mgrwt>
<rscale>  0 0.63633199E+03</rscale>
<asrwt>0</asrwt>
<pdfrwt beam="1">  1        2 0.20106383E+00 0.74961707E+03</pdfrwt>
<pdfrwt beam="2">  1       -2 0.44256635E-01 0.74961707E+03</pdfrwt>
<totfact> 0.80669218E+01</totfact>
</mgrwt>
</event>
<event>
 4    2  0.2930016E-007  0.6600764E+03  0.7818608E-02  0.1024078E+00
         -2   -1    0    0    0  501 -0.00000000000E+00  0.00000000000E+00  0.39013306784E+03  0.39013306785E+03  0.25500000000E-02 0.  1.
          2   -1    0    0  501    0  0.00000000000E+00 -0.00000000000E+00 -0.64149391239E+03  0.64149391239E+03  0.25500000000E-02 0. -1.
    8880023    1    1    2    0    0  0.15755297132E+01  0.43453237013E+02 -0.43361521035E+03  0.78976137093E+03  0.65864270000E+03 0.  0.
    8880022    1    1    2    0    0 -0.15755297132E+01 -0.43453237013E+02  0.18225436580E+03  0.24186560931E+03  0.15294330000E+03 0.  1.
<mgrwt>
<rscale>  0 0.46243189E+03</rscale>
<asrwt>0</asrwt>
<pdfrwt beam="1">  1        2 0.98691371E-01 0.66007641E+03</pdfrwt>
<pdfrwt beam="2">  1       -2 0.60020472E-01 0.66007641E+03</pdfrwt>
<totfact> 0.12024120E+02</totfact>
</mgrwt>
</event>
<event>
 4    2  0.2930016E-007  0.7946219E+03  0.7818608E-02  0.9722548E-01
          2   -1    0    0  501    0  0.00000000000E+00  0.00000000000E+00  0.11566897516E+04  0.11566897516E+04  0.25500000000E-02 0. -1.
         -2   -1    0    0    0  501 -0.00000000000E+00 -0.00000000000E+00 -0.72726924117E+03  0.72726924118E+03  0.25500000000E-02 0.  1.
    8880023    1    1    2    0    0 -0.43461125858E+03  0.93416991239E+02  0.91242972054E+03  0.12099387925E+04  0.65864270000E+03 0. -1.
    8880022    1    1    2    0    0  0.43461125858E+03 -0.93416991239E+02 -0.48300921012E+03  0.67402020030E+03  0.15294330000E+03 0.  0.
<mgrwt>
<rscale>  0 0.69690041E+03</rscale>
<asrwt>0</asrwt>
<pdfrwt beam="1">  1        2 0.17795227E+00 0.79462185E+03</pdfrwt>
<pdfrwt beam="2">  1       -2 0.11188758E+00 0.79462185E+03</pdfrwt>
<totfact> 0.12853927E+01</totfact>
</mgrwt>
</event>
<event>
 4    2  0.2930016E-007  0.1012682E+04  0.7818608E-02  0.9365150E-01
         -2   -1    0    0    0  501 -0.00000000000E+00  0.00000000000E+00  0.70294116851E+03  0.70294116852E+03  0.25500000000E-02 0.  1.
          2   -1    0    0  501    0  0.00000000000E+00 -0.00000000000E+00 -0.28747053032E+04  0.28747053032E+04  0.25500000000E-02 0. -1.
    8880023    1    1    2    0    0 -0.58917911442E+03  0.49455354684E+03 -0.25227398445E+04  0.27184079475E+04  0.65864270000E+03 0.  0.
    8880022    1    1    2    0    0  0.58917911442E+03 -0.49455354684E+03  0.35097570986E+03  0.85923852421E+03  0.15294330000E+03 0.  0.
<mgrwt>
<rscale>  0 0.95000029E+03</rscale>
<asrwt>0</asrwt>
<pdfrwt beam="1">  1        2 0.44226235E+00 0.10126823E+04</pdfrwt>
<pdfrwt beam="2">  1       -2 0.10814480E+00 0.10126823E+04</pdfrwt>
<totfact> 0.14453962E+00</totfact>
</mgrwt>
</event>
<event>
 4    2  0.2930016E-007  0.7317173E+03  0.7818608E-02  0.9884766E-01
         -2   -1    0    0    0  501 -0.00000000000E+00  0.00000000000E+00  0.76131946135E+03  0.76131946135E+03  0.25500000000E-02 0.  1.
          2   -1    0    0  501    0  0.00000000000E+00 -0.00000000000E+00 -0.80376396517E+03  0.80376396517E+03  0.25500000000E-02 0. -1.
    8880023    1    1    2    0    0 -0.25854820345E+03  0.18642092381E+03 -0.57172190318E+03  0.92858821615E+03  0.65864270000E+03 0. -1.
    8880022    1    1    2    0    0  0.25854820345E+03 -0.18642092381E+03  0.52927739936E+03  0.63649521037E+03  0.15294330000E+03 0.  0.
<mgrwt>
<rscale>  0 0.61005300E+03</rscale>
<asrwt>0</asrwt>
<pdfrwt beam="1">  1        2 0.12365599E+00 0.73171725E+03</pdfrwt>
<pdfrwt beam="2">  1       -2 0.11712607E+00 0.73171725E+03</pdfrwt>
<totfact> 0.19616740E+01</totfact>
</mgrwt>
</event>
<event>
 4    2  0.2930016E-007  0.8713597E+03  0.7818608E-02  0.9573668E-01
          2   -1    0    0  501    0  0.00000000000E+00  0.00000000000E+00  0.19045637431E+04  0.19045637431E+04  0.25500000000E-02 0. -1.
         -2   -1    0    0    0  501 -0.00000000000E+00 -0.00000000000E+00 -0.48220652155E+03  0.48220652155E+03  0.25500000000E-02 0.  1.
    8880023    1    1    2    0    0 -0.54043910098E+03  0.18271047579E+03  0.15540175140E+04  0.17816391834E+04  0.65864270000E+03 0. -1.
    8880022    1    1    2    0    0  0.54043910098E+03 -0.18271047579E+03 -0.13166029246E+03  0.60513108122E+03  0.15294330000E+03 0.  0.
<mgrwt>
<rscale>  0 0.79063825E+03</rscale>
<asrwt>0</asrwt>
<pdfrwt beam="1">  1        2 0.29300981E+00 0.87135971E+03</pdfrwt>
<pdfrwt beam="2">  1       -2 0.74185618E-01 0.87135971E+03</pdfrwt>
<totfact> 0.12550770E+01</totfact>
</mgrwt>
</event>
<event>
 4    2  0.3023880E-007  0.8607331E+03  0.7818608E-02  0.9592261E-01
         -2   -1    0    0    0  501 -0.00000000000E+00  0.00000000000E+00  0.61236877154E+03  0.61236877154E+03  0.25500000000E-02 0.  1.
          2   -1    0    0  501    0  0.00000000000E+00 -0.00000000000E+00 -0.26527403411E+04  0.26527403411E+04  0.25500000000E-02 0. -1.
    8880023    1    1    2    0    0  0.54080532011E+03  0.12075109227E+03 -0.24251552325E+04  0.25733711992E+04  0.65864270000E+03 0. -1.
    8880022    1    1    2    0    0 -0.54080532011E+03 -0.12075109227E+03  0.38478366302E+03  0.69173791343E+03  0.15294330000E+03 0.  0.
<mgrwt>
<rscale>  0 0.77810538E+03</rscale>
<asrwt>0</asrwt>
<pdfrwt beam="1">  1        2 0.40811389E+00 0.86073308E+03</pdfrwt>
<pdfrwt beam="2">  1       -2 0.94210582E-01 0.86073308E+03</pdfrwt>
<totfact> 0.27843531E+00</totfact>
</mgrwt>
</event>
<event>
 4    2  0.2930016E-007  0.7761486E+03  0.7818608E-02  0.9764963E-01
          2   -1    0    0  501    0  0.00000000000E+00  0.00000000000E+00  0.19159332440E+04  0.19159332440E+04  0.25500000000E-02 0. -1.
         -2   -1    0    0    0  501 -0.00000000000E+00 -0.00000000000E+00 -0.22828695675E+03  0.22828695677E+03  0.25500000000E-02 0.  1.
    8880023    1    1    2    0    0 -0.40631823664E+03  0.59177673652E+02  0.14526981732E+04  0.16470393727E+04  0.65864270000E+03 0. -1.
    8880022    1    1    2    0    0  0.40631823664E+03 -0.59177673652E+02  0.23494811400E+03  0.49718082804E+03  0.15294330000E+03 0.  0.
<mgrwt>
<rscale>  0 0.67277211E+03</rscale>
<asrwt>0</asrwt>
<pdfrwt beam="1">  1        2 0.29475896E+00 0.77614864E+03</pdfrwt>
<pdfrwt beam="2">  1       -2 0.35121070E-01 0.77614864E+03</pdfrwt>
<totfact> 0.58009217E+01</totfact>
</mgrwt>
</event>
<event>
 4    2  0.2930016E-007  0.6835357E+03  0.7818608E-02  0.1007390E+00
         -2   -1    0    0    0  501 -0.00000000000E+00  0.00000000000E+00  0.23193208803E+03  0.23193208805E+03  0.25500000000E-02 0.  1.
          2   -1    0    0  501    0  0.00000000000E+00 -0.00000000000E+00 -0.18568566872E+04  0.18568566872E+04  0.25500000000E-02 0. -1.
    8880023    1    1    2    0    0  0.58441229235E+02  0.17319204510E+03 -0.17053620253E+04  0.18372481338E+04  0.65864270000E+03 0. -1.
    8880022    1    1    2    0    0 -0.58441229235E+02 -0.17319204510E+03  0.80437426089E+02  0.25154064143E+03  0.15294330000E+03 0.  0.
<mgrwt>
<rscale>  0 0.52525096E+03</rscale>
<asrwt>0</asrwt>
<pdfrwt beam="1">  1        2 0.28567025E+00 0.68353571E+03</pdfrwt>
<pdfrwt beam="2">  1       -2 0.35681861E-01 0.68353571E+03</pdfrwt>
<totfact> 0.61264570E+01</totfact>
</mgrwt>
</event>
<event>
 4    2  0.2930016E-007  0.8332137E+03  0.7818608E-02  0.9643112E-01
         -2   -1    0    0    0  501 -0.00000000000E+00  0.00000000000E+00  0.42158561528E+03  0.42158561529E+03  0.25500000000E-02 0.  1.
          2   -1    0    0  501    0  0.00000000000E+00 -0.00000000000E+00 -0.11407652175E+04  0.11407652175E+04  0.25500000000E-02 0. -1.
    8880023    1    1    2    0    0 -0.21400873721E+03 -0.46328725830E+03 -0.30405341229E+03  0.88695744379E+03  0.65864270000E+03 0.  1.
    8880022    1    1    2    0    0  0.21400873721E+03  0.46328725830E+03 -0.41512618991E+03  0.67539338897E+03  0.15294330000E+03 0. -1.
<mgrwt>
<rscale>  0 0.74507314E+03</rscale>
<asrwt>0</asrwt>
<pdfrwt beam="1">  1        2 0.17550234E+00 0.83321368E+03</pdfrwt>
<pdfrwt beam="2">  1       -2 0.64859326E-01 0.83321368E+03</pdfrwt>
<totfact> 0.45547875E+01</totfact>
</mgrwt>
</event>
<event>
 4    2  0.2930016E-007  0.8590113E+03  0.7818608E-02  0.9595325E-01
         -2   -1    0    0    0  501 -0.00000000000E+00  0.00000000000E+00  0.67207079871E+03  0.67207079872E+03  0.25500000000E-02 0.  1.
          2   -1    0    0  501    0  0.00000000000E+00 -0.00000000000E+00 -0.18692360349E+04  0.18692360349E+04  0.25500000000E-02 0. -1.
    8880023    1    1    2    0    0  0.51913176640E+03 -0.18599027912E+03  0.32242984887E+03  0.91753004775E+03  0.65864270000E+03 0.  0.
    8880022    1    1    2    0    0 -0.51913176640E+03  0.18599027912E+03 -0.15195950850E+04  0.16237767859E+04  0.15294330000E+03 0.  0.
<mgrwt>
<rscale>  0 0.77606402E+03</rscale>
<asrwt>0</asrwt>
<pdfrwt beam="1">  1        2 0.28757477E+00 0.85901128E+03</pdfrwt>
<pdfrwt beam="2">  1       -2 0.10339551E+00 0.85901128E+03</pdfrwt>
<totfact> 0.61231757E+00</totfact>
</mgrwt>
</event>
<event>
 4    2  0.2930016E-007  0.1356752E+04  0.7818608E-02  0.9018037E-01
          2   -1    0    0  501    0  0.00000000000E+00  0.00000000000E+00  0.20466240298E+04  0.20466240298E+04  0.25500000000E-02 0. -1.
         -2   -1    0    0    0  501 -0.00000000000E+00 -0.00000000000E+00 -0.96413345481E+03  0.96413345481E+03  0.25500000000E-02 0.  1.
    8880023    1    1    2    0    0  0.68750597100E+03  0.96659302014E+03 -0.58230608615E+02  0.13580013022E+04  0.65864270000E+03 0.  1.
    8880022    1    1    2    0    0 -0.68750597100E+03 -0.96659302014E+03  0.11407211836E+04  0.16527561824E+04  0.15294330000E+03 0.  0.
<mgrwt>
<rscale>  0 0.13146375E+04</rscale>
<asrwt>0</asrwt>
<pdfrwt beam="1">  1        2 0.31486523E+00 0.13567523E+04</pdfrwt>
<pdfrwt beam="2">  1       -2 0.14832822E+00 0.13567523E+04</pdfrwt>
<totfact> 0.18602006E+00</totfact>
</mgrwt>
</event>
<event>
 4    2  0.2930016E-007  0.1057839E+04  0.7818608E-02  0.9309517E-01
         -2   -1    0    0    0  501 -0.00000000000E+00  0.00000000000E+00  0.11354992388E+04  0.11354992388E+04  0.25500000000E-02 0.  1.
          2   -1    0    0  501    0  0.00000000000E+00 -0.00000000000E+00 -0.15873280352E+04  0.15873280352E+04  0.25500000000E-02 0. -1.
    8880023    1    1    2    0    0 -0.12606888483E+03  0.81811974454E+03  0.72026811688E+03  0.12797693724E+04  0.65864270000E+03 0.  0.
    8880022    1    1    2    0    0  0.12606888483E+03 -0.81811974454E+03 -0.11720969133E+04  0.14430579016E+04  0.15294330000E+03 0.  0.
<mgrwt>
<rscale>  0 0.99911441E+03</rscale>
<asrwt>0</asrwt>
<pdfrwt beam="1">  1        2 0.24420431E+00 0.10578391E+04</pdfrwt>
<pdfrwt beam="2">  1       -2 0.17469219E+00 0.10578391E+04</pdfrwt>
<totfact> 0.22073857E+00</totfact>
</mgrwt>
</event>
<event>
 4    2  0.2930016E-007  0.6633852E+03  0.7818608E-02  0.1020928E+00
          2   -1    0    0  501    0  0.00000000000E+00  0.00000000000E+00  0.74522915282E+03  0.74522915283E+03  0.25500000000E-02 0. -1.
         -2   -1    0    0    0  501 -0.00000000000E+00 -0.00000000000E+00 -0.34621396415E+03  0.34621396416E+03  0.25500000000E-02 0.  1.
    8880023    1    1    2    0    0 -0.73701069990E+02  0.28946078545E+02  0.55052044421E+03  0.86206304232E+03  0.65864270000E+03 0. -1.
    8880022    1    1    2    0    0  0.73701069990E+02 -0.28946078545E+02 -0.15150525554E+03  0.22938007466E+03  0.15294330000E+03 0.  0.
<mgrwt>
<rscale>  0 0.47353082E+03</rscale>
<asrwt>0</asrwt>
<pdfrwt beam="1">  1        2 0.11465064E+00 0.66338520E+03</pdfrwt>
<pdfrwt beam="2">  1       -2 0.53263688E-01 0.66338520E+03</pdfrwt>
<totfact> 0.12776234E+02</totfact>
</mgrwt>
</event>
<event>
 4    2  0.2930016E-007  0.7543487E+03  0.7818608E-02  0.9819964E-01
          2   -1    0    0  501    0  0.00000000000E+00  0.00000000000E+00  0.86184530048E+03  0.86184530048E+03  0.25500000000E-02 0. -1.
         -2   -1    0    0    0  501 -0.00000000000E+00 -0.00000000000E+00 -0.49619391059E+03  0.49619391060E+03  0.25500000000E-02 0.  1.
    8880023    1    1    2    0    0  0.14507464357E+02  0.36745242144E+03  0.53546201790E+03  0.92507379567E+03  0.65864270000E+03 0.  0.
    8880022    1    1    2    0    0 -0.14507464357E+02 -0.36745242144E+03 -0.16981062802E+03  0.43296541542E+03  0.15294330000E+03 0.  0.
<mgrwt>
<rscale>  0 0.64302079E+03</rscale>
<asrwt>0</asrwt>
<pdfrwt beam="1">  1        2 0.13259158E+00 0.75434870E+03</pdfrwt>
<pdfrwt beam="2">  1       -2 0.76337525E-01 0.75434870E+03</pdfrwt>
<totfact> 0.48472732E+01</totfact>
</mgrwt>
</event>
<event>
 4    2  0.2930016E-007  0.1173293E+04  0.7818608E-02  0.9183531E-01
         -2   -1    0    0    0  501 -0.00000000000E+00  0.00000000000E+00  0.87231176426E+03  0.87231176426E+03  0.25500000000E-02 0.  1.
          2   -1    0    0  501    0  0.00000000000E+00 -0.00000000000E+00 -0.32497543730E+04  0.32497543730E+04  0.25500000000E-02 0. -1.
    8880023    1    1    2    0    0  0.73685367590E+03  0.63233956026E+03 -0.28122860662E+04  0.30472232907E+04  0.65864270000E+03 0. -1.
    8880022    1    1    2    0    0 -0.73685367590E+03 -0.63233956026E+03  0.43484345748E+03  0.10748428465E+04  0.15294330000E+03 0.  0.
<mgrwt>
<rscale>  0 0.11225048E+04</rscale>
<asrwt>0</asrwt>
<pdfrwt beam="1">  1        2 0.49996221E+00 0.11732932E+04</pdfrwt>
<pdfrwt beam="2">  1       -2 0.13420181E+00 0.11732932E+04</pdfrwt>
<totfact> 0.47931593E-01</totfact>
</mgrwt>
</event>
<event>
 4    2  0.3471570E-007  0.6905445E+03  0.7818608E-02  0.1003895E+00
         -2   -1    0    0    0  501 -0.00000000000E+00  0.00000000000E+00  0.12900966620E+04  0.12900966620E+04  0.25500000000E-02 0.  1.
          2   -1    0    0  501    0  0.00000000000E+00 -0.00000000000E+00 -0.31980983164E+04  0.31980983164E+04  0.25500000000E-02 0. -1.
    8880023    1    1    2    0    0  0.14518260658E+03  0.14820080188E+03 -0.31474085938E+04  0.32222713308E+04  0.65864270000E+03 0. -1.
    8880022    1    1    2    0    0 -0.14518260658E+03 -0.14820080188E+03  0.12394069394E+04  0.12659236475E+04  0.15294330000E+03 0.  0.
<mgrwt>
<rscale>  0 0.53974897E+03</rscale>
<asrwt>0</asrwt>
<pdfrwt beam="1">  1        2 0.49201512E+00 0.69054448E+03</pdfrwt>
<pdfrwt beam="2">  1       -2 0.19847641E+00 0.69054448E+03</pdfrwt>
<totfact> 0.19505133E-01</totfact>
</mgrwt>
</event>
<event>
 4    2  0.2930016E-007  0.6826079E+03  0.7818608E-02  0.1007885E+00
          2   -1    0    0  501    0  0.00000000000E+00  0.00000000000E+00  0.44433748887E+03  0.44433748888E+03  0.25500000000E-02 0. -1.
         -2   -1    0    0    0  501 -0.00000000000E+00 -0.00000000000E+00 -0.57579485008E+03  0.57579485009E+03  0.25500000000E-02 0.  1.
    8880023    1    1    2    0    0  0.15479589459E+03 -0.90452045342E+02  0.99910377218E+02  0.68988088191E+03  0.65864270000E+03 0.  0.
    8880022    1    1    2    0    0 -0.15479589459E+03  0.90452045342E+02 -0.23136773843E+03  0.33025145706E+03  0.15294330000E+03 0.  0.
<mgrwt>
<rscale>  0 0.52323806E+03</rscale>
<asrwt>0</asrwt>
<pdfrwt beam="1">  1        2 0.68359614E-01 0.68260790E+03</pdfrwt>
<pdfrwt beam="2">  1       -2 0.88583823E-01 0.68260790E+03</pdfrwt>
<totfact> 0.78507624E+01</totfact>
</mgrwt>
</event>
<event>
 4    2  0.2930016E-007  0.6831787E+03  0.7818608E-02  0.1007580E+00
         -2   -1    0    0    0  501 -0.00000000000E+00  0.00000000000E+00  0.25973894745E+03  0.25973894746E+03  0.25500000000E-02 0.  1.
          2   -1    0    0  501    0  0.00000000000E+00 -0.00000000000E+00 -0.29734535931E+04  0.29734535931E+04  0.25500000000E-02 0. -1.
    8880023    1    1    2    0    0 -0.17765220588E+03  0.36913270165E+02 -0.28692464972E+04  0.29494590290E+04  0.65864270000E+03 0. -1.
    8880022    1    1    2    0    0  0.17765220588E+03 -0.36913270165E+02  0.15553185150E+03  0.28373351162E+03  0.15294330000E+03 0.  0.
<mgrwt>
<rscale>  0 0.52447924E+03</rscale>
<asrwt>0</asrwt>
<pdfrwt beam="1">  1        2 0.45745437E+00 0.68317868E+03</pdfrwt>
<pdfrwt beam="2">  1       -2 0.39959840E-01 0.68317868E+03</pdfrwt>
<totfact> 0.11523650E+01</totfact>
</mgrwt>
</event>
<event>
 4    2  0.2930016E-007  0.6775129E+03  0.7818608E-02  0.1010767E+00
         -2   -1    0    0    0  501 -0.00000000000E+00  0.00000000000E+00  0.42233031510E+03  0.42233031511E+03  0.25500000000E-02 0.  1.
          2   -1    0    0  501    0  0.00000000000E+00 -0.00000000000E+00 -0.26157529216E+04  0.26157529216E+04  0.25500000000E-02 0. -1.
    8880023    1    1    2    0    0  0.15083179463E+03  0.49631501454E+02 -0.25391821871E+04  0.26280163436E+04  0.65864270000E+03 0. -1.
    8880022    1    1    2    0    0 -0.15083179463E+03 -0.49631501454E+02  0.34575958067E+03  0.41006689314E+03  0.15294330000E+03 0.  0.
<mgrwt>
<rscale>  0 0.51170950E+03</rscale>
<asrwt>0</asrwt>
<pdfrwt beam="1">  1        2 0.40242352E+00 0.67751289E+03</pdfrwt>
<pdfrwt beam="2">  1       -2 0.64973896E-01 0.67751289E+03</pdfrwt>
<totfact> 0.69467080E+00</totfact>
</mgrwt>
</event>
<event>
 4    2  0.3566581E-007  0.7736748E+03  0.7818608E-02  0.9770910E-01
         -2   -1    0    0    0  501 -0.00000000000E+00  0.00000000000E+00  0.92190952722E+03  0.92190952723E+03  0.25500000000E-02 0.  1.
          2   -1    0    0  501    0  0.00000000000E+00 -0.00000000000E+00 -0.15672203077E+04  0.15672203077E+04  0.25500000000E-02 0. -1.
    8880023    1    1    2    0    0 -0.27444342581E+03  0.29907078575E+03 -0.14109542204E+04  0.16091502562E+04  0.65864270000E+03 0. -1.
    8880022    1    1    2    0    0  0.27444342581E+03 -0.29907078575E+03  0.76564343990E+03  0.87997957870E+03  0.15294330000E+03 0.  0.
<mgrwt>
<rscale>  0 0.66947303E+03</rscale>
<asrwt>0</asrwt>
<pdfrwt beam="1">  1        2 0.24111082E+00 0.77367483E+03</pdfrwt>
<pdfrwt beam="2">  1       -2 0.14183223E+00 0.77367483E+03</pdfrwt>
<totfact> 0.41348836E+00</totfact>
</mgrwt>
</event>
<event>
 4    2  0.2930016E-007  0.8602620E+03  0.7818608E-02  0.9593098E-01
          2   -1    0    0  501    0  0.00000000000E+00  0.00000000000E+00  0.28335524256E+03  0.28335524257E+03  0.25500000000E-02 0. -1.
         -2   -1    0    0    0  501 -0.00000000000E+00 -0.00000000000E+00 -0.26214932305E+04  0.26214932305E+04  0.25500000000E-02 0.  1.
    8880023    1    1    2    0    0 -0.41127008661E+03  0.37026658374E+03 -0.53627510144E+03  0.10137265992E+04  0.65864270000E+03 0.  0.
    8880022    1    1    2    0    0  0.41127008661E+03 -0.37026658374E+03 -0.18018628865E+04  0.18911218739E+04  0.15294330000E+03 0.  0.
<mgrwt>
<rscale>  0 0.77754713E+03</rscale>
<asrwt>0</asrwt>
<pdfrwt beam="1">  1        2 0.43593116E-01 0.86026196E+03</pdfrwt>
<pdfrwt beam="2">  1       -2 0.40330663E+00 0.86026196E+03</pdfrwt>
<totfact> 0.86192749E-01</totfact>
</mgrwt>
</event>
<event>
 4    2  0.2930016E-007  0.8183707E+03  0.7818608E-02  0.9672398E-01
         -2   -1    0    0    0  501 -0.00000000000E+00  0.00000000000E+00  0.29941192628E+03  0.29941192629E+03  0.25500000000E-02 0.  1.
          2   -1    0    0  501    0  0.00000000000E+00 -0.00000000000E+00 -0.15346151541E+04  0.15346151541E+04  0.25500000000E-02 0. -1.
    8880023    1    1    2    0    0  0.11675049511E+03 -0.47147613230E+03 -0.57465683803E+03  0.99998055441E+03  0.65864270000E+03 0. -1.
    8880022    1    1    2    0    0 -0.11675049511E+03  0.47147613230E+03 -0.66054638976E+03  0.83404652597E+03  0.15294330000E+03 0.  1.
<mgrwt>
<rscale>  0 0.72684265E+03</rscale>
<asrwt>0</asrwt>
<pdfrwt beam="1">  1        2 0.23609463E+00 0.81837072E+03</pdfrwt>
<pdfrwt beam="2">  1       -2 0.46063374E-01 0.81837072E+03</pdfrwt>
<totfact> 0.55037965E+01</totfact>
</mgrwt>
</event>
<event>
 4    2  0.2930016E-007  0.8443460E+03  0.7818608E-02  0.9622039E-01
         -2   -1    0    0    0  501 -0.00000000000E+00  0.00000000000E+00  0.84142424808E+03  0.84142424809E+03  0.25500000000E-02 0.  1.
          2   -1    0    0  501    0  0.00000000000E+00 -0.00000000000E+00 -0.14857917027E+04  0.14857917027E+04  0.25500000000E-02 0. -1.
    8880023    1    1    2    0    0  0.22320827131E+03  0.47884030589E+03 -0.12504228033E+04  0.15087999749E+04  0.65864270000E+03 0. -1.
    8880022    1    1    2    0    0 -0.22320827131E+03 -0.47884030589E+03  0.60605534868E+03  0.81841597590E+03  0.15294330000E+03 0.  0.
<mgrwt>
<rscale>  0 0.75854492E+03</rscale>
<asrwt>0</asrwt>
<pdfrwt beam="1">  1        2 0.22858334E+00 0.84434601E+03</pdfrwt>
<pdfrwt beam="2">  1       -2 0.12944988E+00 0.84434601E+03</pdfrwt>
<totfact> 0.57441276E+00</totfact>
</mgrwt>
</event>
<event>
 4    2  0.2930016E-007  0.6974818E+03  0.7818608E-02  0.1000781E+00
          2   -1    0    0  501    0  0.00000000000E+00  0.00000000000E+00  0.20723068956E+04  0.20723068956E+04  0.25500000000E-02 0. -1.
         -2   -1    0    0    0  501 -0.00000000000E+00 -0.00000000000E+00 -0.26575410351E+03  0.26575410352E+03  0.25500000000E-02 0.  1.
    8880023    1    1    2    0    0  0.22165808111E+03 -0.59483826975E+02  0.19177847458E+04  0.20406810550E+04  0.65864270000E+03 0. -1.
    8880022    1    1    2    0    0 -0.22165808111E+03  0.59483826975E+02 -0.11123195378E+03  0.29737994409E+03  0.15294330000E+03 0.  0.
<mgrwt>
<rscale>  0 0.55309002E+03</rscale>
<asrwt>0</asrwt>
<pdfrwt beam="1">  1        2 0.31881644E+00 0.69748178E+03</pdfrwt>
<pdfrwt beam="2">  1       -2 0.40885248E-01 0.69748178E+03</pdfrwt>
<totfact> 0.35890924E+01</totfact>
</mgrwt>
</event>
<event>
 4    2  0.2930016E-007  0.7024678E+03  0.7818608E-02  0.9987114E-01
          2   -1    0    0  501    0  0.00000000000E+00  0.00000000000E+00  0.15082661423E+04  0.15082661423E+04  0.25500000000E-02 0. -1.
         -2   -1    0    0    0  501 -0.00000000000E+00 -0.00000000000E+00 -0.35724495304E+03  0.35724495304E+03  0.25500000000E-02 0.  1.
    8880023    1    1    2    0    0 -0.50619090514E+02  0.23893207771E+03  0.13455122328E+04  0.15178485448E+04  0.65864270000E+03 0.  0.
    8880022    1    1    2    0    0  0.50619090514E+02 -0.23893207771E+03 -0.19449104347E+03  0.34766255060E+03  0.15294330000E+03 0.  0.
<mgrwt>
<rscale>  0 0.56218903E+03</rscale>
<asrwt>0</asrwt>
<pdfrwt beam="1">  1        2 0.23204094E+00 0.70246782E+03</pdfrwt>
<pdfrwt beam="2">  1       -2 0.54960762E-01 0.70246782E+03</pdfrwt>
<totfact> 0.40200312E+01</totfact>
</mgrwt>
</event>
<event>
 4    2  0.2930016E-007  0.7638531E+03  0.7818608E-02  0.9795233E-01
         -2   -1    0    0    0  501 -0.00000000000E+00  0.00000000000E+00  0.49825725586E+03  0.49825725587E+03  0.25500000000E-02 0.  1.
          2   -1    0    0  501    0  0.00000000000E+00 -0.00000000000E+00 -0.13952459132E+04  0.13952459132E+04  0.25500000000E-02 0. -1.
    8880023    1    1    2    0    0 -0.14657831954E+03 -0.35801689591E+03 -0.11690239777E+04  0.13964557165E+04  0.65864270000E+03 0. -1.
    8880022    1    1    2    0    0  0.14657831954E+03  0.35801689591E+03  0.27203532038E+03  0.49704745253E+03  0.15294330000E+03 0.  0.
<mgrwt>
<rscale>  0 0.65619021E+03</rscale>
<asrwt>0</asrwt>
<pdfrwt beam="1">  1        2 0.21465322E+00 0.76385307E+03</pdfrwt>
<pdfrwt beam="2">  1       -2 0.76654963E-01 0.76385307E+03</pdfrwt>
<totfact> 0.22601560E+01</totfact>
</mgrwt>
</event>
<event>
 4    2  0.2930016E-007  0.6588190E+03  0.7818608E-02  0.1025400E+00
          2   -1    0    0  501    0  0.00000000000E+00  0.00000000000E+00  0.23559166188E+04  0.23559166188E+04  0.25500000000E-02 0. -1.
         -2   -1    0    0    0  501 -0.00000000000E+00 -0.00000000000E+00 -0.11077695464E+03  0.11077695467E+03  0.25500000000E-02 0.  1.
    8880023    1    1    2    0    0  0.14563987756E+02 -0.44850637019E+01  0.22139037121E+04  0.23098510944E+04  0.65864270000E+03 0. -1.
    8880022    1    1    2    0    0 -0.14563987756E+02  0.44850637019E+01  0.31235952091E+02  0.15684247911E+03  0.15294330000E+03 0.  0.
<mgrwt>
<rscale>  0 0.45787135E+03</rscale>
<asrwt>0</asrwt>
<pdfrwt beam="1">  1        2 0.36244872E+00 0.65881897E+03</pdfrwt>
<pdfrwt beam="2">  1       -2 0.17042608E-01 0.65881897E+03</pdfrwt>
<totfact> 0.12405391E+02</totfact>
</mgrwt>
</event>
<event>
 4    2  0.2930016E-007  0.6760433E+03  0.7818608E-02  0.1011657E+00
          2   -1    0    0  501    0  0.00000000000E+00  0.00000000000E+00  0.38905615806E+03  0.38905615807E+03  0.25500000000E-02 0. -1.
         -2   -1    0    0    0  501 -0.00000000000E+00 -0.00000000000E+00 -0.55806808869E+03  0.55806808870E+03  0.25500000000E-02 0.  1.
    8880023    1    1    2    0    0  0.10541708699E+03  0.11005256748E+03 -0.51267232070E+01  0.67606273333E+03  0.65864270000E+03 0.  0.
    8880022    1    1    2    0    0 -0.10541708699E+03 -0.11005256748E+03 -0.16388520742E+03  0.27106151344E+03  0.15294330000E+03 0.  0.
<mgrwt>
<rscale>  0 0.50821530E+03</rscale>
<asrwt>0</asrwt>
<pdfrwt beam="1">  1        2 0.59854793E-01 0.67604329E+03</pdfrwt>
<pdfrwt beam="2">  1       -2 0.85856630E-01 0.67604329E+03</pdfrwt>
<totfact> 0.98004730E+01</totfact>
</mgrwt>
</event>
<event>
 4    2  0.2930016E-007  0.6618515E+03  0.7818608E-02  0.1022335E+00
          2   -1    0    0  501    0  0.00000000000E+00  0.00000000000E+00  0.30631654575E+04  0.30631654575E+04  0.25500000000E-02 0. -1.
         -2   -1    0    0    0  501 -0.00000000000E+00 -0.00000000000E+00 -0.84276440436E+02  0.84276440474E+02  0.25500000000E-02 0.  1.
    8880023    1    1    2    0    0 -0.64290567841E+02 -0.10194205777E+02  0.28777324530E+04  0.29528615741E+04  0.65864270000E+03 0. -1.
    8880022    1    1    2    0    0  0.64290567841E+02  0.10194205777E+02  0.10115656409E+03  0.19458032382E+03  0.15294330000E+03 0.  0.
<mgrwt>
<rscale>  0 0.46853363E+03</rscale>
<asrwt>0</asrwt>
<pdfrwt beam="1">  1        2 0.47125624E+00 0.66185150E+03</pdfrwt>
<pdfrwt beam="2">  1       -2 0.12965606E-01 0.66185150E+03</pdfrwt>
<totfact> 0.76146842E+01</totfact>
</mgrwt>
</event>
<event>
 4    2  0.2930016E-007  0.6670627E+03  0.7818608E-02  0.1017862E+00
          2   -1    0    0  501    0  0.00000000000E+00  0.00000000000E+00  0.33237883250E+04  0.33237883250E+04  0.25500000000E-02 0. -1.
         -2   -1    0    0    0  501 -0.00000000000E+00 -0.00000000000E+00 -0.62415908484E+02  0.62415908537E+02  0.25500000000E-02 0.  1.
    8880023    1    1    2    0    0 -0.99608334395E+02 -0.35222464667E+02  0.29419752007E+04  0.30166522389E+04  0.65864270000E+03 0.  0.
    8880022    1    1    2    0    0  0.99608334395E+02  0.35222464667E+02  0.31939721579E+03  0.36955199468E+03  0.15294330000E+03 0.  0.
<mgrwt>
<rscale>  0 0.48466029E+03</rscale>
<asrwt>0</asrwt>
<pdfrwt beam="1">  1        2 0.51135185E+00 0.66706270E+03</pdfrwt>
<pdfrwt beam="2">  1       -2 0.96024512E-02 0.66706270E+03</pdfrwt>
<totfact> 0.85121455E+01</totfact>
</mgrwt>
</event>
<event>
 4    2  0.2930016E-007  0.8465705E+03  0.7818608E-02  0.9617913E-01
          2   -1    0    0  501    0  0.00000000000E+00  0.00000000000E+00  0.34030351748E+04  0.34030351748E+04  0.25500000000E-02 0. -1.
         -2   -1    0    0    0  501 -0.00000000000E+00 -0.00000000000E+00 -0.72575258070E+03  0.72575258070E+03  0.25500000000E-02 0.  1.
    8880023    1    1    2    0    0 -0.13941165250E+03 -0.51325996669E+03  0.32344991721E+04  0.33434512862E+04  0.65864270000E+03 0. -1.
    8880022    1    1    2    0    0  0.13941165250E+03  0.51325996669E+03 -0.55721657801E+03  0.78533646934E+03  0.15294330000E+03 0.  0.
<mgrwt>
<rscale>  0 0.76121822E+03</rscale>
<asrwt>0</asrwt>
<pdfrwt beam="1">  1        2 0.52354388E+00 0.84657050E+03</pdfrwt>
<pdfrwt beam="2">  1       -2 0.11165424E+00 0.84657050E+03</pdfrwt>
<totfact> 0.63790305E-01</totfact>
</mgrwt>
</event>
<event>
 4    2  0.2930016E-007  0.6616819E+03  0.7818608E-02  0.1022496E+00
          2   -1    0    0  501    0  0.00000000000E+00  0.00000000000E+00  0.12451476320E+04  0.12451476320E+04  0.25500000000E-02 0. -1.
         -2   -1    0    0    0  501 -0.00000000000E+00 -0.00000000000E+00 -0.13827188629E+03  0.13827188632E+03  0.25500000000E-02 0.  1.
    8880023    1    1    2    0    0  0.55199415837E+02  0.31076431376E+02  0.83906588353E+03  0.10685759137E+04  0.65864270000E+03 0.  0.
    8880022    1    1    2    0    0 -0.55199415837E+02 -0.31076431376E+02  0.26780986214E+03  0.31484360462E+03  0.15294330000E+03 0. -1.
<mgrwt>
<rscale>  0 0.46796613E+03</rscale>
<asrwt>0</asrwt>
<pdfrwt beam="1">  1        2 0.19156119E+00 0.66168189E+03</pdfrwt>
<pdfrwt beam="2">  1       -2 0.21272597E-01 0.66168189E+03</pdfrwt>
<totfact> 0.34578620E+02</totfact>
</mgrwt>
</event>
<event>
 4    2  0.2930016E-007  0.6718794E+03  0.7818608E-02  0.1014350E+00
         -2   -1    0    0    0  501 -0.00000000000E+00  0.00000000000E+00  0.17539129216E+03  0.17539129218E+03  0.25500000000E-02 0.  1.
          2   -1    0    0  501    0  0.00000000000E+00 -0.00000000000E+00 -0.22940143532E+04  0.22940143532E+04  0.25500000000E-02 0. -1.
    8880023    1    1    2    0    0  0.54745980319E+02  0.12089058120E+03 -0.21605579309E+04  0.22626162808E+04  0.65864270000E+03 0. -1.
    8880022    1    1    2    0    0 -0.54745980319E+02 -0.12089058120E+03  0.41934869876E+02  0.20678936459E+03  0.15294330000E+03 0.  0.
<mgrwt>
<rscale>  0 0.49781827E+03</rscale>
<asrwt>0</asrwt>
<pdfrwt beam="1">  1        2 0.35292526E+00 0.67187935E+03</pdfrwt>
<pdfrwt beam="2">  1       -2 0.26983277E-01 0.67187935E+03</pdfrwt>
<totfact> 0.59591523E+01</totfact>
</mgrwt>
</event>
<event>
 4    2  0.2930016E-007  0.9121440E+03  0.7818608E-02  0.9506811E-01
         -2   -1    0    0    0  501 -0.00000000000E+00  0.00000000000E+00  0.52082085273E+03  0.52082085274E+03  0.25500000000E-02 0.  1.
          2   -1    0    0  501    0  0.00000000000E+00 -0.00000000000E+00 -0.14724289432E+04  0.14724289432E+04  0.25500000000E-02 0. -1.
    8880023    1    1    2    0    0  0.42082521747E+03  0.47021547272E+03 -0.93139093687E+02  0.91688688042E+03  0.65864270000E+03 0.  0.
    8880022    1    1    2    0    0 -0.42082521747E+03 -0.47021547272E+03 -0.85846899678E+03  0.10763629155E+04  0.15294330000E+03 0.  0.
<mgrwt>
<rscale>  0 0.83783519E+03</rscale>
<asrwt>0</asrwt>
<pdfrwt beam="1">  1        2 0.22652753E+00 0.91214399E+03</pdfrwt>
<pdfrwt beam="2">  1       -2 0.80126286E-01 0.91214399E+03</pdfrwt>
<totfact> 0.18221164E+01</totfact>
</mgrwt>
</event>
<event>
 4    2  0.2930016E-007  0.7055518E+03  0.7818608E-02  0.9974906E-01
         -2   -1    0    0    0  501 -0.00000000000E+00  0.00000000000E+00  0.24624060577E+03  0.24624060578E+03  0.25500000000E-02 0.  1.
          2   -1    0    0  501    0  0.00000000000E+00 -0.00000000000E+00 -0.12372477383E+04  0.12372477383E+04  0.25500000000E-02 0. -1.
    8880023    1    1    2    0    0 -0.12147647261E+03 -0.22189310312E+03 -0.95254401591E+03  0.11853874435E+04  0.65864270000E+03 0.  0.
    8880022    1    1    2    0    0  0.12147647261E+03  0.22189310312E+03 -0.38463116637E+02  0.29810090064E+03  0.15294330000E+03 0.  0.
<mgrwt>
<rscale>  0 0.56764407E+03</rscale>
<asrwt>0</asrwt>
<pdfrwt beam="1">  1        2 0.19034580E+00 0.70555176E+03</pdfrwt>
<pdfrwt beam="2">  1       -2 0.37883171E-01 0.70555176E+03</pdfrwt>
<totfact> 0.12049866E+02</totfact>
</mgrwt>
</event>
<event>
 4    2  0.2930016E-007  0.6712582E+03  0.7818608E-02  0.1014776E+00
         -2   -1    0    0    0  501 -0.00000000000E+00  0.00000000000E+00  0.39714837930E+03  0.39714837931E+03  0.25500000000E-02 0.  1.
          2   -1    0    0  501    0  0.00000000000E+00 -0.00000000000E+00 -0.86693845211E+03  0.86693845211E+03  0.25500000000E-02 0. -1.
    8880023    1    1    2    0    0 -0.97161050800E+02  0.85657003339E+02 -0.69252246491E+03  0.96445578576E+03  0.65864270000E+03 0. -1.
    8880022    1    1    2    0    0  0.97161050800E+02 -0.85657003339E+02  0.22273239210E+03  0.29963104566E+03  0.15294330000E+03 0.  0.
<mgrwt>
<rscale>  0 0.49619645E+03</rscale>
<asrwt>0</asrwt>
<pdfrwt beam="1">  1        2 0.13337515E+00 0.67125822E+03</pdfrwt>
<pdfrwt beam="2">  1       -2 0.61099751E-01 0.67125822E+03</pdfrwt>
<totfact> 0.78486257E+01</totfact>
</mgrwt>
</event>
<event>
 4    2  0.2930016E-007  0.8105022E+03  0.7818608E-02  0.9688532E-01
         -2   -1    0    0    0  501 -0.00000000000E+00  0.00000000000E+00  0.61540172548E+03  0.61540172549E+03  0.25500000000E-02 0.  1.
          2   -1    0    0  501    0  0.00000000000E+00 -0.00000000000E+00 -0.70837661949E+03  0.70837661949E+03  0.25500000000E-02 0. -1.
    8880023    1    1    2    0    0  0.19219129470E+03  0.43146970374E+03 -0.14920525060E+03  0.82412135761E+03  0.65864270000E+03 0.  0.
    8880022    1    1    2    0    0 -0.19219129470E+03 -0.43146970374E+03  0.56230356595E+02  0.49965698736E+03  0.15294330000E+03 0. -1.
<mgrwt>
<rscale>  0 0.71703725E+03</rscale>
<asrwt>0</asrwt>
<pdfrwt beam="1">  1        2 0.10898102E+00 0.81050219E+03</pdfrwt>
<pdfrwt beam="2">  1       -2 0.94677189E-01 0.81050219E+03</pdfrwt>
<totfact> 0.38236595E+01</totfact>
</mgrwt>
</event>
<event>
 4    2  0.2930016E-007  0.8182370E+03  0.7818608E-02  0.9672668E-01
         -2   -1    0    0    0  501 -0.00000000000E+00  0.00000000000E+00  0.75950081846E+03  0.75950081846E+03  0.25500000000E-02 0.  1.
          2   -1    0    0  501    0  0.00000000000E+00 -0.00000000000E+00 -0.72713718908E+03  0.72713718908E+03  0.25500000000E-02 0. -1.
    8880023    1    1    2    0    0 -0.48505600590E+03 -0.20549284833E+02 -0.30803098946E+03  0.87429680240E+03  0.65864270000E+03 0.  0.
    8880022    1    1    2    0    0  0.48505600590E+03  0.20549284833E+02  0.34039461884E+03  0.61234120514E+03  0.15294330000E+03 0.  0.
<mgrwt>
<rscale>  0 0.72667690E+03</rscale>
<asrwt>0</asrwt>
<pdfrwt beam="1">  1        2 0.11186726E+00 0.81823701E+03</pdfrwt>
<pdfrwt beam="2">  1       -2 0.11684628E+00 0.81823701E+03</pdfrwt>
<totfact> 0.22307369E+01</totfact>
</mgrwt>
</event>
<event>
 4    2  0.2930016E-007  0.7045846E+03  0.7818608E-02  0.9978689E-01
         -2   -1    0    0    0  501 -0.00000000000E+00  0.00000000000E+00  0.77626869790E+03  0.77626869791E+03  0.25500000000E-02 0.  1.
          2   -1    0    0  501    0  0.00000000000E+00 -0.00000000000E+00 -0.82851389628E+03  0.82851389628E+03  0.25500000000E-02 0. -1.
    8880023    1    1    2    0    0 -0.70612660088E+02  0.24008970393E+03 -0.63747950123E+03  0.95016816114E+03  0.65864270000E+03 0. -1.
    8880022    1    1    2    0    0  0.70612660088E+02 -0.24008970393E+03  0.58523430286E+03  0.65461443305E+03  0.15294330000E+03 0.  0.
<mgrwt>
<rscale>  0 0.56594643E+03</rscale>
<asrwt>0</asrwt>
<pdfrwt beam="1">  1        2 0.12746368E+00 0.70458457E+03</pdfrwt>
<pdfrwt beam="2">  1       -2 0.11942595E+00 0.70458457E+03</pdfrwt>
<totfact> 0.18008481E+01</totfact>
</mgrwt>
</event>
<event>
 4    2  0.2930016E-007  0.1160424E+04  0.7818608E-02  0.9196587E-01
         -2   -1    0    0    0  501 -0.00000000000E+00  0.00000000000E+00  0.14346549264E+04  0.14346549264E+04  0.25500000000E-02 0.  1.
          2   -1    0    0  501    0  0.00000000000E+00 -0.00000000000E+00 -0.10148770160E+04  0.10148770160E+04  0.25500000000E-02 0. -1.
    8880023    1    1    2    0    0 -0.25551150326E+03  0.92059120756E+03 -0.35116020439E+03  0.12123934985E+04  0.65864270000E+03 0. -1.
    8880022    1    1    2    0    0  0.25551150326E+03 -0.92059120756E+03  0.77093811475E+03  0.12371384440E+04  0.15294330000E+03 0.  1.
<mgrwt>
<rscale>  0 0.11088727E+04</rscale>
<asrwt>0</asrwt>
<pdfrwt beam="1">  1        2 0.15613493E+00 0.11604243E+04</pdfrwt>
<pdfrwt beam="2">  1       -2 0.22071614E+00 0.11604243E+04</pdfrwt>
<totfact> 0.23536416E+00</totfact>
</mgrwt>
</event>
<event>
 4    2  0.2930016E-007  0.7408296E+03  0.7818608E-02  0.9857537E-01
          2   -1    0    0  501    0  0.00000000000E+00  0.00000000000E+00  0.24533349264E+04  0.24533349264E+04  0.25500000000E-02 0. -1.
         -2   -1    0    0    0  501 -0.00000000000E+00 -0.00000000000E+00 -0.18635996252E+03  0.18635996254E+03  0.25500000000E-02 0.  1.
    8880023    1    1    2    0    0 -0.16109375023E+03  0.29844122854E+03  0.21093201991E+04  0.22356341990E+04  0.65864270000E+03 0. -1.
    8880022    1    1    2    0    0  0.16109375023E+03 -0.29844122854E+03  0.15765476477E+03  0.40406068990E+03  0.15294330000E+03 0.  0.
<mgrwt>
<rscale>  0 0.62364107E+03</rscale>
<asrwt>0</asrwt>
<pdfrwt beam="1">  1        2 0.37743612E+00 0.74082965E+03</pdfrwt>
<pdfrwt beam="2">  1       -2 0.28670765E-01 0.74082965E+03</pdfrwt>
<totfact> 0.43034089E+01</totfact>
</mgrwt>
</event>
<event>
 4    2  0.2930016E-007  0.9040451E+03  0.7818608E-02  0.9519569E-01
         -2   -1    0    0    0  501 -0.00000000000E+00  0.00000000000E+00  0.46462943254E+03  0.46462943254E+03  0.25500000000E-02 0.  1.
          2   -1    0    0  501    0  0.00000000000E+00 -0.00000000000E+00 -0.22219453944E+04  0.22219453944E+04  0.25500000000E-02 0. -1.
    8880023    1    1    2    0    0 -0.59350858643E+03 -0.17673401615E+03 -0.18334070664E+04  0.20441817512E+04  0.65864270000E+03 0. -1.
    8880022    1    1    2    0    0  0.59350858643E+03  0.17673401615E+03  0.76091104470E+02  0.64239307579E+03  0.15294330000E+03 0.  0.
<mgrwt>
<rscale>  0 0.82856338E+03</rscale>
<asrwt>0</asrwt>
<pdfrwt beam="1">  1        2 0.34183775E+00 0.90404511E+03</pdfrwt>
<pdfrwt beam="2">  1       -2 0.71481452E-01 0.90404511E+03</pdfrwt>
<totfact> 0.90730559E+00</totfact>
</mgrwt>
</event>
<event>
 4    2  0.2930016E-007  0.6829623E+03  0.7818608E-02  0.1007695E+00
          2   -1    0    0  501    0  0.00000000000E+00  0.00000000000E+00  0.75975631236E+03  0.75975631236E+03  0.25500000000E-02 0. -1.
         -2   -1    0    0    0  501 -0.00000000000E+00 -0.00000000000E+00 -0.55642457035E+03  0.55642457036E+03  0.25500000000E-02 0.  1.
    8880023    1    1    2    0    0 -0.16020180608E+03  0.83442876002E+02  0.56335351876E+03  0.88532746800E+03  0.65864270000E+03 0. -1.
    8880022    1    1    2    0    0  0.16020180608E+03 -0.83442876002E+02 -0.36002177675E+03  0.43085341472E+03  0.15294330000E+03 0.  0.
<mgrwt>
<rscale>  0 0.52400987E+03</rscale>
<asrwt>0</asrwt>
<pdfrwt beam="1">  1        2 0.11688559E+00 0.68296233E+03</pdfrwt>
<pdfrwt beam="2">  1       -2 0.85603780E-01 0.68296233E+03</pdfrwt>
<totfact> 0.44555945E+01</totfact>
</mgrwt>
</event>
<event>
 4    2  0.2930016E-007  0.6624878E+03  0.7818608E-02  0.1021741E+00
          2   -1    0    0  501    0  0.00000000000E+00  0.00000000000E+00  0.30084513691E+04  0.30084513691E+04  0.25500000000E-02 0. -1.
         -2   -1    0    0    0  501 -0.00000000000E+00 -0.00000000000E+00 -0.14291733358E+03  0.14291733360E+03  0.25500000000E-02 0.  1.
    8880023    1    1    2    0    0 -0.57716599631E+02  0.41816880993E+02  0.29037464716E+04  0.29783608974E+04  0.65864270000E+03 0. -1.
    8880022    1    1    2    0    0  0.57716599631E+02 -0.41816880993E+02 -0.38212436105E+02  0.17300780531E+03  0.15294330000E+03 0.  0.
<mgrwt>
<rscale>  0 0.47063554E+03</rscale>
<asrwt>0</asrwt>
<pdfrwt beam="1">  1        2 0.46283863E+00 0.66248778E+03</pdfrwt>
<pdfrwt beam="2">  1       -2 0.21987284E-01 0.66248778E+03</pdfrwt>
<totfact> 0.33300210E+01</totfact>
</mgrwt>
</event>
<event>
 4    2  0.2930016E-007  0.7038296E+03  0.7818608E-02  0.9981671E-01
          2   -1    0    0  501    0  0.00000000000E+00  0.00000000000E+00  0.21276877227E+04  0.21276877227E+04  0.25500000000E-02 0. -1.
         -2   -1    0    0    0  501 -0.00000000000E+00 -0.00000000000E+00 -0.17121716418E+03  0.17121716420E+03  0.25500000000E-02 0.  1.
    8880023    1    1    2    0    0 -0.14943198903E+03  0.19808076991E+03  0.18650393937E+04  0.19934262106E+04  0.65864270000E+03 0. -1.
    8880022    1    1    2    0    0  0.14943198903E+03 -0.19808076991E+03  0.91431164807E+02  0.30547867629E+03  0.15294330000E+03 0.  0.
<mgrwt>
<rscale>  0 0.56461304E+03</rscale>
<asrwt>0</asrwt>
<pdfrwt beam="1">  1        2 0.32733657E+00 0.70382961E+03</pdfrwt>
<pdfrwt beam="2">  1       -2 0.26341102E-01 0.70382961E+03</pdfrwt>
<totfact> 0.76543408E+01</totfact>
</mgrwt>
</event>
<event>
 4    2  0.2930016E-007  0.1047443E+04  0.7818608E-02  0.9321961E-01
         -2   -1    0    0    0  501 -0.00000000000E+00  0.00000000000E+00  0.13819551664E+04  0.13819551664E+04  0.25500000000E-02 0.  1.
          2   -1    0    0  501    0  0.00000000000E+00 -0.00000000000E+00 -0.86759374314E+03  0.86759374314E+03  0.25500000000E-02 0. -1.
    8880023    1    1    2    0    0 -0.77551651919E+03  0.24880069190E+03 -0.29808900195E+03  0.10890339367E+04  0.65864270000E+03 0. -1.
    8880022    1    1    2    0    0  0.77551651919E+03 -0.24880069190E+03  0.81245042517E+03  0.11605149728E+04  0.15294330000E+03 0.  0.
<mgrwt>
<rscale>  0 0.98785990E+03</rscale>
<asrwt>0</asrwt>
<pdfrwt beam="1">  1        2 0.13347596E+00 0.10474435E+04</pdfrwt>
<pdfrwt beam="2">  1       -2 0.21260849E+00 0.10474435E+04</pdfrwt>
<totfact> 0.33602492E+00</totfact>
</mgrwt>
</event>
<event>
 4    2  0.2930016E-007  0.7443763E+03  0.7818608E-02  0.9847378E-01
         -2   -1    0    0    0  501 -0.00000000000E+00  0.00000000000E+00  0.70535025899E+03  0.70535025900E+03  0.25500000000E-02 0.  1.
          2   -1    0    0  501    0  0.00000000000E+00 -0.00000000000E+00 -0.10448801895E+04  0.10448801895E+04  0.25500000000E-02 0. -1.
    8880023    1    1    2    0    0  0.20920367440E+03  0.27662189461E+03 -0.84003669672E+03  0.11223892854E+04  0.65864270000E+03 0. -1.
    8880022    1    1    2    0    0 -0.20920367440E+03 -0.27662189461E+03  0.50050676623E+03  0.62784116305E+03  0.15294330000E+03 0.  0.
<mgrwt>
<rscale>  0 0.62880791E+03</rscale>
<asrwt>0</asrwt>
<pdfrwt beam="1">  1        2 0.16075080E+00 0.74437629E+03</pdfrwt>
<pdfrwt beam="2">  1       -2 0.10851542E+00 0.74437629E+03</pdfrwt>
<totfact> 0.16299204E+01</totfact>
</mgrwt>
</event>
<event>
 4    2  0.2930016E-007  0.7130766E+03  0.7818608E-02  0.9946749E-01
         -2   -1    0    0    0  501 -0.00000000000E+00  0.00000000000E+00  0.60395617171E+03  0.60395617172E+03  0.25500000000E-02 0.  1.
          2   -1    0    0  501    0  0.00000000000E+00 -0.00000000000E+00 -0.98383320761E+03  0.98383320762E+03  0.25500000000E-02 0. -1.
    8880023    1    1    2    0    0  0.21902963184E+03  0.16338330472E+03 -0.79490832562E+03  0.10678752438E+04  0.65864270000E+03 0. -1.
    8880022    1    1    2    0    0 -0.21902963184E+03 -0.16338330472E+03  0.41503128972E+03  0.51991413555E+03  0.15294330000E+03 0.  0.
<mgrwt>
<rscale>  0 0.58048165E+03</rscale>
<asrwt>0</asrwt>
<pdfrwt beam="1">  1        2 0.15135895E+00 0.71307664E+03</pdfrwt>
<pdfrwt beam="2">  1       -2 0.92916334E-01 0.71307664E+03</pdfrwt>
<totfact> 0.25828575E+01</totfact>
</mgrwt>
</event>
<event>
 4    2  0.2930016E-007  0.8894388E+03  0.7818608E-02  0.9543203E-01
          2   -1    0    0  501    0  0.00000000000E+00  0.00000000000E+00  0.31098527020E+04  0.31098527020E+04  0.25500000000E-02 0. -1.
         -2   -1    0    0    0  501 -0.00000000000E+00 -0.00000000000E+00 -0.37438614685E+03  0.37438614686E+03  0.25500000000E-02 0.  1.
    8880023    1    1    2    0    0  0.52677619443E+00  0.59773818274E+03  0.27257190236E+04  0.28671668271E+04  0.65864270000E+03 0. -1.
    8880022    1    1    2    0    0 -0.52677619443E+00 -0.59773818274E+03  0.97475315175E+01  0.61707202172E+03  0.15294330000E+03 0.  0.
<mgrwt>
<rscale>  0 0.81172230E+03</rscale>
<asrwt>0</asrwt>
<pdfrwt beam="1">  1        2 0.47843886E+00 0.88943882E+03</pdfrwt>
<pdfrwt beam="2">  1       -2 0.57597871E-01 0.88943882E+03</pdfrwt>
<totfact> 0.43686799E+00</totfact>
</mgrwt>
</event>
<event>
 4    2  0.2930016E-007  0.8871019E+03  0.7818608E-02  0.9547063E-01
          2   -1    0    0  501    0  0.00000000000E+00  0.00000000000E+00  0.19136425634E+04  0.19136425634E+04  0.25500000000E-02 0. -1.
         -2   -1    0    0    0  501 -0.00000000000E+00 -0.00000000000E+00 -0.71434793894E+03  0.71434793895E+03  0.25500000000E-02 0.  1.
    8880023    1    1    2    0    0 -0.25014696085E+03 -0.53904173738E+03  0.16454299501E+04  0.18693286024E+04  0.65864270000E+03 0. -1.
    8880022    1    1    2    0    0  0.25014696085E+03  0.53904173738E+03 -0.44613532566E+03  0.75866189998E+03  0.15294330000E+03 0.  0.
<mgrwt>
<rscale>  0 0.80901250E+03</rscale>
<asrwt>0</asrwt>
<pdfrwt beam="1">  1        2 0.29440655E+00 0.88710186E+03</pdfrwt>
<pdfrwt beam="2">  1       -2 0.10989968E+00 0.88710186E+03</pdfrwt>
<totfact> 0.49782612E+00</totfact>
</mgrwt>
</event>
<event>
 4    2  0.2930016E-007  0.7685854E+03  0.7818608E-02  0.9783367E-01
          2   -1    0    0  501    0  0.00000000000E+00  0.00000000000E+00  0.95587781854E+03  0.95587781854E+03  0.25500000000E-02 0. -1.
         -2   -1    0    0    0  501 -0.00000000000E+00 -0.00000000000E+00 -0.43951833488E+03  0.43951833489E+03  0.25500000000E-02 0.  1.
    8880023    1    1    2    0    0 -0.40663790454E+02 -0.39403009211E+03  0.58417308864E+03  0.96539197278E+03  0.65864270000E+03 0.  0.
    8880022    1    1    2    0    0  0.40663790454E+02  0.39403009211E+03 -0.67813604994E+02  0.43000418065E+03  0.15294330000E+03 0.  0.
<mgrwt>
<rscale>  0 0.66262837E+03</rscale>
<asrwt>0</asrwt>
<pdfrwt beam="1">  1        2 0.14705813E+00 0.76858537E+03</pdfrwt>
<pdfrwt beam="2">  1       -2 0.67618206E-01 0.76858537E+03</pdfrwt>
<totfact> 0.54658848E+01</totfact>
</mgrwt>
</event>
<event>
 4    2  0.2930016E-007  0.7079398E+03  0.7818608E-02  0.9965732E-01
          2   -1    0    0  501    0  0.00000000000E+00  0.00000000000E+00  0.48356930286E+03  0.48356930287E+03  0.25500000000E-02 0. -1.
         -2   -1    0    0    0  501 -0.00000000000E+00 -0.00000000000E+00 -0.87236511550E+03  0.87236511551E+03  0.25500000000E-02 0.  1.
    8880023    1    1    2    0    0  0.22607377545E+03  0.12751149476E+03  0.16371800165E+03  0.72662392169E+03  0.65864270000E+03 0.  0.
    8880022    1    1    2    0    0 -0.22607377545E+03 -0.12751149476E+03 -0.55251381429E+03  0.62931049669E+03  0.15294330000E+03 0.  0.
<mgrwt>
<rscale>  0 0.57178685E+03</rscale>
<asrwt>0</asrwt>
<pdfrwt beam="1">  1        2 0.74395278E-01 0.70793979E+03</pdfrwt>
<pdfrwt beam="2">  1       -2 0.13421002E+00 0.70793979E+03</pdfrwt>
<totfact> 0.26050387E+01</totfact>
</mgrwt>
</event>
<event>
 4    2  0.2930016E-007  0.9041690E+03  0.7818608E-02  0.9519372E-01
          2   -1    0    0  501    0  0.00000000000E+00  0.00000000000E+00  0.30315034831E+04  0.30315034831E+04  0.25500000000E-02 0. -1.
         -2   -1    0    0    0  501 -0.00000000000E+00 -0.00000000000E+00 -0.26708806746E+03  0.26708806747E+03  0.25500000000E-02 0.  1.
    8880023    1    1    2    0    0  0.20132547292E+03 -0.58581514853E+03  0.23980484610E+04  0.25628417747E+04  0.65864270000E+03 0. -1.
    8880022    1    1    2    0    0 -0.20132547292E+03  0.58581514853E+03  0.36636695460E+03  0.73574977590E+03  0.15294330000E+03 0.  0.
<mgrwt>
<rscale>  0 0.82870553E+03</rscale>
<asrwt>0</asrwt>
<pdfrwt beam="1">  1        2 0.46638518E+00 0.90416898E+03</pdfrwt>
<pdfrwt beam="2">  1       -2 0.41090470E-01 0.90416898E+03</pdfrwt>
<totfact> 0.96838061E+00</totfact>
</mgrwt>
</event>
<event>
 4    2  0.2930016E-007  0.1147889E+04  0.7818608E-02  0.9209521E-01
         -2   -1    0    0    0  501 -0.00000000000E+00  0.00000000000E+00  0.87362117717E+03  0.87362117717E+03  0.25500000000E-02 0.  1.
          2   -1    0    0  501    0  0.00000000000E+00 -0.00000000000E+00 -0.20775430309E+04  0.20775430309E+04  0.25500000000E-02 0. -1.
    8880023    1    1    2    0    0 -0.25417280283E+02  0.93978367534E+03 -0.15578179321E+04  0.19350571853E+04  0.65864270000E+03 0. -1.
    8880022    1    1    2    0    0  0.25417280283E+02 -0.93978367534E+03  0.35389607831E+03  0.10161070228E+04  0.15294330000E+03 0.  0.
<mgrwt>
<rscale>  0 0.10955689E+04</rscale>
<asrwt>0</asrwt>
<pdfrwt beam="1">  1        2 0.31962200E+00 0.11478892E+04</pdfrwt>
<pdfrwt beam="2">  1       -2 0.13440326E+00 0.11478892E+04</pdfrwt>
<totfact> 0.23674719E+00</totfact>
</mgrwt>
</event>
<event>
 4    2  0.2930016E-007  0.7305182E+03  0.7818608E-02  0.9888481E-01
          2   -1    0    0  501    0  0.00000000000E+00  0.00000000000E+00  0.97747755760E+03  0.97747755761E+03  0.25500000000E-02 0. -1.
         -2   -1    0    0    0  501 -0.00000000000E+00 -0.00000000000E+00 -0.35581403448E+03  0.35581403449E+03  0.25500000000E-02 0.  1.
    8880023    1    1    2    0    0 -0.36348165836E+02  0.31388755724E+03  0.65433740503E+03  0.98072128234E+03  0.65864270000E+03 0. -1.
    8880022    1    1    2    0    0  0.36348165836E+02 -0.31388755724E+03 -0.32673881909E+02  0.35257030976E+03  0.15294330000E+03 0.  0.
<mgrwt>
<rscale>  0 0.60822806E+03</rscale>
<asrwt>0</asrwt>
<pdfrwt beam="1">  1        2 0.15038116E+00 0.73051817E+03</pdfrwt>
<pdfrwt beam="2">  1       -2 0.54740621E-01 0.73051817E+03</pdfrwt>
<totfact> 0.83055267E+01</totfact>
</mgrwt>
</event>
<event>
 4    2  0.2930016E-007  0.7060114E+03  0.7818608E-02  0.9973122E-01
          2   -1    0    0  501    0  0.00000000000E+00  0.00000000000E+00  0.36429069291E+04  0.36429069291E+04  0.25500000000E-02 0. -1.
         -2   -1    0    0    0  501 -0.00000000000E+00 -0.00000000000E+00 -0.13791801107E+03  0.13791801110E+03  0.25500000000E-02 0.  1.
    8880023    1    1    2    0    0  0.17009526652E+03 -0.18896958138E+03  0.33898052834E+04  0.34625470348E+04  0.65864270000E+03 0. -1.
    8880022    1    1    2    0    0 -0.17009526652E+03  0.18896958138E+03  0.11518363463E+03  0.31827790542E+03  0.15294330000E+03 0.  0.
<mgrwt>
<rscale>  0 0.56844679E+03</rscale>
<asrwt>0</asrwt>
<pdfrwt beam="1">  1        2 0.56044712E+00 0.70601141E+03</pdfrwt>
<pdfrwt beam="2">  1       -2 0.21218159E-01 0.70601141E+03</pdfrwt>
<totfact> 0.13513126E+01</totfact>
</mgrwt>
</event>
<event>
 4    2  0.3361279E-007  0.8267575E+03  0.7818608E-02  0.9655675E-01
          2   -1    0    0  501    0  0.00000000000E+00  0.00000000000E+00  0.25461421527E+04  0.25461421527E+04  0.25500000000E-02 0. -1.
         -2   -1    0    0    0  501 -0.00000000000E+00 -0.00000000000E+00 -0.81190598333E+03  0.81190598334E+03  0.25500000000E-02 0.  1.
    8880023    1    1    2    0    0 -0.25744206602E+03 -0.42830049511E+03  0.23845288677E+04  0.25237879979E+04  0.65864270000E+03 0. -1.
    8880022    1    1    2    0    0  0.25744206602E+03  0.42830049511E+03 -0.65029269834E+03  0.83426013808E+03  0.15294330000E+03 0.  0.
<mgrwt>
<rscale>  0 0.73718362E+03</rscale>
<asrwt>0</asrwt>
<pdfrwt beam="1">  1        2 0.39171418E+00 0.82675748E+03</pdfrwt>
<pdfrwt beam="2">  1       -2 0.12490861E+00 0.82675748E+03</pdfrwt>
<totfact> 0.16301832E+00</totfact>
</mgrwt>
</event>
<event>
 4    2  0.2930016E-007  0.6858617E+03  0.7818608E-02  0.1006185E+00
          2   -1    0    0  501    0  0.00000000000E+00  0.00000000000E+00  0.18801333461E+04  0.18801333461E+04  0.25500000000E-02 0. -1.
         -2   -1    0    0    0  501 -0.00000000000E+00 -0.00000000000E+00 -0.21358230007E+03  0.21358230008E+03  0.25500000000E-02 0.  1.
    8880023    1    1    2    0    0  0.14166586125E+03  0.12855690088E+03  0.17123019232E+04  0.18445552785E+04  0.65864270000E+03 0. -1.
    8880022    1    1    2    0    0 -0.14166586125E+03 -0.12855690088E+03 -0.45750877234E+02  0.24916036762E+03  0.15294330000E+03 0.  0.
<mgrwt>
<rscale>  0 0.53019453E+03</rscale>
<asrwt>0</asrwt>
<pdfrwt beam="1">  1        2 0.28925129E+00 0.68586172E+03</pdfrwt>
<pdfrwt beam="2">  1       -2 0.32858815E-01 0.68586172E+03</pdfrwt>
<totfact> 0.69543753E+01</totfact>
</mgrwt>
</event>
<event>
 4    2  0.2930016E-007  0.1027059E+04  0.7818608E-02  0.9346981E-01
          2   -1    0    0  501    0  0.00000000000E+00  0.00000000000E+00  0.14962707174E+04  0.14962707174E+04  0.25500000000E-02 0. -1.
         -2   -1    0    0    0  501 -0.00000000000E+00 -0.00000000000E+00 -0.70144370342E+03  0.70144370343E+03  0.25500000000E-02 0.  1.
    8880023    1    1    2    0    0 -0.21236301925E+03 -0.75890894015E+03  0.92772234714E+03  0.13840230457E+04  0.65864270000E+03 0.  0.
    8880022    1    1    2    0    0  0.21236301925E+03  0.75890894015E+03 -0.13289533315E+03  0.81369137514E+03  0.15294330000E+03 0.  0.
<mgrwt>
<rscale>  0 0.96570361E+03</rscale>
<asrwt>0</asrwt>
<pdfrwt beam="1">  1        2 0.23019550E+00 0.10270594E+04</pdfrwt>
<pdfrwt beam="2">  1       -2 0.10791442E+00 0.10270594E+04</pdfrwt>
<totfact> 0.87088811E+00</totfact>
</mgrwt>
</event>
<event>
 4    2  0.2930016E-007  0.9641703E+03  0.7818608E-02  0.9430013E-01
          2   -1    0    0  501    0  0.00000000000E+00  0.00000000000E+00  0.23622409007E+04  0.23622409007E+04  0.25500000000E-02 0. -1.
         -2   -1    0    0    0  501 -0.00000000000E+00 -0.00000000000E+00 -0.40352344230E+03  0.40352344231E+03  0.25500000000E-02 0.  1.
    8880023    1    1    2    0    0 -0.19086314945E+02  0.70388202601E+03  0.17784543169E+04  0.20229988032E+04  0.65864270000E+03 0.  0.
    8880022    1    1    2    0    0  0.19086314945E+02 -0.70388202601E+03  0.18026314144E+03  0.74276553981E+03  0.15294330000E+03 0.  0.
<mgrwt>
<rscale>  0 0.89646382E+03</rscale>
<asrwt>0</asrwt>
<pdfrwt beam="1">  1        2 0.36342168E+00 0.96417032E+03</pdfrwt>
<pdfrwt beam="2">  1       -2 0.62080529E-01 0.96417032E+03</pdfrwt>
<totfact> 0.10201792E+01</totfact>
</mgrwt>
</event>
<event>
 4    2  0.2930016E-007  0.1254597E+04  0.7818608E-02  0.9105794E-01
          2   -1    0    0  501    0  0.00000000000E+00  0.00000000000E+00  0.52533679454E+04  0.52533679454E+04  0.25500000000E-02 0. -1.
         -2   -1    0    0    0  501 -0.00000000000E+00 -0.00000000000E+00 -0.58564537364E+03  0.58564537365E+03  0.25500000000E-02 0.  1.
    8880023    1    1    2    0    0 -0.65577342607E+03 -0.84271310219E+03  0.45890393900E+04  0.47574464672E+04  0.65864270000E+03 0. -1.
    8880022    1    1    2    0    0  0.65577342607E+03  0.84271310219E+03  0.78683181762E+02  0.10815668519E+04  0.15294330000E+03 0.  0.
<mgrwt>
<rscale>  0 0.12081018E+04</rscale>
<asrwt>0</asrwt>
<pdfrwt beam="1">  1        2 0.80821043E+00 0.12545973E+04</pdfrwt>
<pdfrwt beam="2">  1       -2 0.90099291E-01 0.12545973E+04</pdfrwt>
<totfact> 0.17108009E-02</totfact>
</mgrwt>
</event>
<event>
 4    2  0.2930016E-007  0.6766095E+03  0.7818608E-02  0.1011310E+00
         -2   -1    0    0    0  501 -0.00000000000E+00  0.00000000000E+00  0.53922093310E+03  0.53922093311E+03  0.25500000000E-02 0.  1.
          2   -1    0    0  501    0  0.00000000000E+00 -0.00000000000E+00 -0.17359744912E+04  0.17359744912E+04  0.25500000000E-02 0. -1.
    8880023    1    1    2    0    0  0.15488357318E+03  0.11451148475E+01 -0.16440006212E+04  0.17777903368E+04  0.65864270000E+03 0. -1.
    8880022    1    1    2    0    0 -0.15488357318E+03 -0.11451148475E+01  0.44724706319E+03  0.49740508751E+03  0.15294330000E+03 0.  0.
<mgrwt>
<rscale>  0 0.50957149E+03</rscale>
<asrwt>0</asrwt>
<pdfrwt beam="1">  1        2 0.26707300E+00 0.67660952E+03</pdfrwt>
<pdfrwt beam="2">  1       -2 0.82957067E-01 0.67660952E+03</pdfrwt>
<totfact> 0.12407007E+01</totfact>
</mgrwt>
</event>
<event>
 4    2  0.2930016E-007  0.7996202E+03  0.7818608E-02  0.9711618E-01
         -2   -1    0    0    0  501 -0.00000000000E+00  0.00000000000E+00  0.14139184801E+04  0.14139184801E+04  0.25500000000E-02 0.  1.
          2   -1    0    0  501    0  0.00000000000E+00 -0.00000000000E+00 -0.65454988347E+03  0.65454988347E+03  0.25500000000E-02 0. -1.
    8880023    1    1    2    0    0  0.37536193984E+03 -0.25433371230E+03 -0.34043712364E+03  0.86907414212E+03  0.65864270000E+03 0.  0.
    8880022    1    1    2    0    0 -0.37536193984E+03  0.25433371230E+03  0.10998057203E+04  0.11993942215E+04  0.15294330000E+03 0.  0.
<mgrwt>
<rscale>  0 0.70329260E+03</rscale>
<asrwt>0</asrwt>
<pdfrwt beam="1">  1        2 0.10069998E+00 0.79962018E+03</pdfrwt>
<pdfrwt beam="2">  1       -2 0.21752592E+00 0.79962018E+03</pdfrwt>
<totfact> 0.46464180E+00</totfact>
</mgrwt>
</event>
<event>
 4    2  0.2930016E-007  0.6874825E+03  0.7818608E-02  0.1005373E+00
          2   -1    0    0  501    0  0.00000000000E+00  0.00000000000E+00  0.12179899584E+04  0.12179899584E+04  0.25500000000E-02 0. -1.
         -2   -1    0    0    0  501 -0.00000000000E+00 -0.00000000000E+00 -0.43103091046E+03  0.43103091047E+03  0.25500000000E-02 0.  1.
    8880023    1    1    2    0    0  0.95995967794E+02  0.17206616723E+03  0.10699607456E+04  0.12717893674E+04  0.65864270000E+03 0. -1.
    8880022    1    1    2    0    0 -0.95995967794E+02 -0.17206616723E+03 -0.28300169769E+03  0.37723150140E+03  0.15294330000E+03 0.  0.
<mgrwt>
<rscale>  0 0.53355838E+03</rscale>
<asrwt>0</asrwt>
<pdfrwt beam="1">  1        2 0.18738307E+00 0.68748251E+03</pdfrwt>
<pdfrwt beam="2">  1       -2 0.66312449E-01 0.68748251E+03</pdfrwt>
<totfact> 0.39608561E+01</totfact>
</mgrwt>
</event>
<event>
 4    2  0.2930016E-007  0.7394039E+03  0.7818608E-02  0.9861687E-01
         -2   -1    0    0    0  501 -0.00000000000E+00  0.00000000000E+00  0.60254035359E+03  0.60254035360E+03  0.25500000000E-02 0.  1.
          2   -1    0    0  501    0  0.00000000000E+00 -0.00000000000E+00 -0.52569150277E+03  0.52569150278E+03  0.25500000000E-02 0. -1.
    8880023    1    1    2    0    0 -0.33454168096E+03 -0.31459965606E+02 -0.41420119965E+02  0.74056309545E+03  0.65864270000E+03 0. -1.
    8880022    1    1    2    0    0  0.33454168096E+03  0.31459965606E+02  0.11826897079E+03  0.38766876093E+03  0.15294330000E+03 0. -1.
<mgrwt>
<rscale>  0 0.62154571E+03</rscale>
<asrwt>0</asrwt>
<pdfrwt beam="1">  1        2 0.80875616E-01 0.73940386E+03</pdfrwt>
<pdfrwt beam="2">  1       -2 0.92698516E-01 0.73940386E+03</pdfrwt>
<totfact> 0.58021821E+01</totfact>
</mgrwt>
</event>
<event>
 4    2  0.2930016E-007  0.1021415E+04  0.7818608E-02  0.9354061E-01
          2   -1    0    0  501    0  0.00000000000E+00  0.00000000000E+00  0.17319615212E+04  0.17319615212E+04  0.25500000000E-02 0. -1.
         -2   -1    0    0    0  501 -0.00000000000E+00 -0.00000000000E+00 -0.51552610966E+03  0.51552610967E+03  0.25500000000E-02 0.  1.
    8880023    1    1    2    0    0  0.42474909208E+03  0.65503166760E+03  0.98498140418E+03  0.14189703484E+04  0.65864270000E+03 0.  0.
    8880022    1    1    2    0    0 -0.42474909208E+03 -0.65503166760E+03  0.23145400731E+03  0.82851728243E+03  0.15294330000E+03 0. -1.
<mgrwt>
<rscale>  0 0.95954636E+03</rscale>
<asrwt>0</asrwt>
<pdfrwt beam="1">  1        2 0.26645562E+00 0.10214149E+04</pdfrwt>
<pdfrwt beam="2">  1       -2 0.79311709E-01 0.10214149E+04</pdfrwt>
<totfact> 0.13227006E+01</totfact>
</mgrwt>
</event>
<event>
 4    2  0.2930016E-007  0.6643588E+03  0.7818608E-02  0.1020078E+00
          2   -1    0    0  501    0  0.00000000000E+00  0.00000000000E+00  0.69015075556E+03  0.69015075556E+03  0.25500000000E-02 0. -1.
         -2   -1    0    0    0  501 -0.00000000000E+00 -0.00000000000E+00 -0.40517214061E+03  0.40517214062E+03  0.25500000000E-02 0.  1.
    8880023    1    1    2    0    0  0.11510442360E+02 -0.86196838089E+02  0.48973879146E+03  0.82535851320E+03  0.65864270000E+03 0. -1.
    8880022    1    1    2    0    0 -0.11510442360E+02  0.86196838089E+02 -0.20476017652E+03  0.26996438299E+03  0.15294330000E+03 0.  0.
<mgrwt>
<rscale>  0 0.47658643E+03</rscale>
<asrwt>0</asrwt>
<pdfrwt beam="1">  1        2 0.10617704E+00 0.66435878E+03</pdfrwt>
<pdfrwt beam="2">  1       -2 0.62334176E-01 0.66435878E+03</pdfrwt>
<totfact> 0.10135622E+02</totfact>
</mgrwt>
</event>
<event>
 4    2  0.2930016E-007  0.1148950E+04  0.7818608E-02  0.9208418E-01
         -2   -1    0    0    0  501 -0.00000000000E+00  0.00000000000E+00  0.14271095274E+04  0.14271095274E+04  0.25500000000E-02 0.  1.
          2   -1    0    0  501    0  0.00000000000E+00 -0.00000000000E+00 -0.16901076061E+04  0.16901076061E+04  0.25500000000E-02 0. -1.
    8880023    1    1    2    0    0 -0.15372450325E+03  0.92878690876E+03 -0.12819888852E+04  0.17215057516E+04  0.65864270000E+03 0.  0.
    8880022    1    1    2    0    0  0.15372450325E+03 -0.92878690876E+03  0.10189908065E+04  0.13957113819E+04  0.15294330000E+03 0.  1.
<mgrwt>
<rscale>  0 0.10966960E+04</rscale>
<asrwt>0</asrwt>
<pdfrwt beam="1">  1        2 0.26001656E+00 0.11489502E+04</pdfrwt>
<pdfrwt beam="2">  1       -2 0.21955531E+00 0.11489502E+04</pdfrwt>
<totfact> 0.96490386E-01</totfact>
</mgrwt>
</event>
<event>
 4    2  0.2930016E-007  0.7535295E+03  0.7818608E-02  0.9822156E-01
          2   -1    0    0  501    0  0.00000000000E+00  0.00000000000E+00  0.12605674670E+04  0.12605674670E+04  0.25500000000E-02 0. -1.
         -2   -1    0    0    0  501 -0.00000000000E+00 -0.00000000000E+00 -0.27979336375E+03  0.27979336376E+03  0.25500000000E-02 0.  1.
    8880023    1    1    2    0    0  0.35204058632E+03 -0.10031932608E+03  0.81622038548E+03  0.11108656379E+04  0.65864270000E+03 0. -1.
    8880022    1    1    2    0    0 -0.35204058632E+03  0.10031932608E+03  0.16455371773E+03  0.42949519280E+03  0.15294330000E+03 0.  1.
<mgrwt>
<rscale>  0 0.64186948E+03</rscale>
<asrwt>0</asrwt>
<pdfrwt beam="1">  1        2 0.19393345E+00 0.75352953E+03</pdfrwt>
<pdfrwt beam="2">  1       -2 0.43045133E-01 0.75352953E+03</pdfrwt>
<totfact> 0.90634167E+01</totfact>
</mgrwt>
</event>
<event>
 4    2  0.2930016E-007  0.6797584E+03  0.7818608E-02  0.1009461E+00
         -2   -1    0    0    0  501 -0.00000000000E+00  0.00000000000E+00  0.52874734742E+03  0.52874734742E+03  0.25500000000E-02 0.  1.
          2   -1    0    0  501    0  0.00000000000E+00 -0.00000000000E+00 -0.12960554916E+04  0.12960554916E+04  0.25500000000E-02 0. -1.
    8880023    1    1    2    0    0 -0.11387138483E+03  0.12367141731E+03 -0.11753349269E+04  0.13577495014E+04  0.65864270000E+03 0. -1.
    8880022    1    1    2    0    0  0.11387138483E+03 -0.12367141731E+03  0.40802678276E+03  0.46705333765E+03  0.15294330000E+03 0.  0.
<mgrwt>
<rscale>  0 0.51689563E+03</rscale>
<asrwt>0</asrwt>
<pdfrwt beam="1">  1        2 0.19939315E+00 0.67975843E+03</pdfrwt>
<pdfrwt beam="2">  1       -2 0.81345746E-01 0.67975843E+03</pdfrwt>
<totfact> 0.22765516E+01</totfact>
</mgrwt>
</event>
<event>
 4    2  0.2930016E-007  0.7898597E+03  0.7818608E-02  0.9733166E-01
          2   -1    0    0  501    0  0.00000000000E+00  0.00000000000E+00  0.16401984779E+04  0.16401984779E+04  0.25500000000E-02 0. -1.
         -2   -1    0    0    0  501 -0.00000000000E+00 -0.00000000000E+00 -0.31103624036E+03  0.31103624038E+03  0.25500000000E-02 0.  1.
    8880023    1    1    2    0    0  0.31044333841E+03 -0.30609325462E+03  0.12556292880E+04  0.14834025961E+04  0.65864270000E+03 0. -1.
    8880022    1    1    2    0    0 -0.31044333841E+03  0.30609325462E+03  0.73532949522E+02  0.46783212220E+03  0.15294330000E+03 0.  0.
<mgrwt>
<rscale>  0 0.69075968E+03</rscale>
<asrwt>0</asrwt>
<pdfrwt beam="1">  1        2 0.25233822E+00 0.78985970E+03</pdfrwt>
<pdfrwt beam="2">  1       -2 0.47851731E-01 0.78985970E+03</pdfrwt>
<totfact> 0.44690017E+01</totfact>
</mgrwt>
</event>
<event>
 4    2  0.2930016E-007  0.8360793E+03  0.7818608E-02  0.9637618E-01
         -2   -1    0    0    0  501 -0.00000000000E+00  0.00000000000E+00  0.20445358900E+03  0.20445358902E+03  0.25500000000E-02 0.  1.
          2   -1    0    0  501    0  0.00000000000E+00 -0.00000000000E+00 -0.31330364122E+04  0.31330364122E+04  0.25500000000E-02 0. -1.
    8880023    1    1    2    0    0 -0.33631123393E+03  0.39001681174E+03 -0.85659556820E+03  0.11969897799E+04  0.65864270000E+03 0.  1.
    8880022    1    1    2    0    0  0.33631123393E+03 -0.39001681174E+03 -0.20719872550E+04  0.21405002213E+04  0.15294330000E+03 0.  0.
<mgrwt>
<rscale>  0 0.74855639E+03</rscale>
<asrwt>0</asrwt>
<pdfrwt beam="1">  1        2 0.48200557E+00 0.83607928E+03</pdfrwt>
<pdfrwt beam="2">  1       -2 0.31454401E-01 0.83607928E+03</pdfrwt>
<totfact> 0.14119634E+01</totfact>
</mgrwt>
</event>
<event>
 4    2  0.2930016E-007  0.1619818E+04  0.7818608E-02  0.8829357E-01
          2   -1    0    0  501    0  0.00000000000E+00  0.00000000000E+00  0.14053685076E+04  0.14053685076E+04  0.25500000000E-02 0. -1.
         -2   -1    0    0    0  501 -0.00000000000E+00 -0.00000000000E+00 -0.18388945896E+04  0.18388945896E+04  0.25500000000E-02 0.  1.
    8880023    1    1    2    0    0  0.78634205195E+03  0.12536612412E+04  0.19042420190E+03  0.16309726893E+04  0.65864270000E+03 0. -1.
    8880022    1    1    2    0    0 -0.78634205195E+03 -0.12536612412E+04 -0.62395028398E+03  0.16132904079E+04  0.15294330000E+03 0.  0.
<mgrwt>
<rscale>  0 0.15857400E+04</rscale>
<asrwt>0</asrwt>
<pdfrwt beam="1">  1        2 0.21621054E+00 0.16198181E+04</pdfrwt>
<pdfrwt beam="2">  1       -2 0.28290686E+00 0.16198181E+04</pdfrwt>
<totfact> 0.54063734E-01</totfact>
</mgrwt>
</event>
<event>
 4    2  0.2930016E-007  0.7455133E+03  0.7818608E-02  0.9844169E-01
         -2   -1    0    0    0  501 -0.00000000000E+00  0.00000000000E+00  0.56467270819E+03  0.56467270820E+03  0.25500000000E-02 0.  1.
          2   -1    0    0  501    0  0.00000000000E+00 -0.00000000000E+00 -0.11372060609E+04  0.11372060610E+04  0.25500000000E-02 0. -1.
    8880023    1    1    2    0    0 -0.29417792043E+03 -0.18825304063E+03 -0.92129835379E+03  0.11851500830E+04  0.65864270000E+03 0. -1.
    8880022    1    1    2    0    0  0.29417792043E+03  0.18825304063E+03  0.34876500103E+03  0.51672868619E+03  0.15294330000E+03 0.  0.
<mgrwt>
<rscale>  0 0.63045117E+03</rscale>
<asrwt>0</asrwt>
<pdfrwt beam="1">  1        2 0.17495478E+00 0.74551329E+03</pdfrwt>
<pdfrwt beam="2">  1       -2 0.86872725E-01 0.74551329E+03</pdfrwt>
<totfact> 0.24134673E+01</totfact>
</mgrwt>
</event>
<event>
 4    2  0.2930016E-007  0.6931926E+03  0.7818608E-02  0.1002671E+00
          2   -1    0    0  501    0  0.00000000000E+00  0.00000000000E+00  0.28443562849E+04  0.28443562849E+04  0.25500000000E-02 0. -1.
         -2   -1    0    0    0  501 -0.00000000000E+00 -0.00000000000E+00 -0.15459512699E+03  0.15459512701E+03  0.25500000000E-02 0.  1.
    8880023    1    1    2    0    0 -0.18072176949E+03  0.11851309768E+03  0.26400850976E+04  0.27295723550E+04  0.65864270000E+03 0. -1.
    8880022    1    1    2    0    0  0.18072176949E+03 -0.11851309768E+03  0.49676060228E+02  0.26937905684E+03  0.15294330000E+03 0.  0.
<mgrwt>
<rscale>  0 0.54494557E+03</rscale>
<asrwt>0</asrwt>
<pdfrwt beam="1">  1        2 0.43759323E+00 0.69319256E+03</pdfrwt>
<pdfrwt beam="2">  1       -2 0.23783868E-01 0.69319256E+03</pdfrwt>
<totfact> 0.36166544E+01</totfact>
</mgrwt>
</event>
<event>
 4    2  0.2930016E-007  0.8586577E+03  0.7818608E-02  0.9595956E-01
         -2   -1    0    0    0  501 -0.00000000000E+00  0.00000000000E+00  0.63811637432E+03  0.63811637432E+03  0.25500000000E-02 0.  1.
          2   -1    0    0  501    0  0.00000000000E+00 -0.00000000000E+00 -0.11822893393E+04  0.11822893393E+04  0.25500000000E-02 0. -1.
    8880023    1    1    2    0    0  0.23386578810E+03 -0.49878813276E+03 -0.81849928864E+03  0.11862689830E+04  0.65864270000E+03 0. -1.
    8880022    1    1    2    0    0 -0.23386578810E+03  0.49878813276E+03  0.27432632369E+03  0.63413673061E+03  0.15294330000E+03 0.  0.
<mgrwt>
<rscale>  0 0.77564441E+03</rscale>
<asrwt>0</asrwt>
<pdfrwt beam="1">  1        2 0.18189067E+00 0.85865768E+03</pdfrwt>
<pdfrwt beam="2">  1       -2 0.98171750E-01 0.85865768E+03</pdfrwt>
<totfact> 0.16868974E+01</totfact>
</mgrwt>
</event>
<event>
 4    2  0.2930016E-007  0.1368141E+04  0.7818608E-02  0.9008842E-01
         -2   -1    0    0    0  501 -0.00000000000E+00  0.00000000000E+00  0.89660832761E+03  0.89660832762E+03  0.25500000000E-02 0.  1.
          2   -1    0    0  501    0  0.00000000000E+00 -0.00000000000E+00 -0.23063488322E+04  0.23063488322E+04  0.25500000000E-02 0. -1.
    8880023    1    1    2    0    0  0.11333199214E+04  0.39189946747E+03 -0.14497895265E+04  0.19934139345E+04  0.65864270000E+03 0.  0.
    8880022    1    1    2    0    0 -0.11333199214E+04 -0.39189946747E+03  0.40049021891E+02  0.12095432253E+04  0.15294330000E+03 0.  0.
<mgrwt>
<rscale>  0 0.13264592E+04</rscale>
<asrwt>0</asrwt>
<pdfrwt beam="1">  1        2 0.35482289E+00 0.13681409E+04</pdfrwt>
<pdfrwt beam="2">  1       -2 0.13793974E+00 0.13681409E+04</pdfrwt>
<totfact> 0.16088329E+00</totfact>
</mgrwt>
</event>
<event>
 4    2  0.2930016E-007  0.8975157E+03  0.7818608E-02  0.9530032E-01
          2   -1    0    0  501    0  0.00000000000E+00  0.00000000000E+00  0.10548171342E+04  0.10548171342E+04  0.25500000000E-02 0. -1.
         -2   -1    0    0    0  501 -0.00000000000E+00 -0.00000000000E+00 -0.93739916069E+03  0.93739916070E+03  0.25500000000E-02 0.  1.
    8880023    1    1    2    0    0 -0.43595594434E+03 -0.42622359216E+03  0.69765022004E+03  0.11367718204E+04  0.65864270000E+03 0.  0.
    8880022    1    1    2    0    0  0.43595594434E+03  0.42622359216E+03 -0.58023224656E+03  0.85544447446E+03  0.15294330000E+03 0.  0.
<mgrwt>
<rscale>  0 0.82105466E+03</rscale>
<asrwt>0</asrwt>
<pdfrwt beam="1">  1        2 0.16227956E+00 0.89751565E+03</pdfrwt>
<pdfrwt beam="2">  1       -2 0.14421526E+00 0.89751565E+03</pdfrwt>
<totfact> 0.77384997E+00</totfact>
</mgrwt>
</event>
<event>
 4    2  0.2930016E-007  0.1279134E+04  0.7818608E-02  0.9083791E-01
         -2   -1    0    0    0  501 -0.00000000000E+00  0.00000000000E+00  0.10664564285E+04  0.10664564285E+04  0.25500000000E-02 0.  1.
          2   -1    0    0  501    0  0.00000000000E+00 -0.00000000000E+00 -0.16976487834E+04  0.16976487834E+04  0.25500000000E-02 0. -1.
    8880023    1    1    2    0    0  0.10773661734E+04 -0.20410019322E+03  0.30409546250E+03  0.13147847798E+04  0.65864270000E+03 0.  0.
    8880022    1    1    2    0    0 -0.10773661734E+04  0.20410019322E+03 -0.93528781737E+03  0.14493204321E+04  0.15294330000E+03 0.  0.
<mgrwt>
<rscale>  0 0.12337811E+04</rscale>
<asrwt>0</asrwt>
<pdfrwt beam="1">  1        2 0.26117674E+00 0.12791345E+04</pdfrwt>
<pdfrwt beam="2">  1       -2 0.16407022E+00 0.12791345E+04</pdfrwt>
<totfact> 0.22281961E+00</totfact>
</mgrwt>
</event>
<event>
 4    2  0.2930016E-007  0.1267595E+04  0.7818608E-02  0.9094061E-01
         -2   -1    0    0    0  501 -0.00000000000E+00  0.00000000000E+00  0.77491639398E+03  0.77491639399E+03  0.25500000000E-02 0.  1.
          2   -1    0    0  501    0  0.00000000000E+00 -0.00000000000E+00 -0.26957424617E+04  0.26957424617E+04  0.25500000000E-02 0. -1.
    8880023    1    1    2    0    0  0.10830241088E+04 -0.68318947076E+01 -0.20066697156E+04  0.23735040444E+04  0.65864270000E+03 0.  0.
    8880022    1    1    2    0    0 -0.10830241088E+04  0.68318947076E+01  0.85843647943E+02  0.10971548112E+04  0.15294330000E+03 0.  0.
<mgrwt>
<rscale>  0 0.12217128E+04</rscale>
<asrwt>0</asrwt>
<pdfrwt beam="1">  1        2 0.41472961E+00 0.12675954E+04</pdfrwt>
<pdfrwt beam="2">  1       -2 0.11921791E+00 0.12675954E+04</pdfrwt>
<totfact> 0.14057106E+00</totfact>
</mgrwt>
</event>
<event>
 4    2  0.2930016E-007  0.7579102E+03  0.7818608E-02  0.9810548E-01
         -2   -1    0    0    0  501 -0.00000000000E+00  0.00000000000E+00  0.18220207385E+03  0.18220207386E+03  0.25500000000E-02 0.  1.
          2   -1    0    0  501    0  0.00000000000E+00 -0.00000000000E+00 -0.25725324951E+04  0.25725324951E+04  0.25500000000E-02 0. -1.
    8880023    1    1    2    0    0 -0.33197611330E+03 -0.17438333185E+03 -0.21593878338E+04  0.22885330911E+04  0.65864270000E+03 0.  0.
    8880022    1    1    2    0    0  0.33197611330E+03  0.17438333185E+03 -0.23094258751E+03  0.46620147787E+03  0.15294330000E+03 0.  0.
<mgrwt>
<rscale>  0 0.64799535E+03</rscale>
<asrwt>0</asrwt>
<pdfrwt beam="1">  1        2 0.39577420E+00 0.75791021E+03</pdfrwt>
<pdfrwt beam="2">  1       -2 0.28031090E-01 0.75791021E+03</pdfrwt>
<totfact> 0.38294273E+01</totfact>
</mgrwt>
</event>
<event>
 4    2  0.2930016E-007  0.8896914E+03  0.7818608E-02  0.9542787E-01
         -2   -1    0    0    0  501 -0.00000000000E+00  0.00000000000E+00  0.52915117705E+03  0.52915117706E+03  0.25500000000E-02 0.  1.
          2   -1    0    0  501    0  0.00000000000E+00 -0.00000000000E+00 -0.14519780675E+04  0.14519780675E+04  0.25500000000E-02 0. -1.
    8880023    1    1    2    0    0  0.42781324761E+03  0.41799089837E+03 -0.23133579725E+02  0.88999209812E+03  0.65864270000E+03 0.  0.
    8880022    1    1    2    0    0 -0.42781324761E+03 -0.41799089837E+03 -0.89969331069E+03  0.10911371464E+04  0.15294330000E+03 0.  0.
<mgrwt>
<rscale>  0 0.81201490E+03</rscale>
<asrwt>0</asrwt>
<pdfrwt beam="1">  1        2 0.22338124E+00 0.88969139E+03</pdfrwt>
<pdfrwt beam="2">  1       -2 0.81407874E-01 0.88969139E+03</pdfrwt>
<totfact> 0.18092980E+01</totfact>
</mgrwt>
</event>
<event>
 4    2  0.2930016E-007  0.1109458E+04  0.7818608E-02  0.9250598E-01
          2   -1    0    0  501    0  0.00000000000E+00  0.00000000000E+00  0.19407505149E+04  0.19407505149E+04  0.25500000000E-02 0. -1.
         -2   -1    0    0    0  501 -0.00000000000E+00 -0.00000000000E+00 -0.72176976224E+03  0.72176976225E+03  0.25500000000E-02 0.  1.
    8880023    1    1    2    0    0  0.80130399974E+03 -0.39369890040E+03  0.13498839746E+04  0.17473076075E+04  0.65864270000E+03 0.  0.
    8880022    1    1    2    0    0 -0.80130399974E+03  0.39369890040E+03 -0.13090322191E+03  0.91521266965E+03  0.15294330000E+03 0.  0.
<mgrwt>
<rscale>  0 0.10546092E+04</rscale>
<asrwt>0</asrwt>
<pdfrwt beam="1">  1        2 0.29857700E+00 0.11094580E+04</pdfrwt>
<pdfrwt beam="2">  1       -2 0.11104150E+00 0.11094580E+04</pdfrwt>
<totfact> 0.45657826E+00</totfact>
</mgrwt>
</event>
<event>
 4    2  0.2930016E-007  0.6737102E+03  0.7818608E-02  0.1013132E+00
          2   -1    0    0  501    0  0.00000000000E+00  0.00000000000E+00  0.91549955572E+03  0.91549955572E+03  0.25500000000E-02 0. -1.
         -2   -1    0    0    0  501 -0.00000000000E+00 -0.00000000000E+00 -0.44235947592E+03  0.44235947593E+03  0.25500000000E-02 0.  1.
    8880023    1    1    2    0    0  0.14079969037E+03 -0.15832128638E+02  0.75201959339E+03  0.10096627577E+04  0.65864270000E+03 0. -1.
    8880022    1    1    2    0    0 -0.14079969037E+03  0.15832128638E+02 -0.27887951359E+03  0.34819627399E+03  0.15294330000E+03 0.  0.
<mgrwt>
<rscale>  0 0.50248676E+03</rscale>
<asrwt>0</asrwt>
<pdfrwt beam="1">  1        2 0.14084608E+00 0.67371019E+03</pdfrwt>
<pdfrwt beam="2">  1       -2 0.68055305E-01 0.67371019E+03</pdfrwt>
<totfact> 0.57771501E+01</totfact>
</mgrwt>
</event>
<event>
 4    2  0.2930016E-007  0.6725870E+03  0.7818608E-02  0.1013872E+00
         -2   -1    0    0    0  501 -0.00000000000E+00  0.00000000000E+00  0.12053362681E+03  0.12053362684E+03  0.25500000000E-02 0.  1.
          2   -1    0    0  501    0  0.00000000000E+00 -0.00000000000E+00 -0.19464380440E+04  0.19464380440E+04  0.25500000000E-02 0. -1.
    8880023    1    1    2    0    0  0.13597220194E+03  0.86368328805E+01 -0.16958121520E+04  0.18243223662E+04  0.65864270000E+03 0. -1.
    8880022    1    1    2    0    0 -0.13597220194E+03 -0.86368328805E+01 -0.13009226520E+03  0.24264930468E+03  0.15294330000E+03 0.  0.
<mgrwt>
<rscale>  0 0.49964196E+03</rscale>
<asrwt>0</asrwt>
<pdfrwt beam="1">  1        2 0.29945198E+00 0.67258698E+03</pdfrwt>
<pdfrwt beam="2">  1       -2 0.18543636E-01 0.67258698E+03</pdfrwt>
<totfact> 0.17960002E+02</totfact>
</mgrwt>
</event>
<event>
 4    2  0.2930016E-007  0.8418751E+03  0.7818608E-02  0.9626655E-01
          2   -1    0    0  501    0  0.00000000000E+00  0.00000000000E+00  0.28319313240E+04  0.28319313240E+04  0.25500000000E-02 0. -1.
         -2   -1    0    0    0  501 -0.00000000000E+00 -0.00000000000E+00 -0.45748935498E+03  0.45748935498E+03  0.25500000000E-02 0.  1.
    8880023    1    1    2    0    0  0.51496938923E+03  0.98742322274E+02  0.25737899707E+04  0.27079786811E+04  0.65864270000E+03 0. -1.
    8880022    1    1    2    0    0 -0.51496938923E+03 -0.98742322274E+02 -0.19934800167E+03  0.58144199783E+03  0.15294330000E+03 0.  0.
<mgrwt>
<rscale>  0 0.75556845E+03</rscale>
<asrwt>0</asrwt>
<pdfrwt beam="1">  1        2 0.43568174E+00 0.84187512E+03</pdfrwt>
<pdfrwt beam="2">  1       -2 0.70382978E-01 0.84187512E+03</pdfrwt>
<totfact> 0.42376336E+00</totfact>
</mgrwt>
</event>
<event>
 4    2  0.2930016E-007  0.6872848E+03  0.7818608E-02  0.1005471E+00
          2   -1    0    0  501    0  0.00000000000E+00  0.00000000000E+00  0.12157388186E+04  0.12157388186E+04  0.25500000000E-02 0. -1.
         -2   -1    0    0    0  501 -0.00000000000E+00 -0.00000000000E+00 -0.18900678377E+03  0.18900678379E+03  0.25500000000E-02 0.  1.
    8880023    1    1    2    0    0 -0.19078398754E+03 -0.46386192162E+02  0.87727052972E+03  0.11144343845E+04  0.65864270000E+03 0.  1.
    8880022    1    1    2    0    0  0.19078398754E+03  0.46386192162E+02  0.14946150512E+03  0.29031121792E+03  0.15294330000E+03 0.  0.
<mgrwt>
<rscale>  0 0.53315145E+03</rscale>
<asrwt>0</asrwt>
<pdfrwt beam="1">  1        2 0.18703675E+00 0.68728481E+03</pdfrwt>
<pdfrwt beam="2">  1       -2 0.29077966E-01 0.68728481E+03</pdfrwt>
<totfact> 0.20456191E+02</totfact>
</mgrwt>
</event>
<event>
 4    2  0.2930016E-007  0.1126024E+04  0.7818608E-02  0.9232620E-01
          2   -1    0    0  501    0  0.00000000000E+00  0.00000000000E+00  0.27225223373E+04  0.27225223373E+04  0.25500000000E-02 0. -1.
         -2   -1    0    0    0  501 -0.00000000000E+00 -0.00000000000E+00 -0.65594709128E+03  0.65594709129E+03  0.25500000000E-02 0.  1.
    8880023    1    1    2    0    0  0.34211433549E+03 -0.84680415375E+03  0.21719377124E+04  0.24464756541E+04  0.65864270000E+03 0.  0.
    8880022    1    1    2    0    0 -0.34211433549E+03  0.84680415375E+03 -0.10536246638E+03  0.93199377449E+03  0.15294330000E+03 0.  0.
<mgrwt>
<rscale>  0 0.10722984E+04</rscale>
<asrwt>0</asrwt>
<pdfrwt beam="1">  1        2 0.41884960E+00 0.11260238E+04</pdfrwt>
<pdfrwt beam="2">  1       -2 0.10091494E+00 0.11260238E+04</pdfrwt>
<totfact> 0.20714662E+00</totfact>
</mgrwt>
</event>
<event>
 4    2  0.2930016E-007  0.7048278E+03  0.7818608E-02  0.9977734E-01
         -2   -1    0    0    0  501 -0.00000000000E+00  0.00000000000E+00  0.33390227697E+03  0.33390227698E+03  0.25500000000E-02 0.  1.
          2   -1    0    0  501    0  0.00000000000E+00 -0.00000000000E+00 -0.15386208132E+04  0.15386208132E+04  0.25500000000E-02 0. -1.
    8880023    1    1    2    0    0  0.21404781092E+03 -0.13097916291E+03 -0.13661303909E+04  0.15372359799E+04  0.65864270000E+03 0.  0.
    8880022    1    1    2    0    0 -0.21404781092E+03  0.13097916291E+03  0.16141185473E+03  0.33528711031E+03  0.15294330000E+03 0.  0.
<mgrwt>
<rscale>  0 0.56637444E+03</rscale>
<asrwt>0</asrwt>
<pdfrwt beam="1">  1        2 0.23671089E+00 0.70482779E+03</pdfrwt>
<pdfrwt beam="2">  1       -2 0.51369582E-01 0.70482779E+03</pdfrwt>
<totfact> 0.44432903E+01</totfact>
</mgrwt>
</event>
<event>
 4    2  0.2930016E-007  0.7938215E+03  0.7818608E-02  0.9724318E-01
         -2   -1    0    0    0  501 -0.00000000000E+00  0.00000000000E+00  0.11420586259E+04  0.11420586259E+04  0.25500000000E-02 0.  1.
          2   -1    0    0  501    0  0.00000000000E+00 -0.00000000000E+00 -0.37535241071E+03  0.37535241072E+03  0.25500000000E-02 0. -1.
    8880023    1    1    2    0    0 -0.99081581380E+02  0.43188567075E+03  0.28020398352E+03  0.84182353911E+03  0.65864270000E+03 0. -1.
    8880022    1    1    2    0    0  0.99081581380E+02 -0.43188567075E+03  0.48650223170E+03  0.67558749754E+03  0.15294330000E+03 0.  1.
<mgrwt>
<rscale>  0 0.69587193E+03</rscale>
<asrwt>0</asrwt>
<pdfrwt beam="1">  1        2 0.57746525E-01 0.79382152E+03</pdfrwt>
<pdfrwt beam="2">  1       -2 0.17570132E+00 0.79382152E+03</pdfrwt>
<totfact> 0.16782254E+01</totfact>
</mgrwt>
</event>
<event>
 4    2  0.2930016E-007  0.7820565E+03  0.7818608E-02  0.9751028E-01
          2   -1    0    0  501    0  0.00000000000E+00  0.00000000000E+00  0.24617610988E+04  0.24617610988E+04  0.25500000000E-02 0. -1.
         -2   -1    0    0    0  501 -0.00000000000E+00 -0.00000000000E+00 -0.70099157316E+03  0.70099157316E+03  0.25500000000E-02 0.  1.
    8880023    1    1    2    0    0  0.19795438528E+03  0.37231208061E+03  0.23186073541E+04  0.24469475868E+04  0.65864270000E+03 0. -1.
    8880022    1    1    2    0    0 -0.19795438528E+03 -0.37231208061E+03 -0.55783782845E+03  0.71580508512E+03  0.15294330000E+03 0.  0.
<mgrwt>
<rscale>  0 0.68058200E+03</rscale>
<asrwt>0</asrwt>
<pdfrwt beam="1">  1        2 0.37873248E+00 0.78205654E+03</pdfrwt>
<pdfrwt beam="2">  1       -2 0.10784486E+00 0.78205654E+03</pdfrwt>
<totfact> 0.26335648E+00</totfact>
</mgrwt>
</event>
<event>
 4    2  0.2930016E-007  0.6710807E+03  0.7818608E-02  0.1014900E+00
          2   -1    0    0  501    0  0.00000000000E+00  0.00000000000E+00  0.28749146711E+04  0.28749146711E+04  0.25500000000E-02 0. -1.
         -2   -1    0    0    0  501 -0.00000000000E+00 -0.00000000000E+00 -0.10303274276E+03  0.10303274279E+03  0.25500000000E-02 0.  1.
    8880023    1    1    2    0    0  0.10198983726E+03  0.78340108392E+02  0.26711654499E+04  0.27541739536E+04  0.65864270000E+03 0. -1.
    8880022    1    1    2    0    0 -0.10198983726E+03 -0.78340108392E+02  0.10071647839E+03  0.22377346027E+03  0.15294330000E+03 0.  0.
<mgrwt>
<rscale>  0 0.49572920E+03</rscale>
<asrwt>0</asrwt>
<pdfrwt beam="1">  1        2 0.44229453E+00 0.67108070E+03</pdfrwt>
<pdfrwt beam="2">  1       -2 0.15851193E-01 0.67108070E+03</pdfrwt>
<totfact> 0.70557214E+01</totfact>
</mgrwt>
</event>
<event>
 4    2  0.2930016E-007  0.7949624E+03  0.7818608E-02  0.9721796E-01
         -2   -1    0    0    0  501 -0.00000000000E+00  0.00000000000E+00  0.64388794243E+03  0.64388794243E+03  0.25500000000E-02 0.  1.
          2   -1    0    0  501    0  0.00000000000E+00 -0.00000000000E+00 -0.16275204639E+04  0.16275204639E+04  0.25500000000E-02 0. -1.
    8880023    1    1    2    0    0  0.88168336638E+02 -0.43632712156E+03 -0.14214067865E+04  0.16286075253E+04  0.65864270000E+03 0.  0.
    8880022    1    1    2    0    0 -0.88168336638E+02  0.43632712156E+03  0.43777426497E+03  0.64280088105E+03  0.15294330000E+03 0.  0.
<mgrwt>
<rscale>  0 0.69733762E+03</rscale>
<asrwt>0</asrwt>
<pdfrwt beam="1">  1        2 0.25038776E+00 0.79496240E+03</pdfrwt>
<pdfrwt beam="2">  1       -2 0.99059684E-01 0.79496240E+03</pdfrwt>
<totfact> 0.92816920E+00</totfact>
</mgrwt>
</event>
<event>
 4    2  0.2930016E-007  0.7747739E+03  0.7818608E-02  0.9768260E-01
         -2   -1    0    0    0  501 -0.00000000000E+00  0.00000000000E+00  0.55788792560E+03  0.55788792561E+03  0.25500000000E-02 0.  1.
          2   -1    0    0  501    0  0.00000000000E+00 -0.00000000000E+00 -0.66410258463E+03  0.66410258464E+03  0.25500000000E-02 0. -1.
    8880023    1    1    2    0    0  0.32538598691E+03 -0.24614688052E+03 -0.13005711084E+03  0.78561401822E+03  0.65864270000E+03 0.  0.
    8880022    1    1    2    0    0 -0.32538598691E+03  0.24614688052E+03  0.23842451814E+02  0.43637649203E+03  0.15294330000E+03 0.  1.
<mgrwt>
<rscale>  0 0.67094088E+03</rscale>
<asrwt>0</asrwt>
<pdfrwt beam="1">  1        2 0.10216963E+00 0.77477386E+03</pdfrwt>
<pdfrwt beam="2">  1       -2 0.85828911E-01 0.77477386E+03</pdfrwt>
<totfact> 0.52152947E+01</totfact>
</mgrwt>
</event>
<event>
 4    2  0.2930016E-007  0.7060658E+03  0.7818608E-02  0.9972911E-01
         -2   -1    0    0    0  501 -0.00000000000E+00  0.00000000000E+00  0.33523757638E+03  0.33523757639E+03  0.25500000000E-02 0.  1.
          2   -1    0    0  501    0  0.00000000000E+00 -0.00000000000E+00 -0.85778129998E+03  0.85778129998E+03  0.25500000000E-02 0. -1.
    8880023    1    1    2    0    0 -0.21757963126E+03  0.13182485483E+03 -0.54988070359E+03  0.89492887021E+03  0.65864270000E+03 0.  0.
    8880022    1    1    2    0    0  0.21757963126E+03 -0.13182485483E+03  0.27336979989E+02  0.29809000617E+03  0.15294330000E+03 0.  0.
<mgrwt>
<rscale>  0 0.56854159E+03</rscale>
<asrwt>0</asrwt>
<pdfrwt beam="1">  1        2 0.13196635E+00 0.70606579E+03</pdfrwt>
<pdfrwt beam="2">  1       -2 0.51575012E-01 0.70606579E+03</pdfrwt>
<totfact> 0.11300897E+02</totfact>
</mgrwt>
</event>
<event>
 4    2  0.2930016E-007  0.8591915E+03  0.7818608E-02  0.9595003E-01
          2   -1    0    0  501    0  0.00000000000E+00  0.00000000000E+00  0.89065603520E+03  0.89065603520E+03  0.25500000000E-02 0. -1.
         -2   -1    0    0    0  501 -0.00000000000E+00 -0.00000000000E+00 -0.94300061549E+03  0.94300061549E+03  0.25500000000E-02 0.  1.
    8880023    1    1    2    0    0 -0.35080631256E+03  0.42583422960E+03  0.53603604094E+03  0.10126918107E+04  0.65864270000E+03 0.  0.
    8880022    1    1    2    0    0  0.35080631256E+03 -0.42583422960E+03 -0.58838062123E+03  0.82096483998E+03  0.15294330000E+03 0.  0.
<mgrwt>
<rscale>  0 0.77627786E+03</rscale>
<asrwt>0</asrwt>
<pdfrwt beam="1">  1        2 0.13702401E+00 0.85919152E+03</pdfrwt>
<pdfrwt beam="2">  1       -2 0.14507702E+00 0.85919152E+03</pdfrwt>
<totfact> 0.97829113E+00</totfact>
</mgrwt>
</event>
<event>
 4    2  0.2930016E-007  0.7427166E+03  0.7818608E-02  0.9852103E-01
          2   -1    0    0  501    0  0.00000000000E+00  0.00000000000E+00  0.11991602034E+03  0.11991602037E+03  0.25500000000E-02 0. -1.
         -2   -1    0    0    0  501 -0.00000000000E+00 -0.00000000000E+00 -0.31972147864E+04  0.31972147864E+04  0.25500000000E-02 0.  1.
    8880023    1    1    2    0    0  0.24726904025E+03 -0.23806658237E+03 -0.12704704871E+04  0.14716396097E+04  0.65864270000E+03 0.  1.
    8880022    1    1    2    0    0 -0.24726904025E+03  0.23806658237E+03 -0.18068282789E+04  0.18454911971E+04  0.15294330000E+03 0.  0.
<mgrwt>
<rscale>  0 0.62639784E+03</rscale>
<asrwt>0</asrwt>
<pdfrwt beam="1">  1        2 0.18448621E-01 0.74271656E+03</pdfrwt>
<pdfrwt beam="2">  1       -2 0.49187913E+00 0.74271656E+03</pdfrwt>
<totfact> 0.61400398E-01</totfact>
</mgrwt>
</event>
<event>
 4    2  0.2930016E-007  0.7693609E+03  0.7818608E-02  0.9781449E-01
          2   -1    0    0  501    0  0.00000000000E+00  0.00000000000E+00  0.29712610311E+04  0.29712610311E+04  0.25500000000E-02 0. -1.
         -2   -1    0    0    0  501 -0.00000000000E+00 -0.00000000000E+00 -0.38529986408E+03  0.38529986409E+03  0.25500000000E-02 0.  1.
    8880023    1    1    2    0    0  0.25883536790E+03  0.30184472753E+03  0.27828474821E+04  0.28872402571E+04  0.65864270000E+03 0. -1.
    8880022    1    1    2    0    0 -0.25883536790E+03 -0.30184472753E+03 -0.19688631512E+03  0.46932063806E+03  0.15294330000E+03 0.  0.
<mgrwt>
<rscale>  0 0.66367652E+03</rscale>
<asrwt>0</asrwt>
<pdfrwt beam="1">  1        2 0.45711708E+00 0.76936090E+03</pdfrwt>
<pdfrwt beam="2">  1       -2 0.59276902E-01 0.76936090E+03</pdfrwt>
<totfact> 0.51167135E+00</totfact>
</mgrwt>
</event>
<event>
 4    2  0.2930016E-007  0.6608103E+03  0.7818608E-02  0.1023341E+00
          2   -1    0    0  501    0  0.00000000000E+00  0.00000000000E+00  0.20139430903E+04  0.20139430903E+04  0.25500000000E-02 0. -1.
         -2   -1    0    0    0  501 -0.00000000000E+00 -0.00000000000E+00 -0.19377923866E+03  0.19377923868E+03  0.25500000000E-02 0.  1.
    8880023    1    1    2    0    0  0.46359660767E+02  0.26661905897E+02  0.19109624458E+04  0.20219910363E+04  0.65864270000E+03 0. -1.
    8880022    1    1    2    0    0 -0.46359660767E+02 -0.26661905897E+02 -0.90798594142E+02  0.18573129269E+03  0.15294330000E+03 0.  0.
<mgrwt>
<rscale>  0 0.46499936E+03</rscale>
<asrwt>0</asrwt>
<pdfrwt beam="1">  1        2 0.30983741E+00 0.66081032E+03</pdfrwt>
<pdfrwt beam="2">  1       -2 0.29812190E-01 0.66081032E+03</pdfrwt>
<totfact> 0.70754765E+01</totfact>
</mgrwt>
</event>
<event>
 4    2  0.2930016E-007  0.9013268E+03  0.7818608E-02  0.9523905E-01
          2   -1    0    0  501    0  0.00000000000E+00  0.00000000000E+00  0.33497127537E+04  0.33497127537E+04  0.25500000000E-02 0. -1.
         -2   -1    0    0    0  501 -0.00000000000E+00 -0.00000000000E+00 -0.48267874041E+03  0.48267874042E+03  0.25500000000E-02 0.  1.
    8880023    1    1    2    0    0 -0.25794860334E+03  0.55860747717E+03  0.53780711668E+01  0.90134284566E+03  0.65864270000E+03 0.  1.
    8880022    1    1    2    0    0  0.25794860334E+03 -0.55860747717E+03  0.28616559421E+04  0.29310486485E+04  0.15294330000E+03 0.  0.
<mgrwt>
<rscale>  0 0.82544115E+03</rscale>
<asrwt>0</asrwt>
<pdfrwt beam="1">  1        2 0.51534044E+00 0.90132680E+03</pdfrwt>
<pdfrwt beam="2">  1       -2 0.74258266E-01 0.90132680E+03</pdfrwt>
<totfact> 0.17659734E+00</totfact>
</mgrwt>
</event>
<event>
 4    2  0.2930016E-007  0.8478804E+03  0.7818608E-02  0.9615496E-01
          2   -1    0    0  501    0  0.00000000000E+00  0.00000000000E+00  0.18951339491E+04  0.18951339491E+04  0.25500000000E-02 0. -1.
         -2   -1    0    0    0  501 -0.00000000000E+00 -0.00000000000E+00 -0.50555998133E+03  0.50555998133E+03  0.25500000000E-02 0.  1.
    8880023    1    1    2    0    0 -0.14929930238E+03 -0.51264081120E+03  0.15967480631E+04  0.18079008453E+04  0.65864270000E+03 0.  0.
    8880022    1    1    2    0    0  0.14929930238E+03  0.51264081120E+03 -0.20717409535E+03  0.59279308515E+03  0.15294330000E+03 0.  0.
<mgrwt>
<rscale>  0 0.76278958E+03</rscale>
<asrwt>0</asrwt>
<pdfrwt beam="1">  1        2 0.29155906E+00 0.84788035E+03</pdfrwt>
<pdfrwt beam="2">  1       -2 0.77778460E-01 0.84788035E+03</pdfrwt>
<totfact> 0.11465066E+01</totfact>
</mgrwt>
</event>
<event>
 4    2  0.2930016E-007  0.8275418E+03  0.7818608E-02  0.9654134E-01
         -2   -1    0    0    0  501 -0.00000000000E+00  0.00000000000E+00  0.33875432097E+03  0.33875432098E+03  0.25500000000E-02 0.  1.
          2   -1    0    0  501    0  0.00000000000E+00 -0.00000000000E+00 -0.17565680156E+04  0.17565680156E+04  0.25500000000E-02 0. -1.
    8880023    1    1    2    0    0 -0.41572737152E+03  0.27961755670E+03 -0.33561543846E+03  0.89300792507E+03  0.65864270000E+03 0.  1.
    8880022    1    1    2    0    0  0.41572737152E+03 -0.27961755670E+03 -0.10821982562E+04  0.12023144116E+04  0.15294330000E+03 0.  0.
<mgrwt>
<rscale>  0 0.73814525E+03</rscale>
<asrwt>0</asrwt>
<pdfrwt beam="1">  1        2 0.27024123E+00 0.82754180E+03</pdfrwt>
<pdfrwt beam="2">  1       -2 0.52116050E-01 0.82754180E+03</pdfrwt>
<totfact> 0.32287855E+01</totfact>
</mgrwt>
</event>
<event>
 4    2  0.2930016E-007  0.8757386E+03  0.7818608E-02  0.9566158E-01
         -2   -1    0    0    0  501 -0.00000000000E+00  0.00000000000E+00  0.47565448683E+03  0.47565448683E+03  0.25500000000E-02 0.  1.
          2   -1    0    0  501    0  0.00000000000E+00 -0.00000000000E+00 -0.19742619179E+04  0.19742619179E+04  0.25500000000E-02 0. -1.
    8880023    1    1    2    0    0  0.18490547231E+03  0.54673382950E+03 -0.16191393583E+04  0.18407961272E+04  0.65864270000E+03 0. -1.
    8880022    1    1    2    0    0 -0.18490547231E+03 -0.54673382950E+03  0.12053192724E+03  0.60912027753E+03  0.15294330000E+03 0.  0.
<mgrwt>
<rscale>  0 0.79577126E+03</rscale>
<asrwt>0</asrwt>
<pdfrwt beam="1">  1        2 0.30373260E+00 0.87573861E+03</pdfrwt>
<pdfrwt beam="2">  1       -2 0.73177614E-01 0.87573861E+03</pdfrwt>
<totfact> 0.11841193E+01</totfact>
</mgrwt>
</event>
<event>
 4    2  0.2930016E-007  0.8314327E+03  0.7818608E-02  0.9646551E-01
         -2   -1    0    0    0  501 -0.00000000000E+00  0.00000000000E+00  0.70434074966E+03  0.70434074966E+03  0.25500000000E-02 0.  1.
          2   -1    0    0  501    0  0.00000000000E+00 -0.00000000000E+00 -0.17084437231E+04  0.17084437231E+04  0.25500000000E-02 0. -1.
    8880023    1    1    2    0    0  0.37053401695E+03  0.34666225372E+03 -0.14819179461E+04  0.16992236996E+04  0.65864270000E+03 0. -1.
    8880022    1    1    2    0    0 -0.37053401695E+03 -0.34666225372E+03  0.47781497269E+03  0.71356077318E+03  0.15294330000E+03 0.  0.
<mgrwt>
<rscale>  0 0.74290268E+03</rscale>
<asrwt>0</asrwt>
<pdfrwt beam="1">  1        2 0.26283749E+00 0.83143273E+03</pdfrwt>
<pdfrwt beam="2">  1       -2 0.10836012E+00 0.83143273E+03</pdfrwt>
<totfact> 0.67243980E+00</totfact>
</mgrwt>
</event>
<event>
 4    2  0.2930016E-007  0.6911224E+03  0.7818608E-02  0.1003624E+00
         -2   -1    0    0    0  501 -0.00000000000E+00  0.00000000000E+00  0.19087324276E+03  0.19087324278E+03  0.25500000000E-02 0.  1.
          2   -1    0    0  501    0  0.00000000000E+00 -0.00000000000E+00 -0.13935346524E+04  0.13935346524E+04  0.25500000000E-02 0. -1.
    8880023    1    1    2    0    0  0.59633841356E+02  0.20070809815E+03 -0.11128677996E+04  0.13100094966E+04  0.65864270000E+03 0.  0.
    8880022    1    1    2    0    0 -0.59633841356E+02 -0.20070809815E+03 -0.89793610058E+02  0.27439839853E+03  0.15294330000E+03 0.  0.
<mgrwt>
<rscale>  0 0.54089490E+03</rscale>
<asrwt>0</asrwt>
<pdfrwt beam="1">  1        2 0.21438994E+00 0.69112238E+03</pdfrwt>
<pdfrwt beam="2">  1       -2 0.29365115E-01 0.69112238E+03</pdfrwt>
<totfact> 0.15870815E+02</totfact>
</mgrwt>
</event>
<event>
 4    2  0.2930016E-007  0.7068625E+03  0.7818608E-02  0.9969841E-01
         -2   -1    0    0    0  501 -0.00000000000E+00  0.00000000000E+00  0.28560490981E+03  0.28560490982E+03  0.25500000000E-02 0.  1.
          2   -1    0    0  501    0  0.00000000000E+00 -0.00000000000E+00 -0.12766877876E+04  0.12766877876E+04  0.25500000000E-02 0. -1.
    8880023    1    1    2    0    0  0.12483207245E+03 -0.22419056730E+03 -0.10421266916E+04  0.12592389386E+04  0.65864270000E+03 0.  0.
    8880022    1    1    2    0    0 -0.12483207245E+03  0.22419056730E+03  0.51043813855E+02  0.30305375881E+03  0.15294330000E+03 0.  0.
<mgrwt>
<rscale>  0 0.56992644E+03</rscale>
<asrwt>0</asrwt>
<pdfrwt beam="1">  1        2 0.19641350E+00 0.70686255E+03</pdfrwt>
<pdfrwt beam="2">  1       -2 0.43939218E-01 0.70686255E+03</pdfrwt>
<totfact> 0.85512882E+01</totfact>
</mgrwt>
</event>
<event>
 4    2  0.2930016E-007  0.7453910E+03  0.7818608E-02  0.9844513E-01
          2   -1    0    0  501    0  0.00000000000E+00  0.00000000000E+00  0.18307442641E+04  0.18307442641E+04  0.25500000000E-02 0. -1.
         -2   -1    0    0    0  501 -0.00000000000E+00 -0.00000000000E+00 -0.29622259588E+03  0.29622259589E+03  0.25500000000E-02 0.  1.
    8880023    1    1    2    0    0  0.28673363105E+03 -0.19895056106E+03  0.15762924519E+04  0.17436472123E+04  0.65864270000E+03 0. -1.
    8880022    1    1    2    0    0 -0.28673363105E+03  0.19895056106E+03 -0.41770783639E+02  0.38331964769E+03  0.15294330000E+03 0.  0.
<mgrwt>
<rscale>  0 0.63027469E+03</rscale>
<asrwt>0</asrwt>
<pdfrwt beam="1">  1        2 0.28165297E+00 0.74539098E+03</pdfrwt>
<pdfrwt beam="2">  1       -2 0.45572707E-01 0.74539098E+03</pdfrwt>
<totfact> 0.38967743E+01</totfact>
</mgrwt>
</event>
<event>
 4    2  0.2930017E-007  0.7988558E+03  0.7818608E-02  0.9713276E-01
         -2   -1    0    0    0  501 -0.00000000000E+00  0.00000000000E+00  0.66258949121E+03  0.66258949121E+03  0.25500000000E-02 0.  1.
          2   -1    0    0  501    0  0.00000000000E+00 -0.00000000000E+00 -0.19779684780E+04  0.19779684780E+04  0.25500000000E-02 0. -1.
    8880023    1    1    2    0    0 -0.42089609790E+03 -0.16494486402E+03 -0.17945188172E+04  0.19642984307E+04  0.65864270000E+03 0. -1.
    8880022    1    1    2    0    0  0.42089609790E+03  0.16494486402E+03  0.47913983037E+03  0.67625953853E+03  0.15294330000E+03 0.  0.
<mgrwt>
<rscale>  0 0.70231841E+03</rscale>
<asrwt>0</asrwt>
<pdfrwt beam="1">  1        2 0.30430284E+00 0.79885577E+03</pdfrwt>
<pdfrwt beam="2">  1       -2 0.10193685E+00 0.79885577E+03</pdfrwt>
<totfact> 0.55725697E+00</totfact>
</mgrwt>
</event>
<event>
 4    2  0.2930016E-007  0.1029689E+04  0.7818608E-02  0.9343706E-01
         -2   -1    0    0    0  501 -0.00000000000E+00  0.00000000000E+00  0.34997400231E+03  0.34997400232E+03  0.25500000000E-02 0.  1.
          2   -1    0    0  501    0  0.00000000000E+00 -0.00000000000E+00 -0.27510035050E+04  0.27510035050E+04  0.25500000000E-02 0. -1.
    8880023    1    1    2    0    0 -0.75630259541E+03 -0.23335814323E+03 -0.78412248997E+03  0.12942596047E+04  0.65864270000E+03 0.  0.
    8880022    1    1    2    0    0  0.75630259541E+03  0.23335814323E+03 -0.16169070127E+04  0.18067179026E+04  0.15294330000E+03 0.  0.
<mgrwt>
<rscale>  0 0.96856892E+03</rscale>
<asrwt>0</asrwt>
<pdfrwt beam="1">  1        2 0.42323129E+00 0.10296892E+04</pdfrwt>
<pdfrwt beam="2">  1       -2 0.53842156E-01 0.10296892E+04</pdfrwt>
<totfact> 0.81503381E+00</totfact>
</mgrwt>
</event>
<event>
 4    2  0.2930016E-007  0.9124570E+03  0.7818608E-02  0.9506323E-01
         -2   -1    0    0    0  501 -0.00000000000E+00  0.00000000000E+00  0.91441191236E+03  0.91441191236E+03  0.25500000000E-02 0.  1.
          2   -1    0    0  501    0  0.00000000000E+00 -0.00000000000E+00 -0.11103585929E+04  0.11103585929E+04  0.25500000000E-02 0. -1.
    8880023    1    1    2    0    0  0.13342602173E+03  0.61722364812E+03 -0.74198074004E+03  0.11760583148E+04  0.65864270000E+03 0.  0.
    8880022    1    1    2    0    0 -0.13342602173E+03 -0.61722364812E+03  0.54603405948E+03  0.84871219044E+03  0.15294330000E+03 0.  0.
<mgrwt>
<rscale>  0 0.83819261E+03</rscale>
<asrwt>0</asrwt>
<pdfrwt beam="1">  1        2 0.17082440E+00 0.91245698E+03</pdfrwt>
<pdfrwt beam="2">  1       -2 0.14067876E+00 0.91245698E+03</pdfrwt>
<totfact> 0.76160777E+00</totfact>
</mgrwt>
</event>
<event>
 4    2  0.2930016E-007  0.6898078E+03  0.7818608E-02  0.1004244E+00
          2   -1    0    0  501    0  0.00000000000E+00  0.00000000000E+00  0.32976356101E+04  0.32976356101E+04  0.25500000000E-02 0. -1.
         -2   -1    0    0    0  501 -0.00000000000E+00 -0.00000000000E+00 -0.12425527805E+03  0.12425527808E+03  0.25500000000E-02 0.  1.
    8880023    1    1    2    0    0  0.17117407593E+03  0.11280093095E+03  0.30691301678E+04  0.31456946463E+04  0.65864270000E+03 0. -1.
    8880022    1    1    2    0    0 -0.17117407593E+03 -0.11280093095E+03  0.10425016425E+03  0.27619624192E+03  0.15294330000E+03 0.  0.
<mgrwt>
<rscale>  0 0.53827821E+03</rscale>
<asrwt>0</asrwt>
<pdfrwt beam="1">  1        2 0.50732859E+00 0.68980781E+03</pdfrwt>
<pdfrwt beam="2">  1       -2 0.19116195E-01 0.68980781E+03</pdfrwt>
<totfact> 0.27860636E+01</totfact>
</mgrwt>
</event>
<event>
 4    2  0.2930016E-007  0.1181308E+04  0.7818608E-02  0.9175510E-01
          2   -1    0    0  501    0  0.00000000000E+00  0.00000000000E+00  0.91360504741E+03  0.91360504741E+03  0.25500000000E-02 0. -1.
         -2   -1    0    0    0  501 -0.00000000000E+00 -0.00000000000E+00 -0.15223288267E+04  0.15223288267E+04  0.25500000000E-02 0.  1.
    8880023    1    1    2    0    0 -0.42051281851E+03 -0.88591576952E+03 -0.79794061653E+03  0.14255515476E+04  0.65864270000E+03 0.  0.
    8880022    1    1    2    0    0  0.42051281851E+03  0.88591576952E+03  0.18921683720E+03  0.10103823265E+04  0.15294330000E+03 0.  0.
<mgrwt>
<rscale>  0 0.11309819E+04</rscale>
<asrwt>0</asrwt>
<pdfrwt beam="1">  1        2 0.14055462E+00 0.11813077E+04</pdfrwt>
<pdfrwt beam="2">  1       -2 0.23420443E+00 0.11813077E+04</pdfrwt>
<totfact> 0.22552237E+00</totfact>
</mgrwt>
</event>
<event>
 4    2  0.2930016E-007  0.7155627E+03  0.7818608E-02  0.9937897E-01
          2   -1    0    0  501    0  0.00000000000E+00  0.00000000000E+00  0.23546453754E+04  0.23546453754E+04  0.25500000000E-02 0. -1.
         -2   -1    0    0    0  501 -0.00000000000E+00 -0.00000000000E+00 -0.13101903583E+03  0.13101903586E+03  0.25500000000E-02 0.  1.
    8880023    1    1    2    0    0  0.16817560716E+03  0.22346514815E+03  0.10581690811E+04  0.12774003749E+04  0.65864270000E+03 0.  0.
    8880022    1    1    2    0    0 -0.16817560716E+03 -0.22346514815E+03  0.11654572584E+04  0.12082640363E+04  0.15294330000E+03 0.  0.
<mgrwt>
<rscale>  0 0.58459290E+03</rscale>
<asrwt>0</asrwt>
<pdfrwt beam="1">  1        2 0.36225313E+00 0.71556266E+03</pdfrwt>
<pdfrwt beam="2">  1       -2 0.20156775E-01 0.71556266E+03</pdfrwt>
<totfact> 0.92281649E+01</totfact>
</mgrwt>
</event>
<event>
 4    2  0.2930016E-007  0.7011562E+03  0.7818608E-02  0.9992438E-01
         -2   -1    0    0    0  501 -0.00000000000E+00  0.00000000000E+00  0.59492713686E+03  0.59492713687E+03  0.25500000000E-02 0.  1.
          2   -1    0    0  501    0  0.00000000000E+00 -0.00000000000E+00 -0.19123483416E+04  0.19123483416E+04  0.25500000000E-02 0. -1.
    8880023    1    1    2    0    0  0.12093738190E+03 -0.20780754192E+03 -0.18084138218E+04  0.19395825793E+04  0.65864270000E+03 0. -1.
    8880022    1    1    2    0    0 -0.12093738190E+03  0.20780754192E+03  0.49099261702E+03  0.56769289920E+03  0.15294330000E+03 0.  0.
<mgrwt>
<rscale>  0 0.55983053E+03</rscale>
<asrwt>0</asrwt>
<pdfrwt beam="1">  1        2 0.29420743E+00 0.70115621E+03</pdfrwt>
<pdfrwt beam="2">  1       -2 0.91527253E-01 0.70115621E+03</pdfrwt>
<totfact> 0.79135925E+00</totfact>
</mgrwt>
</event>
<event>
 4    2  0.2930016E-007  0.1092994E+04  0.7818608E-02  0.9268897E-01
         -2   -1    0    0    0  501 -0.00000000000E+00  0.00000000000E+00  0.20341447782E+04  0.20341447782E+04  0.25500000000E-02 0.  1.
          2   -1    0    0  501    0  0.00000000000E+00 -0.00000000000E+00 -0.70799569408E+03  0.70799569408E+03  0.25500000000E-02 0. -1.
    8880023    1    1    2    0    0  0.75238255174E+03  0.44129937182E+03 -0.62917064248E+02  0.10948029060E+04  0.65864270000E+03 0.  1.
    8880022    1    1    2    0    0 -0.75238255174E+03 -0.44129937182E+03  0.13890661484E+04  0.16473375663E+04  0.15294330000E+03 0.  0.
<mgrwt>
<rscale>  0 0.10369735E+04</rscale>
<asrwt>0</asrwt>
<pdfrwt beam="1">  1        2 0.10892242E+00 0.10929935E+04</pdfrwt>
<pdfrwt beam="2">  1       -2 0.31294534E+00 0.10929935E+04</pdfrwt>
<totfact> 0.10639644E+00</totfact>
</mgrwt>
</event>
<event>
 4    2  0.2930016E-007  0.7777480E+03  0.7818608E-02  0.9761154E-01
          2   -1    0    0  501    0  0.00000000000E+00  0.00000000000E+00  0.81996646321E+03  0.81996646321E+03  0.25500000000E-02 0. -1.
         -2   -1    0    0    0  501 -0.00000000000E+00 -0.00000000000E+00 -0.75557866279E+03  0.75557866280E+03  0.25500000000E-02 0.  1.
    8880023    1    1    2    0    0 -0.10246096984E+03 -0.40072872911E+03  0.52461413229E+03  0.93814282428E+03  0.65864270000E+03 0. -1.
    8880022    1    1    2    0    0  0.10246096984E+03  0.40072872911E+03 -0.46022633188E+03  0.63740230173E+03  0.15294330000E+03 0.  0.
<mgrwt>
<rscale>  0 0.67489578E+03</rscale>
<asrwt>0</asrwt>
<pdfrwt beam="1">  1        2 0.12614869E+00 0.77774801E+03</pdfrwt>
<pdfrwt beam="2">  1       -2 0.11624287E+00 0.77774801E+03</pdfrwt>
<totfact> 0.19371765E+01</totfact>
</mgrwt>
</event>
<event>
 4    2  0.2930016E-007  0.6719887E+03  0.7818608E-02  0.1014276E+00
          2   -1    0    0  501    0  0.00000000000E+00  0.00000000000E+00  0.20578202037E+04  0.20578202037E+04  0.25500000000E-02 0. -1.
         -2   -1    0    0    0  501 -0.00000000000E+00 -0.00000000000E+00 -0.16505676015E+03  0.16505676017E+03  0.25500000000E-02 0.  1.
    8880023    1    1    2    0    0 -0.20019569754E+02 -0.13174893275E+03  0.19046060073E+04  0.20196764132E+04  0.65864270000E+03 0. -1.
    8880022    1    1    2    0    0  0.20019569754E+02  0.13174893275E+03 -0.11842563840E+02  0.20320055066E+03  0.15294330000E+03 0.  0.
<mgrwt>
<rscale>  0 0.49810165E+03</rscale>
<asrwt>0</asrwt>
<pdfrwt beam="1">  1        2 0.31658772E+00 0.67198867E+03</pdfrwt>
<pdfrwt beam="2">  1       -2 0.25393348E-01 0.67198867E+03</pdfrwt>
<totfact> 0.89657193E+01</totfact>
</mgrwt>
</event>
<event>
 4    2  0.2930016E-007  0.1751725E+04  0.7818608E-02  0.8749721E-01
         -2   -1    0    0    0  501 -0.00000000000E+00  0.00000000000E+00  0.10320552044E+04  0.10320552045E+04  0.25500000000E-02 0.  1.
          2   -1    0    0  501    0  0.00000000000E+00 -0.00000000000E+00 -0.32747339320E+04  0.32747339320E+04  0.25500000000E-02 0. -1.
    8880023    1    1    2    0    0 -0.12984631661E+03  0.16179832398E+04 -0.31112857463E+03  0.17791405303E+04  0.65864270000E+03 0.  0.
    8880022    1    1    2    0    0  0.12984631661E+03 -0.16179832398E+04 -0.19315501530E+04  0.25276486062E+04  0.15294330000E+03 0.  0.
<mgrwt>
<rscale>  0 0.17205658E+04</rscale>
<asrwt>0</asrwt>
<pdfrwt beam="1">  1        2 0.50380522E+00 0.17517249E+04</pdfrwt>
<pdfrwt beam="2">  1       -2 0.15877773E+00 0.17517249E+04</pdfrwt>
<totfact> 0.27478757E-01</totfact>
</mgrwt>
</event>
<event>
 4    2  0.2930016E-007  0.9195762E+03  0.7818608E-02  0.9495309E-01
         -2   -1    0    0    0  501 -0.00000000000E+00  0.00000000000E+00  0.23048113600E+03  0.23048113602E+03  0.25500000000E-02 0.  1.
          2   -1    0    0  501    0  0.00000000000E+00 -0.00000000000E+00 -0.49905583815E+04  0.49905583815E+04  0.25500000000E-02 0. -1.
    8880023    1    1    2    0    0 -0.14479795837E+03 -0.62517500884E+03 -0.43458488512E+04  0.44420741421E+04  0.65864270000E+03 0.  0.
    8880022    1    1    2    0    0  0.14479795837E+03  0.62517500884E+03 -0.41422839434E+03  0.77896537543E+03  0.15294330000E+03 0.  1.
<mgrwt>
<rscale>  0 0.84630547E+03</rscale>
<asrwt>0</asrwt>
<pdfrwt beam="1">  1        2 0.76777813E+00 0.91957623E+03</pdfrwt>
<pdfrwt beam="2">  1       -2 0.35458640E-01 0.91957623E+03</pdfrwt>
<totfact> 0.29656763E-01</totfact>
</mgrwt>
</event>
<event>
 4    2  0.2930016E-007  0.8504513E+03  0.7818608E-02  0.9610780E-01
         -2   -1    0    0    0  501 -0.00000000000E+00  0.00000000000E+00  0.11352596170E+04  0.11352596170E+04  0.25500000000E-02 0.  1.
          2   -1    0    0  501    0  0.00000000000E+00 -0.00000000000E+00 -0.94560423898E+03  0.94560423898E+03  0.25500000000E-02 0. -1.
    8880023    1    1    2    0    0 -0.25786415459E+03 -0.47218996943E+03 -0.65108548275E+03  0.10710647980E+04  0.65864270000E+03 0. -1.
    8880022    1    1    2    0    0  0.25786415459E+03  0.47218996943E+03  0.84074086081E+03  0.10097990580E+04  0.15294330000E+03 0.  0.
<mgrwt>
<rscale>  0 0.76586803E+03</rscale>
<asrwt>0</asrwt>
<pdfrwt beam="1">  1        2 0.14547757E+00 0.85045135E+03</pdfrwt>
<pdfrwt beam="2">  1       -2 0.17465533E+00 0.85045135E+03</pdfrwt>
<totfact> 0.54399447E+00</totfact>
</mgrwt>
</event>
<event>
 4    2  0.2930016E-007  0.7748997E+03  0.7818608E-02  0.9767957E-01
          2   -1    0    0  501    0  0.00000000000E+00  0.00000000000E+00  0.34129287179E+03  0.34129287180E+03  0.25500000000E-02 0. -1.
         -2   -1    0    0    0  501 -0.00000000000E+00 -0.00000000000E+00 -0.16678660347E+04  0.16678660347E+04  0.25500000000E-02 0.  1.
    8880023    1    1    2    0    0  0.40823692557E+03  0.13855587190E+01 -0.19870593022E+03  0.79997097456E+03  0.65864270000E+03 0.  1.
    8880022    1    1    2    0    0 -0.40823692557E+03 -0.13855587190E+01 -0.11278672327E+04  0.12091879320E+04  0.15294330000E+03 0.  0.
<mgrwt>
<rscale>  0 0.67110870E+03</rscale>
<asrwt>0</asrwt>
<pdfrwt beam="1">  1        2 0.52506597E-01 0.77489968E+03</pdfrwt>
<pdfrwt beam="2">  1       -2 0.25659477E+00 0.77489968E+03</pdfrwt>
<totfact> 0.57104461E+00</totfact>
</mgrwt>
</event>
<event>
 4    2  0.2930016E-007  0.1127978E+04  0.7818608E-02  0.9230528E-01
         -2   -1    0    0    0  501 -0.00000000000E+00  0.00000000000E+00  0.76462646681E+03  0.76462646682E+03  0.25500000000E-02 0.  1.
          2   -1    0    0  501    0  0.00000000000E+00 -0.00000000000E+00 -0.14261524332E+04  0.14261524332E+04  0.25500000000E-02 0. -1.
    8880023    1    1    2    0    0 -0.69437860956E+03 -0.59696061207E+03 -0.55244936121E+03  0.12559992551E+04  0.65864270000E+03 0. -1.
    8880022    1    1    2    0    0  0.69437860956E+03  0.59696061207E+03 -0.10907660517E+03  0.93477964494E+03  0.15294330000E+03 0.  1.
<mgrwt>
<rscale>  0 0.10743814E+04</rscale>
<asrwt>0</asrwt>
<pdfrwt beam="1">  1        2 0.21940807E+00 0.11279778E+04</pdfrwt>
<pdfrwt beam="2">  1       -2 0.11763484E+00 0.11279778E+04</pdfrwt>
<totfact> 0.76550781E+00</totfact>
</mgrwt>
</event>
<event>
 4    2  0.2930016E-007  0.6632716E+03  0.7818608E-02  0.1021030E+00
          2   -1    0    0  501    0  0.00000000000E+00  0.00000000000E+00  0.11599257557E+04  0.11599257557E+04  0.25500000000E-02 0. -1.
         -2   -1    0    0    0  501 -0.00000000000E+00 -0.00000000000E+00 -0.16504086101E+03  0.16504086103E+03  0.25500000000E-02 0.  1.
    8880023    1    1    2    0    0  0.85352385327E+01  0.77757466599E+02  0.92789952155E+03  0.11405817824E+04  0.65864270000E+03 0. -1.
    8880022    1    1    2    0    0 -0.85352385327E+01 -0.77757466599E+02  0.66985373107E+02  0.18438483434E+03  0.15294330000E+03 0.  1.
<mgrwt>
<rscale>  0 0.47316876E+03</rscale>
<asrwt>0</asrwt>
<pdfrwt beam="1">  1        2 0.17845011E+00 0.66327165E+03</pdfrwt>
<pdfrwt beam="2">  1       -2 0.25390903E-01 0.66327165E+03</pdfrwt>
<totfact> 0.28313403E+02</totfact>
</mgrwt>
</event>
<event>
 4    2  0.2930016E-007  0.6738602E+03  0.7818608E-02  0.1013035E+00
          2   -1    0    0  501    0  0.00000000000E+00  0.00000000000E+00  0.56411685743E+03  0.56411685743E+03  0.25500000000E-02 0. -1.
         -2   -1    0    0    0  501 -0.00000000000E+00 -0.00000000000E+00 -0.12355684081E+04  0.12355684082E+04  0.25500000000E-02 0.  1.
    8880023    1    1    2    0    0 -0.54210174796E+02 -0.13167630051E+03  0.34843254931E+03  0.75861244311E+03  0.65864270000E+03 0. -1.
    8880022    1    1    2    0    0  0.54210174796E+02  0.13167630051E+03 -0.10198841000E+04  0.10410728225E+04  0.15294330000E+03 0.  0.
<mgrwt>
<rscale>  0 0.50286230E+03</rscale>
<asrwt>0</asrwt>
<pdfrwt beam="1">  1        2 0.86787209E-01 0.67386022E+03</pdfrwt>
<pdfrwt beam="2">  1       -2 0.19008745E+00 0.67386022E+03</pdfrwt>
<totfact> 0.84961738E+00</totfact>
</mgrwt>
</event>
<event>
 4    2  0.2930016E-007  0.7533305E+03  0.7818608E-02  0.9822690E-01
          2   -1    0    0  501    0  0.00000000000E+00  0.00000000000E+00  0.13452625996E+04  0.13452625996E+04  0.25500000000E-02 0. -1.
         -2   -1    0    0    0  501 -0.00000000000E+00 -0.00000000000E+00 -0.67866365364E+03  0.67866365364E+03  0.25500000000E-02 0.  1.
    8880023    1    1    2    0    0  0.34626575230E+03 -0.11745909450E+03  0.11648747340E+04  0.13872418543E+04  0.65864270000E+03 0. -1.
    8880022    1    1    2    0    0 -0.34626575230E+03  0.11745909450E+03 -0.49827578796E+03  0.63668439904E+03  0.15294330000E+03 0.  0.
<mgrwt>
<rscale>  0 0.64158932E+03</rscale>
<asrwt>0</asrwt>
<pdfrwt beam="1">  1        2 0.20696347E+00 0.75333048E+03</pdfrwt>
<pdfrwt beam="2">  1       -2 0.10440979E+00 0.75333048E+03</pdfrwt>
<totfact> 0.11841786E+01</totfact>
</mgrwt>
</event>
<event>
 4    2  0.2930016E-007  0.7211570E+03  0.7818608E-02  0.9918690E-01
          2   -1    0    0  501    0  0.00000000000E+00  0.00000000000E+00  0.25179387560E+04  0.25179387560E+04  0.25500000000E-02 0. -1.
         -2   -1    0    0    0  501 -0.00000000000E+00 -0.00000000000E+00 -0.26993839700E+03  0.26993839701E+03  0.25500000000E-02 0.  1.
    8880023    1    1    2    0    0 -0.27758819565E+03 -0.95926952282E+02  0.23363858333E+04  0.24451515607E+04  0.65864270000E+03 0. -1.
    8880022    1    1    2    0    0  0.27758819565E+03  0.95926952282E+02 -0.88385474295E+02  0.34272559230E+03  0.15294330000E+03 0.  0.
<mgrwt>
<rscale>  0 0.59363960E+03</rscale>
<asrwt>0</asrwt>
<pdfrwt beam="1">  1        2 0.38737517E+00 0.72115698E+03</pdfrwt>
<pdfrwt beam="2">  1       -2 0.41528986E-01 0.72115698E+03</pdfrwt>
<totfact> 0.19622694E+01</totfact>
</mgrwt>
</event>
<event>
 4    2  0.2930016E-007  0.9835276E+03  0.7818608E-02  0.9403433E-01
          2   -1    0    0  501    0  0.00000000000E+00  0.00000000000E+00  0.38810419388E+04  0.38810419388E+04  0.25500000000E-02 0. -1.
         -2   -1    0    0    0  501 -0.00000000000E+00 -0.00000000000E+00 -0.24568667821E+03  0.24568667822E+03  0.25500000000E-02 0.  1.
    8880023    1    1    2    0    0 -0.71708358903E+03  0.13895152926E+03  0.10625276611E+04  0.14478576028E+04  0.65864270000E+03 0.  1.
    8880022    1    1    2    0    0  0.71708358903E+03 -0.13895152926E+03  0.25728275995E+04  0.26788710142E+04  0.15294330000E+03 0.  0.
<mgrwt>
<rscale>  0 0.91793697E+03</rscale>
<asrwt>0</asrwt>
<pdfrwt beam="1">  1        2 0.59708335E+00 0.98352763E+03</pdfrwt>
<pdfrwt beam="2">  1       -2 0.37797952E-01 0.98352763E+03</pdfrwt>
<totfact> 0.29582163E+00</totfact>
</mgrwt>
</event>
<event>
 4    2  0.2930016E-007  0.7903093E+03  0.7818608E-02  0.9732155E-01
          2   -1    0    0  501    0  0.00000000000E+00  0.00000000000E+00  0.75178166683E+03  0.75178166684E+03  0.25500000000E-02 0. -1.
         -2   -1    0    0    0  501 -0.00000000000E+00 -0.00000000000E+00 -0.54797504562E+03  0.54797504563E+03  0.25500000000E-02 0.  1.
    8880023    1    1    2    0    0  0.40260004116E+03 -0.16938652342E+03  0.26363093487E+03  0.83312067766E+03  0.65864270000E+03 0. -1.
    8880022    1    1    2    0    0 -0.40260004116E+03  0.16938652342E+03 -0.59824313663E+02  0.46663603481E+03  0.15294330000E+03 0.  0.
<mgrwt>
<rscale>  0 0.69134163E+03</rscale>
<asrwt>0</asrwt>
<pdfrwt beam="1">  1        2 0.11565872E+00 0.79030930E+03</pdfrwt>
<pdfrwt beam="2">  1       -2 0.84303854E-01 0.79030930E+03</pdfrwt>
<totfact> 0.46366527E+01</totfact>
</mgrwt>
</event>
<event>
 4    2  0.2930016E-007  0.6922384E+03  0.7818608E-02  0.1003106E+00
         -2   -1    0    0    0  501 -0.00000000000E+00  0.00000000000E+00  0.50817033516E+03  0.50817033516E+03  0.25500000000E-02 0.  1.
          2   -1    0    0  501    0  0.00000000000E+00 -0.00000000000E+00 -0.19646934425E+04  0.19646934426E+04  0.25500000000E-02 0. -1.
    8880023    1    1    2    0    0 -0.16975828000E+03 -0.12870846524E+03 -0.18639438325E+04  0.19883361284E+04  0.65864270000E+03 0. -1.
    8880022    1    1    2    0    0  0.16975828000E+03  0.12870846524E+03  0.40742072511E+03  0.48452764928E+03  0.15294330000E+03 0.  0.
<mgrwt>
<rscale>  0 0.54308885E+03</rscale>
<asrwt>0</asrwt>
<pdfrwt beam="1">  1        2 0.30226053E+00 0.69223836E+03</pdfrwt>
<pdfrwt beam="2">  1       -2 0.78180052E-01 0.69223836E+03</pdfrwt>
<totfact> 0.10621263E+01</totfact>
</mgrwt>
</event>
<event>
 4    2  0.2930016E-007  0.6944248E+03  0.7818608E-02  0.1002117E+00
         -2   -1    0    0    0  501 -0.00000000000E+00  0.00000000000E+00  0.13580606682E+04  0.13580606682E+04  0.25500000000E-02 0.  1.
          2   -1    0    0  501    0  0.00000000000E+00 -0.00000000000E+00 -0.63848974116E+03  0.63848974117E+03  0.25500000000E-02 0. -1.
    8880023    1    1    2    0    0  0.71528306579E+02  0.20808496340E+03 -0.42958847863E+03  0.81656115379E+03  0.65864270000E+03 0. -1.
    8880022    1    1    2    0    0 -0.71528306579E+02 -0.20808496340E+03  0.11491594056E+04  0.11799892556E+04  0.15294330000E+03 0.  0.
<mgrwt>
<rscale>  0 0.54731835E+03</rscale>
<asrwt>0</asrwt>
<pdfrwt beam="1">  1        2 0.98229193E-01 0.69442484E+03</pdfrwt>
<pdfrwt beam="2">  1       -2 0.20893241E+00 0.69442484E+03</pdfrwt>
<totfact> 0.55048926E+00</totfact>
</mgrwt>
</event>
<event>
 4    2  0.2930016E-007  0.1102713E+04  0.7818608E-02  0.9258042E-01
          2   -1    0    0  501    0  0.00000000000E+00  0.00000000000E+00  0.14799030420E+04  0.14799030420E+04  0.25500000000E-02 0. -1.
         -2   -1    0    0    0  501 -0.00000000000E+00 -0.00000000000E+00 -0.14596313303E+04  0.14596313303E+04  0.25500000000E-02 0.  1.
    8880023    1    1    2    0    0 -0.83149354220E+03 -0.30130282851E+03 -0.10637548795E+04  0.15321715162E+04  0.65864270000E+03 0.  0.
    8880022    1    1    2    0    0  0.83149354220E+03  0.30130282851E+03  0.10840265912E+04  0.14073628560E+04  0.15294330000E+03 0.  0.
<mgrwt>
<rscale>  0 0.10473908E+04</rscale>
<asrwt>0</asrwt>
<pdfrwt beam="1">  1        2 0.22767739E+00 0.11027126E+04</pdfrwt>
<pdfrwt beam="2">  1       -2 0.22455867E+00 0.11027126E+04</pdfrwt>
<totfact> 0.11834566E+00</totfact>
</mgrwt>
</event>
<event>
 4    2  0.2930016E-007  0.1042891E+04  0.7818608E-02  0.9327477E-01
          2   -1    0    0  501    0  0.00000000000E+00  0.00000000000E+00  0.26685374839E+04  0.26685374839E+04  0.25500000000E-02 0. -1.
         -2   -1    0    0    0  501 -0.00000000000E+00 -0.00000000000E+00 -0.77606352199E+03  0.77606352199E+03  0.25500000000E-02 0.  1.
    8880023    1    1    2    0    0 -0.71677994357E+03 -0.37421536777E+03 -0.31443077881E+03  0.10892600929E+04  0.65864270000E+03 0.  0.
    8880022    1    1    2    0    0  0.71677994357E+03  0.37421536777E+03  0.22069047407E+04  0.23553409131E+04  0.15294330000E+03 0.  0.
<mgrwt>
<rscale>  0 0.98292158E+03</rscale>
<asrwt>0</asrwt>
<pdfrwt beam="1">  1        2 0.41054422E+00 0.10428906E+04</pdfrwt>
<pdfrwt beam="2">  1       -2 0.11939439E+00 0.10428906E+04</pdfrwt>
<totfact> 0.14967890E+00</totfact>
</mgrwt>
</event>
<event>
 4    2  0.2930016E-007  0.6832588E+03  0.7818608E-02  0.1007537E+00
         -2   -1    0    0    0  501 -0.00000000000E+00  0.00000000000E+00  0.19741149193E+03  0.19741149195E+03  0.25500000000E-02 0.  1.
          2   -1    0    0  501    0  0.00000000000E+00 -0.00000000000E+00 -0.15088888356E+04  0.15088888356E+04  0.25500000000E-02 0. -1.
    8880023    1    1    2    0    0 -0.11833034215E+03  0.13795040803E+03 -0.12998403994E+04  0.14684780064E+04  0.65864270000E+03 0. -1.
    8880022    1    1    2    0    0  0.11833034215E+03 -0.13795040803E+03 -0.11636944200E+02  0.23782232114E+03  0.15294330000E+03 0.  0.
<mgrwt>
<rscale>  0 0.52465274E+03</rscale>
<asrwt>0</asrwt>
<pdfrwt beam="1">  1        2 0.23213674E+00 0.68325880E+03</pdfrwt>
<pdfrwt beam="2">  1       -2 0.30371000E-01 0.68325880E+03</pdfrwt>
<totfact> 0.12861970E+02</totfact>
</mgrwt>
</event>
<event>
 4    2  0.2930016E-007  0.1020729E+04  0.7818608E-02  0.9354927E-01
          2   -1    0    0  501    0  0.00000000000E+00  0.00000000000E+00  0.26223402138E+04  0.26223402138E+04  0.25500000000E-02 0. -1.
         -2   -1    0    0    0  501 -0.00000000000E+00 -0.00000000000E+00 -0.54745969328E+03  0.54745969329E+03  0.25500000000E-02 0.  1.
    8880023    1    1    2    0    0 -0.15951152137E+03  0.76330420269E+03  0.21415410929E+04  0.23723586765E+04  0.65864270000E+03 0.  0.
    8880022    1    1    2    0    0  0.15951152137E+03 -0.76330420269E+03 -0.66660572367E+02  0.79744123057E+03  0.15294330000E+03 0.  0.
<mgrwt>
<rscale>  0 0.95879728E+03</rscale>
<asrwt>0</asrwt>
<pdfrwt beam="1">  1        2 0.40343695E+00 0.10207289E+04</pdfrwt>
<pdfrwt beam="2">  1       -2 0.84224569E-01 0.10207289E+04</pdfrwt>
<totfact> 0.36667542E+00</totfact>
</mgrwt>
</event>
<event>
 4    2  0.3918883E-007  0.7563741E+03  0.7818608E-02  0.9814587E-01
          2   -1    0    0  501    0  0.00000000000E+00  0.00000000000E+00  0.41324266641E+04  0.41324266641E+04  0.25500000000E-02 0. -1.
         -2   -1    0    0    0  501 -0.00000000000E+00 -0.00000000000E+00 -0.11958339777E+04  0.11958339777E+04  0.25500000000E-02 0.  1.
    8880023    1    1    2    0    0 -0.37000710116E+03 -0.37233264624E+02  0.40627044271E+04  0.41325136466E+04  0.65864270000E+03 0. -1.
    8880022    1    1    2    0    0  0.37000710116E+03  0.37233264624E+02 -0.11261117408E+04  0.11957469952E+04  0.15294330000E+03 0.  0.
<mgrwt>
<rscale>  0 0.64585586E+03</rscale>
<asrwt>0</asrwt>
<pdfrwt beam="1">  1        2 0.63575796E+00 0.75637410E+03</pdfrwt>
<pdfrwt beam="2">  1       -2 0.18397446E+00 0.75637410E+03</pdfrwt>
<totfact> 0.50932057E-02</totfact>
</mgrwt>
</event>
<event>
 4    2  0.2930016E-007  0.7056684E+03  0.7818608E-02  0.9974452E-01
         -2   -1    0    0    0  501 -0.00000000000E+00  0.00000000000E+00  0.41708599382E+03  0.41708599383E+03  0.25500000000E-02 0.  1.
          2   -1    0    0  501    0  0.00000000000E+00 -0.00000000000E+00 -0.94569326964E+03  0.94569326964E+03  0.25500000000E-02 0. -1.
    8880023    1    1    2    0    0 -0.16880829499E+02 -0.25273065132E+03 -0.72177519540E+03  0.10094193299E+04  0.65864270000E+03 0. -1.
    8880022    1    1    2    0    0  0.16880829499E+02  0.25273065132E+03  0.19316791958E+03  0.35335993362E+03  0.15294330000E+03 0.  0.
<mgrwt>
<rscale>  0 0.56784809E+03</rscale>
<asrwt>0</asrwt>
<pdfrwt beam="1">  1        2 0.14549127E+00 0.70566844E+03</pdfrwt>
<pdfrwt beam="2">  1       -2 0.64167076E-01 0.70566844E+03</pdfrwt>
<totfact> 0.62459469E+01</totfact>
</mgrwt>
</event>
<event>
 4    2  0.2930016E-007  0.7726990E+03  0.7818608E-02  0.9773275E-01
         -2   -1    0    0    0  501 -0.00000000000E+00  0.00000000000E+00  0.31326299895E+03  0.31326299896E+03  0.25500000000E-02 0.  1.
          2   -1    0    0  501    0  0.00000000000E+00 -0.00000000000E+00 -0.13398173540E+04  0.13398173540E+04  0.25500000000E-02 0. -1.
    8880023    1    1    2    0    0  0.30486094329E+03 -0.26516677413E+03 -0.93231196464E+03  0.12108961221E+04  0.65864270000E+03 0. -1.
    8880022    1    1    2    0    0 -0.30486094329E+03  0.26516677413E+03 -0.94242390394E+02  0.44218423085E+03  0.15294330000E+03 0.  0.
<mgrwt>
<rscale>  0 0.66816682E+03</rscale>
<asrwt>0</asrwt>
<pdfrwt beam="1">  1        2 0.20612574E+00 0.77269905E+03</pdfrwt>
<pdfrwt beam="2">  1       -2 0.48194308E-01 0.77269905E+03</pdfrwt>
<totfact> 0.64971195E+01</totfact>
</mgrwt>
</event>
<event>
 4    2  0.2930016E-007  0.8401791E+03  0.7818608E-02  0.9629843E-01
          2   -1    0    0  501    0  0.00000000000E+00  0.00000000000E+00  0.20713410442E+04  0.20713410442E+04  0.25500000000E-02 0. -1.
         -2   -1    0    0    0  501 -0.00000000000E+00 -0.00000000000E+00 -0.87424155425E+03  0.87424155425E+03  0.25500000000E-02 0.  1.
    8880023    1    1    2    0    0 -0.31783661875E+03 -0.41360672368E+03  0.18879835337E+04  0.20664904229E+04  0.65864270000E+03 0. -1.
    8880022    1    1    2    0    0  0.31783661875E+03  0.41360672368E+03 -0.69088404379E+03  0.87909217553E+03  0.15294330000E+03 0.  0.
<mgrwt>
<rscale>  0 0.75352093E+03</rscale>
<asrwt>0</asrwt>
<pdfrwt beam="1">  1        2 0.31866785E+00 0.84017905E+03</pdfrwt>
<pdfrwt beam="2">  1       -2 0.13449870E+00 0.84017905E+03</pdfrwt>
<totfact> 0.24839314E+00</totfact>
</mgrwt>
</event>
<event>
 4    2  0.2930016E-007  0.8609235E+03  0.7818608E-02  0.9591923E-01
          2   -1    0    0  501    0  0.00000000000E+00  0.00000000000E+00  0.18760954879E+04  0.18760954879E+04  0.25500000000E-02 0. -1.
         -2   -1    0    0    0  501 -0.00000000000E+00 -0.00000000000E+00 -0.10168926606E+04  0.10168926606E+04  0.25500000000E-02 0.  1.
    8880023    1    1    2    0    0  0.48169113772E+03  0.27450456293E+03  0.16817575136E+04  0.18893114216E+04  0.65864270000E+03 0. -1.
    8880022    1    1    2    0    0 -0.48169113772E+03 -0.27450456293E+03 -0.82255468620E+03  0.10036767269E+04  0.15294330000E+03 0.  0.
<mgrwt>
<rscale>  0 0.77833098E+03</rscale>
<asrwt>0</asrwt>
<pdfrwt beam="1">  1        2 0.28863007E+00 0.86092352E+03</pdfrwt>
<pdfrwt beam="2">  1       -2 0.15644503E+00 0.86092352E+03</pdfrwt>
<totfact> 0.21301293E+00</totfact>
</mgrwt>
</event>
<event>
 4    2  0.2930016E-007  0.8103170E+03  0.7818608E-02  0.9688917E-01
          2   -1    0    0  501    0  0.00000000000E+00  0.00000000000E+00  0.19948912492E+04  0.19948912492E+04  0.25500000000E-02 0. -1.
         -2   -1    0    0    0  501 -0.00000000000E+00 -0.00000000000E+00 -0.38144904963E+03  0.38144904964E+03  0.25500000000E-02 0.  1.
    8880023    1    1    2    0    0  0.33803575751E+03  0.32944690701E+03  0.16900615068E+04  0.18742789389E+04  0.65864270000E+03 0.  0.
    8880022    1    1    2    0    0 -0.33803575751E+03 -0.32944690701E+03 -0.76619307198E+02  0.50206135994E+03  0.15294330000E+03 0.  0.
<mgrwt>
<rscale>  0 0.71680518E+03</rscale>
<asrwt>0</asrwt>
<pdfrwt beam="1">  1        2 0.30690635E+00 0.81031700E+03</pdfrwt>
<pdfrwt beam="2">  1       -2 0.58684468E-01 0.81031700E+03</pdfrwt>
<totfact> 0.18723234E+01</totfact>
</mgrwt>
</event>
<event>
 4    2  0.2930016E-007  0.1192914E+04  0.7818608E-02  0.9164041E-01
         -2   -1    0    0    0  501 -0.00000000000E+00  0.00000000000E+00  0.73651097977E+03  0.73651097977E+03  0.25500000000E-02 0.  1.
          2   -1    0    0  501    0  0.00000000000E+00 -0.00000000000E+00 -0.19535102005E+04  0.19535102005E+04  0.25500000000E-02 0. -1.
    8880023    1    1    2    0    0 -0.78215295826E+03  0.61438596550E+03 -0.11616204523E+03  0.11985562948E+04  0.65864270000E+03 0.  0.
    8880022    1    1    2    0    0  0.78215295826E+03 -0.61438596550E+03 -0.11008371755E+04  0.14914648855E+04  0.15294330000E+03 0.  0.
<mgrwt>
<rscale>  0 0.11432413E+04</rscale>
<asrwt>0</asrwt>
<pdfrwt beam="1">  1        2 0.30054003E+00 0.11929139E+04</pdfrwt>
<pdfrwt beam="2">  1       -2 0.11330938E+00 0.11929139E+04</pdfrwt>
<totfact> 0.42380516E+00</totfact>
</mgrwt>
</event>
<event>
 4    2  0.2930016E-007  0.7502927E+03  0.7818608E-02  0.9830920E-01
          2   -1    0    0  501    0  0.00000000000E+00  0.00000000000E+00  0.91942459225E+03  0.91942459225E+03  0.25500000000E-02 0. -1.
         -2   -1    0    0    0  501 -0.00000000000E+00 -0.00000000000E+00 -0.98312018087E+03  0.98312018088E+03  0.25500000000E-02 0.  1.
    8880023    1    1    2    0    0  0.32928353855E+03  0.14387939620E+03  0.71183077894E+03  0.10342350765E+04  0.65864270000E+03 0. -1.
    8880022    1    1    2    0    0 -0.32928353855E+03 -0.14387939620E+03 -0.77552636756E+03  0.86830969660E+03  0.15294330000E+03 0.  0.
<mgrwt>
<rscale>  0 0.63729293E+03</rscale>
<asrwt>0</asrwt>
<pdfrwt beam="1">  1        2 0.14144994E+00 0.75029270E+03</pdfrwt>
<pdfrwt beam="2">  1       -2 0.15124926E+00 0.75029270E+03</pdfrwt>
<totfact> 0.84846518E+00</totfact>
</mgrwt>
</event>
<event>
 4    2  0.2930016E-007  0.8932392E+03  0.7818608E-02  0.9536973E-01
          2   -1    0    0  501    0  0.00000000000E+00  0.00000000000E+00  0.82815944963E+03  0.82815944963E+03  0.25500000000E-02 0. -1.
         -2   -1    0    0    0  501 -0.00000000000E+00 -0.00000000000E+00 -0.12161529336E+04  0.12161529336E+04  0.25500000000E-02 0.  1.
    8880023    1    1    2    0    0 -0.48869063752E+03  0.35390336129E+03  0.45019288467E+03  0.10002749462E+04  0.65864270000E+03 0.  0.
    8880022    1    1    2    0    0  0.48869063752E+03 -0.35390336129E+03 -0.83818636864E+03  0.10440374370E+04  0.15294330000E+03 0.  0.
<mgrwt>
<rscale>  0 0.81611976E+03</rscale>
<asrwt>0</asrwt>
<pdfrwt beam="1">  1        2 0.12740915E+00 0.89323924E+03</pdfrwt>
<pdfrwt beam="2">  1       -2 0.18710045E+00 0.89323924E+03</pdfrwt>
<totfact> 0.53477346E+00</totfact>
</mgrwt>
</event>
<event>
 4    2  0.2930016E-007  0.7384199E+03  0.7818608E-02  0.9864574E-01
         -2   -1    0    0    0  501 -0.00000000000E+00  0.00000000000E+00  0.29585549704E+03  0.29585549705E+03  0.25500000000E-02 0.  1.
          2   -1    0    0  501    0  0.00000000000E+00 -0.00000000000E+00 -0.10495436069E+04  0.10495436069E+04  0.25500000000E-02 0. -1.
    8880023    1    1    2    0    0 -0.30302319118E+03 -0.14010976644E+03 -0.58110393498E+03  0.93965195182E+03  0.65864270000E+03 0.  0.
    8880022    1    1    2    0    0  0.30302319118E+03  0.14010976644E+03 -0.17258417490E+03  0.40574715216E+03  0.15294330000E+03 0.  1.
<mgrwt>
<rscale>  0 0.62009339E+03</rscale>
<asrwt>0</asrwt>
<pdfrwt beam="1">  1        2 0.16146825E+00 0.73841994E+03</pdfrwt>
<pdfrwt beam="2">  1       -2 0.45516231E-01 0.73841994E+03</pdfrwt>
<totfact> 0.10876196E+02</totfact>
</mgrwt>
</event>
<event>
 4    2  0.2930016E-007  0.1200568E+04  0.7818608E-02  0.9156570E-01
          2   -1    0    0  501    0  0.00000000000E+00  0.00000000000E+00  0.19987766213E+04  0.19987766213E+04  0.25500000000E-02 0. -1.
         -2   -1    0    0    0  501 -0.00000000000E+00 -0.00000000000E+00 -0.10082567989E+04  0.10082567989E+04  0.25500000000E-02 0.  1.
    8880023    1    1    2    0    0  0.66135362504E+03  0.75509266344E+03  0.14584591480E+04  0.18890386021E+04  0.65864270000E+03 0. -1.
    8880022    1    1    2    0    0 -0.66135362504E+03 -0.75509266344E+03 -0.46793932559E+03  0.11179948180E+04  0.15294330000E+03 0.  0.
<mgrwt>
<rscale>  0 0.11513160E+04</rscale>
<asrwt>0</asrwt>
<pdfrwt beam="1">  1        2 0.30750410E+00 0.12005681E+04</pdfrwt>
<pdfrwt beam="2">  1       -2 0.15511643E+00 0.12005681E+04</pdfrwt>
<totfact> 0.17836449E+00</totfact>
</mgrwt>
</event>
<event>
 4    2  0.2930016E-007  0.7693503E+03  0.7818608E-02  0.9781475E-01
         -2   -1    0    0    0  501 -0.00000000000E+00  0.00000000000E+00  0.25329514407E+03  0.25329514408E+03  0.25500000000E-02 0.  1.
          2   -1    0    0  501    0  0.00000000000E+00 -0.00000000000E+00 -0.17230033028E+04  0.17230033028E+04  0.25500000000E-02 0. -1.
    8880023    1    1    2    0    0 -0.39423941668E+03 -0.51623724936E+02 -0.13141287145E+04  0.15227718841E+04  0.65864270000E+03 0.  0.
    8880022    1    1    2    0    0  0.39423941668E+03  0.51623724936E+02 -0.15557944426E+03  0.45352656276E+03  0.15294330000E+03 0.  0.
<mgrwt>
<rscale>  0 0.66366225E+03</rscale>
<asrwt>0</asrwt>
<pdfrwt beam="1">  1        2 0.26507742E+00 0.76935033E+03</pdfrwt>
<pdfrwt beam="2">  1       -2 0.38968485E-01 0.76935033E+03</pdfrwt>
<totfact> 0.60574044E+01</totfact>
</mgrwt>
</event>
<event>
 4    2  0.2930016E-007  0.7336406E+03  0.7818608E-02  0.9878874E-01
          2   -1    0    0  501    0  0.00000000000E+00  0.00000000000E+00  0.15969448522E+04  0.15969448522E+04  0.25500000000E-02 0. -1.
         -2   -1    0    0    0  501 -0.00000000000E+00 -0.00000000000E+00 -0.33609181044E+03  0.33609181045E+03  0.25500000000E-02 0.  1.
    8880023    1    1    2    0    0  0.12541445041E+03 -0.29780788543E+03  0.13743866773E+04  0.15579368620E+04  0.65864270000E+03 0. -1.
    8880022    1    1    2    0    0 -0.12541445041E+03  0.29780788543E+03 -0.11353363558E+03  0.37509980061E+03  0.15294330000E+03 0.  0.
<mgrwt>
<rscale>  0 0.61296138E+03</rscale>
<asrwt>0</asrwt>
<pdfrwt beam="1">  1        2 0.24568383E+00 0.73364060E+03</pdfrwt>
<pdfrwt beam="2">  1       -2 0.51706431E-01 0.73364060E+03</pdfrwt>
<totfact> 0.40575239E+01</totfact>
</mgrwt>
</event>
<event>
 4    2  0.2930016E-007  0.9866835E+03  0.7818608E-02  0.9399191E-01
          2   -1    0    0  501    0  0.00000000000E+00  0.00000000000E+00  0.12519409911E+04  0.12519409911E+04  0.25500000000E-02 0. -1.
         -2   -1    0    0    0  501 -0.00000000000E+00 -0.00000000000E+00 -0.78247661650E+03  0.78247661651E+03  0.25500000000E-02 0.  1.
    8880023    1    1    2    0    0  0.10362437146E+03  0.72732119307E+03  0.74358478514E+03  0.12355009782E+04  0.65864270000E+03 0. -1.
    8880022    1    1    2    0    0 -0.10362437146E+03 -0.72732119307E+03 -0.27412041053E+03  0.79891662940E+03  0.15294330000E+03 0.  0.
<mgrwt>
<rscale>  0 0.92142306E+03</rscale>
<asrwt>0</asrwt>
<pdfrwt beam="1">  1        2 0.19260630E+00 0.98668350E+03</pdfrwt>
<pdfrwt beam="2">  1       -2 0.12038102E+00 0.98668350E+03</pdfrwt>
<totfact> 0.92387216E+00</totfact>
</mgrwt>
</event>
<event>
 4    2  0.2930016E-007  0.9697761E+03  0.7818608E-02  0.9422214E-01
         -2   -1    0    0    0  501 -0.00000000000E+00  0.00000000000E+00  0.26895607771E+04  0.26895607771E+04  0.25500000000E-02 0.  1.
          2   -1    0    0  501    0  0.00000000000E+00 -0.00000000000E+00 -0.42963425945E+03  0.42963425945E+03  0.25500000000E-02 0. -1.
    8880023    1    1    2    0    0 -0.69182398224E+03  0.16743691359E+03  0.27959643580E+03  0.10092769271E+04  0.65864270000E+03 0. -1.
    8880022    1    1    2    0    0  0.69182398224E+03 -0.16743691359E+03  0.19803300819E+04  0.21099181094E+04  0.15294330000E+03 0.  0.
<mgrwt>
<rscale>  0 0.90269895E+03</rscale>
<asrwt>0</asrwt>
<pdfrwt beam="1">  1        2 0.66097579E-01 0.96977613E+03</pdfrwt>
<pdfrwt beam="2">  1       -2 0.41377858E+00 0.96977613E+03</pdfrwt>
<totfact> 0.45356000E-01</totfact>
</mgrwt>
</event>
<event>
 4    2  0.2930016E-007  0.6761438E+03  0.7818608E-02  0.1011595E+00
         -2   -1    0    0    0  501 -0.00000000000E+00  0.00000000000E+00  0.59664578000E+03  0.59664578001E+03  0.25500000000E-02 0.  1.
          2   -1    0    0  501    0  0.00000000000E+00 -0.00000000000E+00 -0.12078497161E+04  0.12078497161E+04  0.25500000000E-02 0. -1.
    8880023    1    1    2    0    0  0.13867632895E+03  0.64257783281E+02 -0.10879892857E+04  0.12809727082E+04  0.65864270000E+03 0. -1.
    8880022    1    1    2    0    0 -0.13867632895E+03 -0.64257783281E+02  0.47678534960E+03  0.52352278798E+03  0.15294330000E+03 0.  0.
<mgrwt>
<rscale>  0 0.50845688E+03</rscale>
<asrwt>0</asrwt>
<pdfrwt beam="1">  1        2 0.18582303E+00 0.67614377E+03</pdfrwt>
<pdfrwt beam="2">  1       -2 0.91791659E-01 0.67614377E+03</pdfrwt>
<totfact> 0.19453033E+01</totfact>
</mgrwt>
</event>
<event>
 4    2  0.2930016E-007  0.7565707E+03  0.7818608E-02  0.9814068E-01
         -2   -1    0    0    0  501 -0.00000000000E+00  0.00000000000E+00  0.17221376095E+03  0.17221376097E+03  0.25500000000E-02 0.  1.
          2   -1    0    0  501    0  0.00000000000E+00 -0.00000000000E+00 -0.39791785044E+04  0.39791785044E+04  0.25500000000E-02 0. -1.
    8880023    1    1    2    0    0 -0.21283679490E+03  0.30543335851E+03 -0.36364049532E+04  0.37142751955E+04  0.65864270000E+03 0. -1.
    8880022    1    1    2    0    0  0.21283679490E+03 -0.30543335851E+03 -0.17055979028E+03  0.43711706993E+03  0.15294330000E+03 0.  0.
<mgrwt>
<rscale>  0 0.64613021E+03</rscale>
<asrwt>0</asrwt>
<pdfrwt beam="1">  1        2 0.61218124E+00 0.75657071E+03</pdfrwt>
<pdfrwt beam="2">  1       -2 0.26494428E-01 0.75657071E+03</pdfrwt>
<totfact> 0.50531900E+00</totfact>
</mgrwt>
</event>
<event>
 4    2  0.2930016E-007  0.6668594E+03  0.7818608E-02  0.1018022E+00
          2   -1    0    0  501    0  0.00000000000E+00  0.00000000000E+00  0.51783432295E+03  0.51783432295E+03  0.25500000000E-02 0. -1.
         -2   -1    0    0    0  501 -0.00000000000E+00 -0.00000000000E+00 -0.20023915321E+04  0.20023915321E+04  0.25500000000E-02 0.  1.
    8880023    1    1    2    0    0  0.76921726157E+02  0.70529018490E+02  0.29633314900E+03  0.72973614126E+03  0.65864270000E+03 0. -1.
    8880022    1    1    2    0    0 -0.76921726157E+02 -0.70529018490E+02 -0.17808903581E+04  0.17904897138E+04  0.15294330000E+03 0.  0.
<mgrwt>
<rscale>  0 0.48407259E+03</rscale>
<asrwt>0</asrwt>
<pdfrwt beam="1">  1        2 0.79666820E-01 0.66685943E+03</pdfrwt>
<pdfrwt beam="2">  1       -2 0.30806023E+00 0.66685943E+03</pdfrwt>
<totfact> 0.17750698E+00</totfact>
</mgrwt>
</event>
<event>
 4    2  0.2930016E-007  0.8408825E+03  0.7818608E-02  0.9628518E-01
          2   -1    0    0  501    0  0.00000000000E+00  0.00000000000E+00  0.15554899570E+04  0.15554899570E+04  0.25500000000E-02 0. -1.
         -2   -1    0    0    0  501 -0.00000000000E+00 -0.00000000000E+00 -0.84453435062E+03  0.84453435063E+03  0.25500000000E-02 0.  1.
    8880023    1    1    2    0    0  0.44965022215E+03  0.26662305759E+03  0.13312212734E+04  0.15745581800E+04  0.65864270000E+03 0.  0.
    8880022    1    1    2    0    0 -0.44965022215E+03 -0.26662305759E+03 -0.62026566705E+03  0.82546612763E+03  0.15294330000E+03 0.  0.
<mgrwt>
<rscale>  0 0.75437058E+03</rscale>
<asrwt>0</asrwt>
<pdfrwt beam="1">  1        2 0.23930615E+00 0.84088250E+03</pdfrwt>
<pdfrwt beam="2">  1       -2 0.12992836E+00 0.84088250E+03</pdfrwt>
<totfact> 0.52057950E+00</totfact>
</mgrwt>
</event>
<event>
 4    2  0.2930016E-007  0.8882862E+03  0.7818608E-02  0.9545104E-01
         -2   -1    0    0    0  501 -0.00000000000E+00  0.00000000000E+00  0.32750324904E+03  0.32750324905E+03  0.25500000000E-02 0.  1.
          2   -1    0    0  501    0  0.00000000000E+00 -0.00000000000E+00 -0.31236123720E+04  0.31236123720E+04  0.25500000000E-02 0. -1.
    8880023    1    1    2    0    0 -0.20731689454E+03 -0.55880400952E+03 -0.26820231821E+04  0.28252965811E+04  0.65864270000E+03 0.  0.
    8880022    1    1    2    0    0  0.20731689454E+03  0.55880400952E+03 -0.11408594088E+03  0.62581903992E+03  0.15294330000E+03 0.  0.
<mgrwt>
<rscale>  0 0.81038637E+03</rscale>
<asrwt>0</asrwt>
<pdfrwt beam="1">  1        2 0.48055573E+00 0.88828623E+03</pdfrwt>
<pdfrwt beam="2">  1       -2 0.50385117E-01 0.88828623E+03</pdfrwt>
<totfact> 0.56513475E+00</totfact>
</mgrwt>
</event>
<event>
 4    2  0.2930016E-007  0.7142649E+03  0.7818608E-02  0.9942492E-01
         -2   -1    0    0    0  501 -0.00000000000E+00  0.00000000000E+00  0.12978170664E+03  0.12978170667E+03  0.25500000000E-02 0.  1.
          2   -1    0    0  501    0  0.00000000000E+00 -0.00000000000E+00 -0.24039661674E+04  0.24039661674E+04  0.25500000000E-02 0. -1.
    8880023    1    1    2    0    0 -0.17445729908E+03  0.21430993377E+03 -0.19690110970E+04  0.20945593816E+04  0.65864270000E+03 0. -1.
    8880022    1    1    2    0    0  0.17445729908E+03 -0.21430993377E+03 -0.30517336381E+03  0.43918849246E+03  0.15294330000E+03 0.  0.
<mgrwt>
<rscale>  0 0.58245410E+03</rscale>
<asrwt>0</asrwt>
<pdfrwt beam="1">  1        2 0.36984092E+00 0.71426487E+03</pdfrwt>
<pdfrwt beam="2">  1       -2 0.19966418E-01 0.71426487E+03</pdfrwt>
<totfact> 0.88071510E+01</totfact>
</mgrwt>
</event>
<event>
 4    2  0.2930016E-007  0.6767018E+03  0.7818608E-02  0.1011254E+00
         -2   -1    0    0    0  501 -0.00000000000E+00  0.00000000000E+00  0.43939598761E+03  0.43939598761E+03  0.25500000000E-02 0.  1.
          2   -1    0    0  501    0  0.00000000000E+00 -0.00000000000E+00 -0.14684840350E+04  0.14684840350E+04  0.25500000000E-02 0. -1.
    8880023    1    1    2    0    0  0.17977298581E+01 -0.15528018374E+03 -0.13557081513E+04  0.15152128448E+04  0.65864270000E+03 0. -1.
    8880022    1    1    2    0    0 -0.17977298581E+01  0.15528018374E+03  0.32662010387E+03  0.39266717785E+03  0.15294330000E+03 0.  0.
<mgrwt>
<rscale>  0 0.50979141E+03</rscale>
<asrwt>0</asrwt>
<pdfrwt beam="1">  1        2 0.22592062E+00 0.67670184E+03</pdfrwt>
<pdfrwt beam="2">  1       -2 0.67599384E-01 0.67670184E+03</pdfrwt>
<totfact> 0.27380587E+01</totfact>
</mgrwt>
</event>
<event>
 4    2  0.2930016E-007  0.6814680E+03  0.7818608E-02  0.1008505E+00
          2   -1    0    0  501    0  0.00000000000E+00  0.00000000000E+00  0.17689796424E+04  0.17689796424E+04  0.25500000000E-02 0. -1.
         -2   -1    0    0    0  501 -0.00000000000E+00 -0.00000000000E+00 -0.16301180968E+03  0.16301180970E+03  0.25500000000E-02 0.  1.
    8880023    1    1    2    0    0  0.17152152995E+03 -0.34186764238E+02  0.15497319928E+04  0.16929464923E+04  0.65864270000E+03 0. -1.
    8880022    1    1    2    0    0 -0.17152152995E+03  0.34186764238E+02  0.56235839902E+02  0.23904495977E+03  0.15294330000E+03 0.  0.
<mgrwt>
<rscale>  0 0.52073074E+03</rscale>
<asrwt>0</asrwt>
<pdfrwt beam="1">  1        2 0.27215071E+00 0.68146796E+03</pdfrwt>
<pdfrwt beam="2">  1       -2 0.25078741E-01 0.68146796E+03</pdfrwt>
<totfact> 0.13149073E+02</totfact>
</mgrwt>
</event>
<event>
 4    2  0.2930016E-007  0.7892627E+03  0.7818608E-02  0.9734512E-01
         -2   -1    0    0    0  501 -0.00000000000E+00  0.00000000000E+00  0.13386902263E+04  0.13386902263E+04  0.25500000000E-02 0.  1.
          2   -1    0    0  501    0  0.00000000000E+00 -0.00000000000E+00 -0.49255298690E+03  0.49255298691E+03  0.25500000000E-02 0. -1.
    8880023    1    1    2    0    0 -0.36747055424E+03  0.23257441328E+03 -0.83413872144E+02  0.79365833094E+03  0.65864270000E+03 0.  0.
    8880022    1    1    2    0    0  0.36747055424E+03 -0.23257441328E+03  0.92955111158E+03  0.10375848823E+04  0.15294330000E+03 0.  0.
<mgrwt>
<rscale>  0 0.68998626E+03</rscale>
<asrwt>0</asrwt>
<pdfrwt beam="1">  1        2 0.75777382E-01 0.78926274E+03</pdfrwt>
<pdfrwt beam="2">  1       -2 0.20595234E+00 0.78926274E+03</pdfrwt>
<totfact> 0.77422375E+00</totfact>
</mgrwt>
</event>
<event>
 4    2  0.2930016E-007  0.1138837E+04  0.7818608E-02  0.9219000E-01
         -2   -1    0    0    0  501 -0.00000000000E+00  0.00000000000E+00  0.46588042562E+03  0.46588042562E+03  0.25500000000E-02 0.  1.
          2   -1    0    0  501    0  0.00000000000E+00 -0.00000000000E+00 -0.25451830462E+04  0.25451830462E+04  0.25500000000E-02 0. -1.
    8880023    1    1    2    0    0  0.45732151493E+03 -0.80870038708E+03 -0.68612949276E+03  0.13295575095E+04  0.65864270000E+03 0.  1.
    8880022    1    1    2    0    0 -0.45732151493E+03  0.80870038708E+03 -0.13931731278E+04  0.16815059623E+04  0.15294330000E+03 0. -1.
<mgrwt>
<rscale>  0 0.10859451E+04</rscale>
<asrwt>0</asrwt>
<pdfrwt beam="1">  1        2 0.39156662E+00 0.11388369E+04</pdfrwt>
<pdfrwt beam="2">  1       -2 0.71673913E-01 0.11388369E+04</pdfrwt>
<totfact> 0.57537923E+00</totfact>
</mgrwt>
</event>
<event>
 4    2  0.2930016E-007  0.7833843E+03  0.7818608E-02  0.9747946E-01
          2   -1    0    0  501    0  0.00000000000E+00  0.00000000000E+00  0.31110859583E+04  0.31110859583E+04  0.25500000000E-02 0. -1.
         -2   -1    0    0    0  501 -0.00000000000E+00 -0.00000000000E+00 -0.25211208262E+03  0.25211208263E+03  0.25500000000E-02 0.  1.
    8880023    1    1    2    0    0 -0.15312015688E+03  0.39551855506E+03  0.28011704667E+04  0.29086503570E+04  0.65864270000E+03 0. -1.
    8880022    1    1    2    0    0  0.15312015688E+03 -0.39551855506E+03  0.57803409020E+02  0.45454768391E+03  0.15294330000E+03 0.  0.
<mgrwt>
<rscale>  0 0.68232444E+03</rscale>
<asrwt>0</asrwt>
<pdfrwt beam="1">  1        2 0.47862859E+00 0.78338427E+03</pdfrwt>
<pdfrwt beam="2">  1       -2 0.38786476E-01 0.78338427E+03</pdfrwt>
<totfact> 0.98609699E+00</totfact>
</mgrwt>
</event>
<event>
 4    2  0.3659035E-007  0.7094844E+03  0.7818608E-02  0.9959921E-01
          2   -1    0    0  501    0  0.00000000000E+00  0.00000000000E+00  0.13443893354E+04  0.13443893354E+04  0.25500000000E-02 0. -1.
         -2   -1    0    0    0  501 -0.00000000000E+00 -0.00000000000E+00 -0.10049683881E+04  0.10049683881E+04  0.25500000000E-02 0.  1.
    8880023    1    1    2    0    0  0.25915736059E+03  0.48942755985E+02  0.12234224463E+04  0.14142597425E+04  0.65864270000E+03 0.  0.
    8880022    1    1    2    0    0 -0.25915736059E+03 -0.48942755985E+02 -0.88400149901E+03  0.93509798106E+03  0.15294330000E+03 0.  0.
<mgrwt>
<rscale>  0 0.57443127E+03</rscale>
<asrwt>0</asrwt>
<pdfrwt beam="1">  1        2 0.20682913E+00 0.70948442E+03</pdfrwt>
<pdfrwt beam="2">  1       -2 0.15461052E+00 0.70948442E+03</pdfrwt>
<totfact> 0.44364639E+00</totfact>
</mgrwt>
</event>
<event>
 4    2  0.2930016E-007  0.6707002E+03  0.7818608E-02  0.1015166E+00
          2   -1    0    0  501    0  0.00000000000E+00  0.00000000000E+00  0.15561173323E+04  0.15561173323E+04  0.25500000000E-02 0. -1.
         -2   -1    0    0    0  501 -0.00000000000E+00 -0.00000000000E+00 -0.25007680621E+03  0.25007680623E+03  0.25500000000E-02 0.  1.
    8880023    1    1    2    0    0 -0.13504711947E+02  0.12588159618E+03  0.14248519655E+04  0.15748148727E+04  0.65864270000E+03 0. -1.
    8880022    1    1    2    0    0  0.13504711947E+02 -0.12588159618E+03 -0.11881143940E+03  0.23137926582E+03  0.15294330000E+03 0.  0.
<mgrwt>
<rscale>  0 0.49472196E+03</rscale>
<asrwt>0</asrwt>
<pdfrwt beam="1">  1        2 0.23940266E+00 0.67070020E+03</pdfrwt>
<pdfrwt beam="2">  1       -2 0.38473355E-01 0.67070020E+03</pdfrwt>
<totfact> 0.77486520E+01</totfact>
</mgrwt>
</event>
<event>
 4    2  0.2930016E-007  0.8800563E+03  0.7818608E-02  0.9558837E-01
         -2   -1    0    0    0  501 -0.00000000000E+00  0.00000000000E+00  0.66944385407E+03  0.66944385408E+03  0.25500000000E-02 0.  1.
          2   -1    0    0  501    0  0.00000000000E+00 -0.00000000000E+00 -0.24876430689E+04  0.24876430689E+04  0.25500000000E-02 0. -1.
    8880023    1    1    2    0    0  0.57046339661E+03 -0.12353264065E+03 -0.22494183869E+04  0.24154465603E+04  0.65864270000E+03 0. -1.
    8880022    1    1    2    0    0 -0.57046339661E+03  0.12353264065E+03  0.43121917205E+03  0.74164036267E+03  0.15294330000E+03 0.  0.
<mgrwt>
<rscale>  0 0.80081554E+03</rscale>
<asrwt>0</asrwt>
<pdfrwt beam="1">  1        2 0.38271431E+00 0.88005625E+03</pdfrwt>
<pdfrwt beam="2">  1       -2 0.10299136E+00 0.88005625E+03</pdfrwt>
<totfact> 0.27967421E+00</totfact>
</mgrwt>
</event>
<event>
 4    2  0.2930016E-007  0.9990690E+03  0.7818608E-02  0.9382777E-01
          2   -1    0    0  501    0  0.00000000000E+00  0.00000000000E+00  0.19855229727E+04  0.19855229727E+04  0.25500000000E-02 0. -1.
         -2   -1    0    0    0  501 -0.00000000000E+00 -0.00000000000E+00 -0.10758467888E+04  0.10758467888E+04  0.25500000000E-02 0.  1.
    8880023    1    1    2    0    0 -0.17563228588E+03 -0.73039846017E+03  0.16926949565E+04  0.19655419183E+04  0.65864270000E+03 0. -1.
    8880022    1    1    2    0    0  0.17563228588E+03  0.73039846017E+03 -0.78301877272E+03  0.10958278432E+04  0.15294330000E+03 0.  0.
<mgrwt>
<rscale>  0 0.93506745E+03</rscale>
<asrwt>0</asrwt>
<pdfrwt beam="1">  1        2 0.30546507E+00 0.99906897E+03</pdfrwt>
<pdfrwt beam="2">  1       -2 0.16551489E+00 0.99906897E+03</pdfrwt>
<totfact> 0.15584295E+00</totfact>
</mgrwt>
</event>
<event>
 4    2  0.2930016E-007  0.6744565E+03  0.7818608E-02  0.1012651E+00
          2   -1    0    0  501    0  0.00000000000E+00  0.00000000000E+00  0.98081791589E+03  0.98081791590E+03  0.25500000000E-02 0. -1.
         -2   -1    0    0    0  501 -0.00000000000E+00 -0.00000000000E+00 -0.33845283015E+03  0.33845283016E+03  0.25500000000E-02 0.  1.
    8880023    1    1    2    0    0  0.60863866959E+02 -0.13182151944E+03  0.80699900717E+03  0.10517313950E+04  0.65864270000E+03 0.  0.
    8880022    1    1    2    0    0 -0.60863866959E+02  0.13182151944E+03 -0.16463392143E+03  0.26753935110E+03  0.15294330000E+03 0.  0.
<mgrwt>
<rscale>  0 0.50434471E+03</rscale>
<asrwt>0</asrwt>
<pdfrwt beam="1">  1        2 0.15089506E+00 0.67445647E+03</pdfrwt>
<pdfrwt beam="2">  1       -2 0.52069666E-01 0.67445647E+03</pdfrwt>
<totfact> 0.92033013E+01</totfact>
</mgrwt>
</event>
<event>
 4    2  0.2930016E-007  0.8335364E+03  0.7818608E-02  0.9642490E-01
         -2   -1    0    0    0  501 -0.00000000000E+00  0.00000000000E+00  0.75329731029E+03  0.75329731030E+03  0.25500000000E-02 0.  1.
          2   -1    0    0  501    0  0.00000000000E+00 -0.00000000000E+00 -0.10501115467E+04  0.10501115467E+04  0.25500000000E-02 0. -1.
    8880023    1    1    2    0    0  0.50813029281E+03 -0.52691545662E+02 -0.73646710882E+03  0.11122800017E+04  0.65864270000E+03 0. -1.
    8880022    1    1    2    0    0 -0.50813029281E+03  0.52691545662E+02  0.43965287241E+03  0.69112885535E+03  0.15294330000E+03 0.  0.
<mgrwt>
<rscale>  0 0.74546603E+03</rscale>
<asrwt>0</asrwt>
<pdfrwt beam="1">  1        2 0.16155562E+00 0.83353644E+03</pdfrwt>
<pdfrwt beam="2">  1       -2 0.11589189E+00 0.83353644E+03</pdfrwt>
<totfact> 0.13655231E+01</totfact>
</mgrwt>
</event>
<event>
 4    2  0.2930016E-007  0.1157329E+04  0.7818608E-02  0.9199761E-01
          2   -1    0    0  501    0  0.00000000000E+00  0.00000000000E+00  0.14231148065E+04  0.14231148065E+04  0.25500000000E-02 0. -1.
         -2   -1    0    0    0  501 -0.00000000000E+00 -0.00000000000E+00 -0.90347417254E+03  0.90347417255E+03  0.25500000000E-02 0.  1.
    8880023    1    1    2    0    0  0.88795713702E+03  0.34224548314E+03 -0.12947169038E+03  0.11645483986E+04  0.65864270000E+03 0.  0.
    8880022    1    1    2    0    0 -0.88795713702E+03 -0.34224548314E+03  0.64911232436E+03  0.11620405804E+04  0.15294330000E+03 0.  0.
<mgrwt>
<rscale>  0 0.11055899E+04</rscale>
<asrwt>0</asrwt>
<pdfrwt beam="1">  1        2 0.21894074E+00 0.11573288E+04</pdfrwt>
<pdfrwt beam="2">  1       -2 0.13899603E+00 0.11573288E+04</pdfrwt>
<totfact> 0.50180883E+00</totfact>
</mgrwt>
</event>
<event>
 4    2  0.2930016E-007  0.8838653E+03  0.7818608E-02  0.9552446E-01
          2   -1    0    0  501    0  0.00000000000E+00  0.00000000000E+00  0.10982972289E+04  0.10982972289E+04  0.25500000000E-02 0. -1.
         -2   -1    0    0    0  501 -0.00000000000E+00 -0.00000000000E+00 -0.80424006488E+03  0.80424006488E+03  0.25500000000E-02 0.  1.
    8880023    1    1    2    0    0 -0.50884755131E+03 -0.29745888423E+03  0.73596149478E+03  0.11501552705E+04  0.65864270000E+03 0. -1.
    8880022    1    1    2    0    0  0.50884755131E+03  0.29745888423E+03 -0.44190433079E+03  0.75238202322E+03  0.15294330000E+03 0.  0.
<mgrwt>
<rscale>  0 0.80525219E+03</rscale>
<asrwt>0</asrwt>
<pdfrwt beam="1">  1        2 0.16896880E+00 0.88386528E+03</pdfrwt>
<pdfrwt beam="2">  1       -2 0.12372924E+00 0.88386528E+03</pdfrwt>
<totfact> 0.10779879E+01</totfact>
</mgrwt>
</event>
<event>
 4    2  0.2930016E-007  0.9556590E+03  0.7818608E-02  0.9442018E-01
          2   -1    0    0  501    0  0.00000000000E+00  0.00000000000E+00  0.47397295719E+04  0.47397295719E+04  0.25500000000E-02 0. -1.
         -2   -1    0    0    0  501 -0.00000000000E+00 -0.00000000000E+00 -0.56414811858E+03  0.56414811858E+03  0.25500000000E-02 0.  1.
    8880023    1    1    2    0    0 -0.69243319488E+03 -0.32002327395E+01  0.44440400040E+04  0.45456326000E+04  0.65864270000E+03 0.  0.
    8880022    1    1    2    0    0  0.69243319488E+03  0.32002327395E+01 -0.26845855064E+03  0.75824509051E+03  0.15294330000E+03 0.  0.
<mgrwt>
<rscale>  0 0.88696957E+03</rscale>
<asrwt>0</asrwt>
<pdfrwt beam="1">  1        2 0.72918920E+00 0.95565903E+03</pdfrwt>
<pdfrwt beam="2">  1       -2 0.86792014E-01 0.95565903E+03</pdfrwt>
<totfact> 0.87649586E-02</totfact>
</mgrwt>
</event>
<event>
 4    2  0.2930016E-007  0.9699314E+03  0.7818608E-02  0.9421999E-01
         -2   -1    0    0    0  501 -0.00000000000E+00  0.00000000000E+00  0.53575036703E+03  0.53575036704E+03  0.25500000000E-02 0.  1.
          2   -1    0    0  501    0  0.00000000000E+00 -0.00000000000E+00 -0.20982555544E+04  0.20982555544E+04  0.25500000000E-02 0. -1.
    8880023    1    1    2    0    0  0.19276931234E+03 -0.68541720632E+03 -0.16361521751E+04  0.19020412458E+04  0.65864270000E+03 0.  0.
    8880022    1    1    2    0    0 -0.19276931234E+03  0.68541720632E+03  0.73646987729E+02  0.73196467560E+03  0.15294330000E+03 0.  0.
<mgrwt>
<rscale>  0 0.90287147E+03</rscale>
<asrwt>0</asrwt>
<pdfrwt beam="1">  1        2 0.32280854E+00 0.96993142E+03</pdfrwt>
<pdfrwt beam="2">  1       -2 0.82423134E-01 0.96993142E+03</pdfrwt>
<totfact> 0.76627228E+00</totfact>
</mgrwt>
</event>
<event>
 4    2  0.2930016E-007  0.7577494E+03  0.7818608E-02  0.9810969E-01
         -2   -1    0    0    0  501 -0.00000000000E+00  0.00000000000E+00  0.58299460447E+03  0.58299460448E+03  0.25500000000E-02 0.  1.
          2   -1    0    0  501    0  0.00000000000E+00 -0.00000000000E+00 -0.21257578999E+04  0.21257578999E+04  0.25500000000E-02 0. -1.
    8880023    1    1    2    0    0 -0.85589432867E+01  0.37456724187E+03 -0.19757621478E+04  0.21160860439E+04  0.65864270000E+03 0. -1.
    8880022    1    1    2    0    0  0.85589432867E+01 -0.37456724187E+03  0.43299885239E+03  0.59266646048E+03  0.15294330000E+03 0.  0.
<mgrwt>
<rscale>  0 0.64777173E+03</rscale>
<asrwt>0</asrwt>
<pdfrwt beam="1">  1        2 0.32703967E+00 0.75774935E+03</pdfrwt>
<pdfrwt beam="2">  1       -2 0.89691478E-01 0.75774935E+03</pdfrwt>
<totfact> 0.62833030E+00</totfact>
</mgrwt>
</event>
<event>
 4    2  0.2930016E-007  0.1005282E+04  0.7818608E-02  0.9374679E-01
          2   -1    0    0  501    0  0.00000000000E+00  0.00000000000E+00  0.99300096471E+03  0.99300096472E+03  0.25500000000E-02 0. -1.
         -2   -1    0    0    0  501 -0.00000000000E+00 -0.00000000000E+00 -0.17598101379E+04  0.17598101379E+04  0.25500000000E-02 0.  1.
    8880023    1    1    2    0    0 -0.63383486408E+03 -0.41837261938E+03  0.60793350660E+03  0.11748087667E+04  0.65864270000E+03 0.  0.
    8880022    1    1    2    0    0  0.63383486408E+03  0.41837261938E+03 -0.13747426798E+04  0.15780023359E+04  0.15294330000E+03 0.  0.
<mgrwt>
<rscale>  0 0.94189104E+03</rscale>
<asrwt>0</asrwt>
<pdfrwt beam="1">  1        2 0.15276938E+00 0.10052823E+04</pdfrwt>
<pdfrwt beam="2">  1       -2 0.27074002E+00 0.10052823E+04</pdfrwt>
<totfact> 0.12194072E+00</totfact>
</mgrwt>
</event>
<event>
 4    2  0.2930016E-007  0.6817714E+03  0.7818608E-02  0.1008339E+00
          2   -1    0    0  501    0  0.00000000000E+00  0.00000000000E+00  0.83984106271E+03  0.83984106271E+03  0.25500000000E-02 0. -1.
         -2   -1    0    0    0  501 -0.00000000000E+00 -0.00000000000E+00 -0.32941155302E+03  0.32941155303E+03  0.25500000000E-02 0.  1.
    8880023    1    1    2    0    0  0.13559507975E+03  0.11232120670E+03  0.61078537177E+03  0.91535296786E+03  0.65864270000E+03 0. -1.
    8880022    1    1    2    0    0 -0.13559507975E+03 -0.11232120670E+03 -0.10035586209E+03  0.25389964789E+03  0.15294330000E+03 0.  0.
<mgrwt>
<rscale>  0 0.52140202E+03</rscale>
<asrwt>0</asrwt>
<pdfrwt beam="1">  1        2 0.12920632E+00 0.68177143E+03</pdfrwt>
<pdfrwt beam="2">  1       -2 0.50678700E-01 0.68177143E+03</pdfrwt>
<totfact> 0.12073508E+02</totfact>
</mgrwt>
</event>
<event>
 4    2  0.2930016E-007  0.6916653E+03  0.7818608E-02  0.1003371E+00
          2   -1    0    0  501    0  0.00000000000E+00  0.00000000000E+00  0.18777544113E+04  0.18777544113E+04  0.25500000000E-02 0. -1.
         -2   -1    0    0    0  501 -0.00000000000E+00 -0.00000000000E+00 -0.23120686152E+03  0.23120686154E+03  0.25500000000E-02 0.  1.
    8880023    1    1    2    0    0  0.19916097689E+03 -0.70182795876E+02  0.17065698055E+04  0.18414074581E+04  0.65864270000E+03 0. -1.
    8880022    1    1    2    0    0 -0.19916097689E+03  0.70182795876E+02 -0.60022255740E+02  0.26755381469E+03  0.15294330000E+03 0.  0.
<mgrwt>
<rscale>  0 0.54196538E+03</rscale>
<asrwt>0</asrwt>
<pdfrwt beam="1">  1        2 0.28888529E+00 0.69166533E+03</pdfrwt>
<pdfrwt beam="2">  1       -2 0.35570287E-01 0.69166533E+03</pdfrwt>
<totfact> 0.59981163E+01</totfact>
</mgrwt>
</event>
<event>
 4    2  0.2930016E-007  0.1019503E+04  0.7818608E-02  0.9356475E-01
         -2   -1    0    0    0  501 -0.00000000000E+00  0.00000000000E+00  0.89148498018E+03  0.89148498018E+03  0.25500000000E-02 0.  1.
          2   -1    0    0  501    0  0.00000000000E+00 -0.00000000000E+00 -0.11335959402E+04  0.11335959402E+04  0.25500000000E-02 0. -1.
    8880023    1    1    2    0    0 -0.69750964417E+03  0.34504549531E+03  0.30200798629E+03  0.10632944689E+04  0.65864270000E+03 0.  0.
    8880022    1    1    2    0    0  0.69750964417E+03 -0.34504549531E+03 -0.54411894636E+03  0.96178645153E+03  0.15294330000E+03 0.  0.
<mgrwt>
<rscale>  0 0.95745841E+03</rscale>
<asrwt>0</asrwt>
<pdfrwt beam="1">  1        2 0.17439937E+00 0.10195030E+04</pdfrwt>
<pdfrwt beam="2">  1       -2 0.13715154E+00 0.10195030E+04</pdfrwt>
<totfact> 0.77900907E+00</totfact>
</mgrwt>
</event>
<event>
 4    2  0.2930016E-007  0.8000307E+03  0.7818608E-02  0.9710730E-01
         -2   -1    0    0    0  501 -0.00000000000E+00  0.00000000000E+00  0.98425037065E+03  0.98425037065E+03  0.25500000000E-02 0.  1.
          2   -1    0    0  501    0  0.00000000000E+00 -0.00000000000E+00 -0.11777407446E+04  0.11777407446E+04  0.25500000000E-02 0. -1.
    8880023    1    1    2    0    0  0.42778821329E+03 -0.15243393837E+03 -0.96516653247E+03  0.12536329218E+04  0.65864270000E+03 0. -1.
    8880022    1    1    2    0    0 -0.42778821329E+03  0.15243393837E+03  0.77167615850E+03  0.90835819345E+03  0.15294330000E+03 0.  0.
<mgrwt>
<rscale>  0 0.70381525E+03</rscale>
<asrwt>0</asrwt>
<pdfrwt beam="1">  1        2 0.18119088E+00 0.80003067E+03</pdfrwt>
<pdfrwt beam="2">  1       -2 0.15142313E+00 0.80003067E+03</pdfrwt>
<totfact> 0.57889148E+00</totfact>
</mgrwt>
</event>
<event>
 4    2  0.2930016E-007  0.9119435E+03  0.7818608E-02  0.9507124E-01
          2   -1    0    0  501    0  0.00000000000E+00  0.00000000000E+00  0.90215230066E+03  0.90215230066E+03  0.25500000000E-02 0. -1.
         -2   -1    0    0    0  501 -0.00000000000E+00 -0.00000000000E+00 -0.14201373110E+04  0.14201373110E+04  0.25500000000E-02 0.  1.
    8880023    1    1    2    0    0 -0.13430845853E+03 -0.61627258274E+03 -0.11150040889E+04  0.14404426343E+04  0.65864270000E+03 0.  1.
    8880022    1    1    2    0    0  0.13430845853E+03  0.61627258274E+03  0.59701907856E+03  0.88184697734E+03  0.15294330000E+03 0.  0.
<mgrwt>
<rscale>  0 0.83760614E+03</rscale>
<asrwt>0</asrwt>
<pdfrwt beam="1">  1        2 0.13879266E+00 0.91194345E+03</pdfrwt>
<pdfrwt beam="2">  1       -2 0.21848266E+00 0.91194345E+03</pdfrwt>
<totfact> 0.29648567E+00</totfact>
</mgrwt>
</event>
<event>
 4    2  0.2930016E-007  0.6864679E+03  0.7818608E-02  0.1005879E+00
          2   -1    0    0  501    0  0.00000000000E+00  0.00000000000E+00  0.87787452637E+03  0.87787452638E+03  0.25500000000E-02 0. -1.
         -2   -1    0    0    0  501 -0.00000000000E+00 -0.00000000000E+00 -0.26994609092E+03  0.26994609094E+03  0.25500000000E-02 0.  1.
    8880023    1    1    2    0    0 -0.16747477897E+03 -0.96851469398E+02  0.28939062530E+03  0.74497325388E+03  0.65864270000E+03 0.  1.
    8880022    1    1    2    0    0  0.16747477897E+03  0.96851469398E+02  0.31853781015E+03  0.40284736344E+03  0.15294330000E+03 0.  0.
<mgrwt>
<rscale>  0 0.53146013E+03</rscale>
<asrwt>0</asrwt>
<pdfrwt beam="1">  1        2 0.13505762E+00 0.68646793E+03</pdfrwt>
<pdfrwt beam="2">  1       -2 0.41530167E-01 0.68646793E+03</pdfrwt>
<totfact> 0.16918077E+02</totfact>
</mgrwt>
</event>
<event>
 4    2  0.2930016E-007  0.7493238E+03  0.7818608E-02  0.9833575E-01
          2   -1    0    0  501    0  0.00000000000E+00  0.00000000000E+00  0.22612554650E+04  0.22612554650E+04  0.25500000000E-02 0. -1.
         -2   -1    0    0    0  501 -0.00000000000E+00 -0.00000000000E+00 -0.16206566696E+03  0.16206566698E+03  0.25500000000E-02 0.  1.
    8880023    1    1    2    0    0 -0.12523509604E+03  0.33465230559E+03  0.17383345177E+04  0.18929588207E+04  0.65864270000E+03 0. -1.
    8880022    1    1    2    0    0  0.12523509604E+03 -0.33465230559E+03  0.36085528028E+03  0.53036231129E+03  0.15294330000E+03 0.  0.
<mgrwt>
<rscale>  0 0.63591430E+03</rscale>
<asrwt>0</asrwt>
<pdfrwt beam="1">  1        2 0.34788546E+00 0.74932383E+03</pdfrwt>
<pdfrwt beam="2">  1       -2 0.24933179E-01 0.74932383E+03</pdfrwt>
<totfact> 0.70985980E+01</totfact>
</mgrwt>
</event>
<event>
 4    2  0.2930016E-007  0.7300092E+03  0.7818608E-02  0.9890068E-01
          2   -1    0    0  501    0  0.00000000000E+00  0.00000000000E+00  0.26102739859E+04  0.26102739859E+04  0.25500000000E-02 0. -1.
         -2   -1    0    0    0  501 -0.00000000000E+00 -0.00000000000E+00 -0.23619574940E+03  0.23619574942E+03  0.25500000000E-02 0.  1.
    8880023    1    1    2    0    0  0.20771234199E+02  0.31412055342E+03  0.23871059035E+04  0.24962347580E+04  0.65864270000E+03 0.  0.
    8880022    1    1    2    0    0 -0.20771234199E+02 -0.31412055342E+03 -0.13027666957E+02  0.35023497737E+03  0.15294330000E+03 0.  0.
<mgrwt>
<rscale>  0 0.60745057E+03</rscale>
<asrwt>0</asrwt>
<pdfrwt beam="1">  1        2 0.40158062E+00 0.73000916E+03</pdfrwt>
<pdfrwt beam="2">  1       -2 0.36337807E-01 0.73000916E+03</pdfrwt>
<totfact> 0.22484926E+01</totfact>
</mgrwt>
</event>
<event>
 4    2  0.2930016E-007  0.7237413E+03  0.7818608E-02  0.9910124E-01
         -2   -1    0    0    0  501 -0.00000000000E+00  0.00000000000E+00  0.52601851279E+03  0.52601851279E+03  0.25500000000E-02 0.  1.
          2   -1    0    0  501    0  0.00000000000E+00 -0.00000000000E+00 -0.66683021382E+03  0.66683021383E+03  0.25500000000E-02 0. -1.
    8880023    1    1    2    0    0  0.20048348671E+02  0.29931476983E+03 -0.34212864615E+03  0.80053325009E+03  0.65864270000E+03 0. -1.
    8880022    1    1    2    0    0 -0.20048348671E+02 -0.29931476983E+03  0.20131694511E+03  0.39231547653E+03  0.15294330000E+03 0.  0.
<mgrwt>
<rscale>  0 0.59773127E+03</rscale>
<asrwt>0</asrwt>
<pdfrwt beam="1">  1        2 0.10258926E+00 0.72374130E+03</pdfrwt>
<pdfrwt beam="2">  1       -2 0.80925925E-01 0.72374130E+03</pdfrwt>
<totfact> 0.59510561E+01</totfact>
</mgrwt>
</event>
<event>
 4    2  0.2930016E-007  0.8067111E+03  0.7818608E-02  0.9696469E-01
         -2   -1    0    0    0  501 -0.00000000000E+00  0.00000000000E+00  0.15176518716E+03  0.15176518718E+03  0.25500000000E-02 0.  1.
          2   -1    0    0  501    0  0.00000000000E+00 -0.00000000000E+00 -0.48232842940E+04  0.48232842940E+04  0.25500000000E-02 0. -1.
    8880023    1    1    2    0    0 -0.18328140877E+03 -0.42822958580E+03 -0.42577897055E+04  0.43335385121E+04  0.65864270000E+03 0. -1.
    8880022    1    1    2    0    0  0.18328140877E+03  0.42822958580E+03 -0.41372940132E+03  0.64151096911E+03  0.15294330000E+03 0.  0.
<mgrwt>
<rscale>  0 0.71227432E+03</rscale>
<asrwt>0</asrwt>
<pdfrwt beam="1">  1        2 0.74204362E+00 0.80671114E+03</pdfrwt>
<pdfrwt beam="2">  1       -2 0.23348494E-01 0.80671114E+03</pdfrwt>
<totfact> 0.10365082E+00</totfact>
</mgrwt>
</event>
<event>
 4    2  0.2930016E-007  0.6927737E+03  0.7818608E-02  0.1002861E+00
          2   -1    0    0  501    0  0.00000000000E+00  0.00000000000E+00  0.47322757716E+03  0.47322757716E+03  0.25500000000E-02 0. -1.
         -2   -1    0    0    0  501 -0.00000000000E+00 -0.00000000000E+00 -0.53389207802E+03  0.53389207803E+03  0.25500000000E-02 0.  1.
    8880023    1    1    2    0    0  0.19240767660E+03  0.95417613739E+02  0.97586451558E+02  0.69961314797E+03  0.65864270000E+03 0.  0.
    8880022    1    1    2    0    0 -0.19240767660E+03 -0.95417613739E+02 -0.15825095243E+03  0.30750650722E+03  0.15294330000E+03 0.  0.
<mgrwt>
<rscale>  0 0.54413273E+03</rscale>
<asrwt>0</asrwt>
<pdfrwt beam="1">  1        2 0.72804243E-01 0.69277373E+03</pdfrwt>
<pdfrwt beam="2">  1       -2 0.82137243E-01 0.69277373E+03</pdfrwt>
<totfact> 0.86714782E+01</totfact>
</mgrwt>
</event>
<event>
 4    2  0.2930016E-007  0.8279151E+03  0.7818608E-02  0.9653403E-01
         -2   -1    0    0    0  501 -0.00000000000E+00  0.00000000000E+00  0.34276811719E+03  0.34276811720E+03  0.25500000000E-02 0.  1.
          2   -1    0    0  501    0  0.00000000000E+00 -0.00000000000E+00 -0.17119136909E+04  0.17119136909E+04  0.25500000000E-02 0. -1.
    8880023    1    1    2    0    0  0.45437111356E+03 -0.21255609342E+03 -0.12774835398E+04  0.15223033871E+04  0.65864270000E+03 0. -1.
    8880022    1    1    2    0    0 -0.45437111356E+03  0.21255609342E+03 -0.91662033956E+02  0.53237842102E+03  0.15294330000E+03 0.  0.
<mgrwt>
<rscale>  0 0.73860262E+03</rscale>
<asrwt>0</asrwt>
<pdfrwt beam="1">  1        2 0.26337133E+00 0.82791510E+03</pdfrwt>
<pdfrwt beam="2">  1       -2 0.52733557E-01 0.82791510E+03</pdfrwt>
<totfact> 0.33340942E+01</totfact>
</mgrwt>
</event>
<event>
 4    2  0.2930016E-007  0.7112714E+03  0.7818608E-02  0.9953310E-01
         -2   -1    0    0    0  501 -0.00000000000E+00  0.00000000000E+00  0.20214616319E+04  0.20214616319E+04  0.25500000000E-02 0.  1.
          2   -1    0    0  501    0  0.00000000000E+00 -0.00000000000E+00 -0.22619133519E+03  0.22619133521E+03  0.25500000000E-02 0. -1.
    8880023    1    1    2    0    0  0.76562561647E+02  0.25736152064E+03  0.39479733750E+03  0.81349365216E+03  0.65864270000E+03 0. -1.
    8880022    1    1    2    0    0 -0.76562561647E+02 -0.25736152064E+03  0.14004729592E+04  0.14341593149E+04  0.15294330000E+03 0.  0.
<mgrwt>
<rscale>  0 0.57745793E+03</rscale>
<asrwt>0</asrwt>
<pdfrwt beam="1">  1        2 0.34798667E-01 0.71127139E+03</pdfrwt>
<pdfrwt beam="2">  1       -2 0.31099410E+00 0.71127139E+03</pdfrwt>
<totfact> 0.42887655E+00</totfact>
</mgrwt>
</event>
<event>
 4    2  0.2930016E-007  0.8069669E+03  0.7818608E-02  0.9695930E-01
         -2   -1    0    0    0  501 -0.00000000000E+00  0.00000000000E+00  0.37501472041E+03  0.37501472042E+03  0.25500000000E-02 0.  1.
          2   -1    0    0  501    0  0.00000000000E+00 -0.00000000000E+00 -0.17920295280E+04  0.17920295280E+04  0.25500000000E-02 0. -1.
    8880023    1    1    2    0    0  0.11307424277E+03  0.45232687965E+03 -0.14665018353E+04  0.16738647584E+04  0.65864270000E+03 0. -1.
    8880022    1    1    2    0    0 -0.11307424277E+03 -0.45232687965E+03  0.49487027665E+02  0.49317949000E+03  0.15294330000E+03 0.  0.
<mgrwt>
<rscale>  0 0.71259649E+03</rscale>
<asrwt>0</asrwt>
<pdfrwt beam="1">  1        2 0.27569685E+00 0.80696691E+03</pdfrwt>
<pdfrwt beam="2">  1       -2 0.57694573E-01 0.80696691E+03</pdfrwt>
<totfact> 0.25057878E+01</totfact>
</mgrwt>
</event>
<event>
 4    2  0.2930016E-007  0.1008722E+04  0.7818608E-02  0.9370235E-01
         -2   -1    0    0    0  501 -0.00000000000E+00  0.00000000000E+00  0.90790418131E+03  0.90790418131E+03  0.25500000000E-02 0.  1.
          2   -1    0    0  501    0  0.00000000000E+00 -0.00000000000E+00 -0.11635157521E+04  0.11635157521E+04  0.25500000000E-02 0. -1.
    8880023    1    1    2    0    0 -0.61364018712E+03  0.45514330629E+03 -0.64810147928E+03  0.11989810016E+04  0.65864270000E+03 0.  0.
    8880022    1    1    2    0    0  0.61364018712E+03 -0.45514330629E+03  0.39248990847E+03  0.87243893183E+03  0.15294330000E+03 0.  0.
<mgrwt>
<rscale>  0 0.94566267E+03</rscale>
<asrwt>0</asrwt>
<pdfrwt beam="1">  1        2 0.17900242E+00 0.10087219E+04</pdfrwt>
<pdfrwt beam="2">  1       -2 0.13967757E+00 0.10087219E+04</pdfrwt>
<totfact> 0.71321233E+00</totfact>
</mgrwt>
</event>
<event>
 4    2  0.2930016E-007  0.7091831E+03  0.7818608E-02  0.9961047E-01
         -2   -1    0    0    0  501 -0.00000000000E+00  0.00000000000E+00  0.21957839066E+03  0.21957839067E+03  0.25500000000E-02 0.  1.
          2   -1    0    0  501    0  0.00000000000E+00 -0.00000000000E+00 -0.38123459088E+04  0.38123459088E+04  0.25500000000E-02 0. -1.
    8880023    1    1    2    0    0  0.20083692450E+03 -0.16969090004E+03 -0.36535445614E+04  0.37217373013E+04  0.65864270000E+03 0. -1.
    8880022    1    1    2    0    0 -0.20083692450E+03  0.16969090004E+03  0.60777043265E+02  0.31018699812E+03  0.15294330000E+03 0.  0.
<mgrwt>
<rscale>  0 0.57391752E+03</rscale>
<asrwt>0</asrwt>
<pdfrwt beam="1">  1        2 0.58651471E+00 0.70918311E+03</pdfrwt>
<pdfrwt beam="2">  1       -2 0.33781293E-01 0.70918311E+03</pdfrwt>
<totfact> 0.43603767E+00</totfact>
</mgrwt>
</event>
<event>
 4    2  0.2930016E-007  0.9377150E+03  0.7818608E-02  0.9468014E-01
          2   -1    0    0  501    0  0.00000000000E+00  0.00000000000E+00  0.25191948045E+04  0.25191948045E+04  0.25500000000E-02 0. -1.
         -2   -1    0    0    0  501 -0.00000000000E+00 -0.00000000000E+00 -0.33155620472E+03  0.33155620473E+03  0.25500000000E-02 0.  1.
    8880023    1    1    2    0    0  0.66573127067E+03 -0.47969094511E+02  0.18783061439E+04  0.20993673655E+04  0.65864270000E+03 0. -1.
    8880022    1    1    2    0    0 -0.66573127067E+03  0.47969094511E+02  0.30933245583E+03  0.75138364370E+03  0.15294330000E+03 0.  0.
<mgrwt>
<rscale>  0 0.86683633E+03</rscale>
<asrwt>0</asrwt>
<pdfrwt beam="1">  1        2 0.38756842E+00 0.93771497E+03</pdfrwt>
<pdfrwt beam="2">  1       -2 0.51008649E-01 0.93771497E+03</pdfrwt>
<totfact> 0.12576114E+01</totfact>
</mgrwt>
</event>
<event>
 4    2  0.2930016E-007  0.7904684E+03  0.7818608E-02  0.9731797E-01
          2   -1    0    0  501    0  0.00000000000E+00  0.00000000000E+00  0.14678905515E+04  0.14678905515E+04  0.25500000000E-02 0. -1.
         -2   -1    0    0    0  501 -0.00000000000E+00 -0.00000000000E+00 -0.37235558718E+03  0.37235558719E+03  0.25500000000E-02 0.  1.
    8880023    1    1    2    0    0 -0.32105947293E+02 -0.43588911794E+03  0.11264835688E+04  0.13761560783E+04  0.65864270000E+03 0.  0.
    8880022    1    1    2    0    0  0.32105947293E+02  0.43588911794E+03 -0.30948604450E+02  0.46409006035E+03  0.15294330000E+03 0.  0.
<mgrwt>
<rscale>  0 0.69154748E+03</rscale>
<asrwt>0</asrwt>
<pdfrwt beam="1">  1        2 0.22582931E+00 0.79046842E+03</pdfrwt>
<pdfrwt beam="2">  1       -2 0.57285476E-01 0.79046842E+03</pdfrwt>
<totfact> 0.38466331E+01</totfact>
</mgrwt>
</event>
<event>
 4    2  0.2930016E-007  0.8056172E+03  0.7818608E-02  0.9698780E-01
          2   -1    0    0  501    0  0.00000000000E+00  0.00000000000E+00  0.30078315866E+04  0.30078315866E+04  0.25500000000E-02 0. -1.
         -2   -1    0    0    0  501 -0.00000000000E+00 -0.00000000000E+00 -0.42663859405E+03  0.42663859405E+03  0.25500000000E-02 0.  1.
    8880023    1    1    2    0    0  0.13471547990E+03 -0.44391504464E+03  0.27894540160E+04  0.29034587549E+04  0.65864270000E+03 0. -1.
    8880022    1    1    2    0    0 -0.13471547990E+03  0.44391504464E+03 -0.20826102349E+03  0.53101142578E+03  0.15294330000E+03 0.  0.
<mgrwt>
<rscale>  0 0.71089499E+03</rscale>
<asrwt>0</asrwt>
<pdfrwt beam="1">  1        2 0.46274331E+00 0.80561718E+03</pdfrwt>
<pdfrwt beam="2">  1       -2 0.65636708E-01 0.80561718E+03</pdfrwt>
<totfact> 0.38850558E+00</totfact>
</mgrwt>
</event>
<event>
 4    2  0.2930016E-007  0.9305583E+03  0.7818608E-02  0.9478656E-01
          2   -1    0    0  501    0  0.00000000000E+00  0.00000000000E+00  0.16586283874E+04  0.16586283874E+04  0.25500000000E-02 0. -1.
         -2   -1    0    0    0  501 -0.00000000000E+00 -0.00000000000E+00 -0.50130270075E+03  0.50130270076E+03  0.25500000000E-02 0.  1.
    8880023    1    1    2    0    0 -0.13755435610E+03  0.64281208605E+03  0.11572865015E+04  0.14850086975E+04  0.65864270000E+03 0.  1.
    8880022    1    1    2    0    0  0.13755435610E+03 -0.64281208605E+03  0.39185149839E-01  0.67492239065E+03  0.15294330000E+03 0.  0.
<mgrwt>
<rscale>  0 0.85875871E+03</rscale>
<asrwt>0</asrwt>
<pdfrwt beam="1">  1        2 0.25517360E+00 0.93055832E+03</pdfrwt>
<pdfrwt beam="2">  1       -2 0.77123493E-01 0.93055832E+03</pdfrwt>
<totfact> 0.15606359E+01</totfact>
</mgrwt>
</event>
<event>
 4    2  0.2930016E-007  0.1035854E+04  0.7818608E-02  0.9336083E-01
         -2   -1    0    0    0  501 -0.00000000000E+00  0.00000000000E+00  0.97253330905E+03  0.97253330906E+03  0.25500000000E-02 0.  1.
          2   -1    0    0  501    0  0.00000000000E+00 -0.00000000000E+00 -0.94482103440E+03  0.94482103440E+03  0.25500000000E-02 0. -1.
    8880023    1    1    2    0    0  0.79013718292E+03  0.12192808970E+03 -0.23470876042E+03  0.10621118752E+04  0.65864270000E+03 0.  0.
    8880022    1    1    2    0    0 -0.79013718292E+03 -0.12192808970E+03  0.26242103508E+03  0.85524246829E+03  0.15294330000E+03 0.  0.
<mgrwt>
<rscale>  0 0.97527765E+03</rscale>
<asrwt>0</asrwt>
<pdfrwt beam="1">  1        2 0.14535708E+00 0.10358540E+04</pdfrwt>
<pdfrwt beam="2">  1       -2 0.14962051E+00 0.10358540E+04</pdfrwt>
<totfact> 0.81570963E+00</totfact>
</mgrwt>
</event>
<event>
 4    2  0.2930016E-007  0.7411449E+03  0.7818608E-02  0.9856624E-01
          2   -1    0    0  501    0  0.00000000000E+00  0.00000000000E+00  0.23133867718E+04  0.23133867718E+04  0.25500000000E-02 0. -1.
         -2   -1    0    0    0  501 -0.00000000000E+00 -0.00000000000E+00 -0.22281886497E+03  0.22281886498E+03  0.25500000000E-02 0.  1.
    8880023    1    1    2    0    0  0.31236203408E+03 -0.13384896250E+03  0.20268894066E+04  0.21581418994E+04  0.65864270000E+03 0.  0.
    8880022    1    1    2    0    0 -0.31236203408E+03  0.13384896250E+03  0.63678500198E+02  0.37806373735E+03  0.15294330000E+03 0.  0.
<mgrwt>
<rscale>  0 0.62410295E+03</rscale>
<asrwt>0</asrwt>
<pdfrwt beam="1">  1        2 0.35590567E+00 0.74114492E+03</pdfrwt>
<pdfrwt beam="2">  1       -2 0.34279824E-01 0.74114492E+03</pdfrwt>
<totfact> 0.36902758E+01</totfact>
</mgrwt>
</event>
<event>
 4    2  0.2930016E-007  0.8259951E+03  0.7818608E-02  0.9657175E-01
         -2   -1    0    0    0  501 -0.00000000000E+00  0.00000000000E+00  0.50367370216E+03  0.50367370217E+03  0.25500000000E-02 0.  1.
          2   -1    0    0  501    0  0.00000000000E+00 -0.00000000000E+00 -0.13523486361E+04  0.13523486361E+04  0.25500000000E-02 0. -1.
    8880023    1    1    2    0    0 -0.49557249522E+03  0.53531872239E+02 -0.10151126130E+04  0.13087098925E+04  0.65864270000E+03 0. -1.
    8880022    1    1    2    0    0  0.49557249522E+03 -0.53531872239E+02  0.16643767900E+03  0.54731244584E+03  0.15294330000E+03 0.  0.
<mgrwt>
<rscale>  0 0.73624807E+03</rscale>
<asrwt>0</asrwt>
<pdfrwt beam="1">  1        2 0.20805363E+00 0.82599514E+03</pdfrwt>
<pdfrwt beam="2">  1       -2 0.77488263E-01 0.82599514E+03</pdfrwt>
<totfact> 0.23181327E+01</totfact>
</mgrwt>
</event>
<event>
 4    2  0.2930016E-007  0.1161357E+04  0.7818608E-02  0.9195633E-01
         -2   -1    0    0    0  501 -0.00000000000E+00  0.00000000000E+00  0.12001600045E+04  0.12001600045E+04  0.25500000000E-02 0.  1.
          2   -1    0    0  501    0  0.00000000000E+00 -0.00000000000E+00 -0.36489480947E+04  0.36489480947E+04  0.25500000000E-02 0. -1.
    8880023    1    1    2    0    0  0.86574197385E+03 -0.40673163711E+03 -0.33379521755E+04  0.35342148664E+04  0.65864270000E+03 0. -1.
    8880022    1    1    2    0    0 -0.86574197385E+03  0.40673163711E+03  0.88916408535E+03  0.13148932328E+04  0.15294330000E+03 0.  0.
<mgrwt>
<rscale>  0 0.11098616E+04</rscale>
<asrwt>0</asrwt>
<pdfrwt beam="1">  1        2 0.56137662E+00 0.11613570E+04</pdfrwt>
<pdfrwt beam="2">  1       -2 0.18464000E+00 0.11613570E+04</pdfrwt>
<totfact> 0.10758417E-01</totfact>
</mgrwt>
</event>
<event>
 4    2  0.2930016E-007  0.7258141E+03  0.7818608E-02  0.9903383E-01
         -2   -1    0    0    0  501 -0.00000000000E+00  0.00000000000E+00  0.40194819196E+03  0.40194819197E+03  0.25500000000E-02 0.  1.
          2   -1    0    0  501    0  0.00000000000E+00 -0.00000000000E+00 -0.13664959204E+04  0.13664959204E+04  0.25500000000E-02 0. -1.
    8880023    1    1    2    0    0 -0.26327998355E+03 -0.15388142251E+03 -0.11651154541E+04  0.13726980985E+04  0.65864270000E+03 0. -1.
    8880022    1    1    2    0    0  0.26327998355E+03  0.15388142251E+03  0.20056772565E+03  0.39574601391E+03  0.15294330000E+03 0.  0.
<mgrwt>
<rscale>  0 0.60097627E+03</rscale>
<asrwt>0</asrwt>
<pdfrwt beam="1">  1        2 0.21023014E+00 0.72581406E+03</pdfrwt>
<pdfrwt beam="2">  1       -2 0.61838184E-01 0.72581406E+03</pdfrwt>
<totfact> 0.37601114E+01</totfact>
</mgrwt>
</event>
<event>
 4    2  0.2930016E-007  0.7211973E+03  0.7818608E-02  0.9918555E-01
          2   -1    0    0  501    0  0.00000000000E+00  0.00000000000E+00  0.29249934371E+04  0.29249934371E+04  0.25500000000E-02 0. -1.
         -2   -1    0    0    0  501 -0.00000000000E+00 -0.00000000000E+00 -0.13441383253E+03  0.13441383255E+03  0.25500000000E-02 0.  1.
    8880023    1    1    2    0    0  0.13260917374E+03  0.26216436586E+03  0.96881927391E+03  0.12077815777E+04  0.65864270000E+03 0.  0.
    8880022    1    1    2    0    0 -0.13260917374E+03 -0.26216436586E+03  0.18217603306E+04  0.18516256919E+04  0.15294330000E+03 0.  0.
<mgrwt>
<rscale>  0 0.59370385E+03</rscale>
<asrwt>0</asrwt>
<pdfrwt beam="1">  1        2 0.44999901E+00 0.72119731E+03</pdfrwt>
<pdfrwt beam="2">  1       -2 0.20679050E-01 0.72119731E+03</pdfrwt>
<totfact> 0.41286461E+01</totfact>
</mgrwt>
</event>
<event>
 4    2  0.2930016E-007  0.1247779E+04  0.7818608E-02  0.9112021E-01
          2   -1    0    0  501    0  0.00000000000E+00  0.00000000000E+00  0.16188083700E+04  0.16188083700E+04  0.25500000000E-02 0. -1.
         -2   -1    0    0    0  501 -0.00000000000E+00 -0.00000000000E+00 -0.11685464443E+04  0.11685464443E+04  0.25500000000E-02 0.  1.
    8880023    1    1    2    0    0  0.10417760628E+04 -0.19453987269E+03 -0.51104884536E+03  0.13483783800E+04  0.65864270000E+03 0.  1.
    8880022    1    1    2    0    0 -0.10417760628E+04  0.19453987269E+03  0.96131077102E+03  0.14389764343E+04  0.15294330000E+03 0.  0.
<mgrwt>
<rscale>  0 0.12009550E+04</rscale>
<asrwt>0</asrwt>
<pdfrwt beam="1">  1        2 0.24904744E+00 0.12477794E+04</pdfrwt>
<pdfrwt beam="2">  1       -2 0.17977638E+00 0.12477794E+04</pdfrwt>
<totfact> 0.19124457E+00</totfact>
</mgrwt>
</event>
<event>
 4    2  0.2930016E-007  0.1165290E+04  0.7818608E-02  0.9191624E-01
         -2   -1    0    0    0  501 -0.00000000000E+00  0.00000000000E+00  0.11657609768E+04  0.11657609768E+04  0.25500000000E-02 0.  1.
          2   -1    0    0  501    0  0.00000000000E+00 -0.00000000000E+00 -0.17297764137E+04  0.17297764137E+04  0.25500000000E-02 0. -1.
    8880023    1    1    2    0    0 -0.90125847999E+03 -0.33439983313E+03 -0.12467827511E+04  0.17065660055E+04  0.65864270000E+03 0. -1.
    8880022    1    1    2    0    0  0.90125847999E+03  0.33439983313E+03  0.68276731417E+03  0.11889713850E+04  0.15294330000E+03 0.  0.
<mgrwt>
<rscale>  0 0.11140298E+04</rscale>
<asrwt>0</asrwt>
<pdfrwt beam="1">  1        2 0.26611945E+00 0.11652898E+04</pdfrwt>
<pdfrwt beam="2">  1       -2 0.17934784E+00 0.11652898E+04</pdfrwt>
<totfact> 0.16853795E+00</totfact>
</mgrwt>
</event>
<event>
 4    2  0.2930016E-007  0.8393821E+03  0.7818608E-02  0.9631346E-01
         -2   -1    0    0    0  501 -0.00000000000E+00  0.00000000000E+00  0.45939807192E+03  0.45939807193E+03  0.25500000000E-02 0.  1.
          2   -1    0    0  501    0  0.00000000000E+00 -0.00000000000E+00 -0.14337373888E+04  0.14337373888E+04  0.25500000000E-02 0. -1.
    8880023    1    1    2    0    0  0.59963759522E+02 -0.51687181354E+03 -0.10513717383E+04  0.13453419128E+04  0.65864270000E+03 0.  0.
    8880022    1    1    2    0    0 -0.59963759522E+02  0.51687181354E+03  0.77032421468E+02  0.54779354785E+03  0.15294330000E+03 0.  0.
<mgrwt>
<rscale>  0 0.75255759E+03</rscale>
<asrwt>0</asrwt>
<pdfrwt beam="1">  1        2 0.22057498E+00 0.83938211E+03</pdfrwt>
<pdfrwt beam="2">  1       -2 0.70676627E-01 0.83938211E+03</pdfrwt>
<totfact> 0.25512055E+01</totfact>
</mgrwt>
</event>
<event>
 4    2  0.2930016E-007  0.7995436E+03  0.7818608E-02  0.9711784E-01
          2   -1    0    0  501    0  0.00000000000E+00  0.00000000000E+00  0.21404921933E+04  0.21404921933E+04  0.25500000000E-02 0. -1.
         -2   -1    0    0    0  501 -0.00000000000E+00 -0.00000000000E+00 -0.50950498135E+03  0.50950498136E+03  0.25500000000E-02 0.  1.
    8880023    1    1    2    0    0  0.32236612328E+03 -0.31865313348E+03  0.19277913715E+04  0.20870192896E+04  0.65864270000E+03 0.  0.
    8880022    1    1    2    0    0 -0.32236612328E+03  0.31865313348E+03 -0.29680415954E+03  0.56297788505E+03  0.15294330000E+03 0.  0.
<mgrwt>
<rscale>  0 0.70319504E+03</rscale>
<asrwt>0</asrwt>
<pdfrwt beam="1">  1        2 0.32930649E+00 0.79954358E+03</pdfrwt>
<pdfrwt beam="2">  1       -2 0.78385381E-01 0.79954358E+03</pdfrwt>
<totfact> 0.83225091E+00</totfact>
</mgrwt>
</event>
<event>
 4    2  0.2930016E-007  0.1250157E+04  0.7818608E-02  0.9109844E-01
         -2   -1    0    0    0  501 -0.00000000000E+00  0.00000000000E+00  0.13467998729E+04  0.13467998729E+04  0.25500000000E-02 0.  1.
          2   -1    0    0  501    0  0.00000000000E+00 -0.00000000000E+00 -0.16022747734E+04  0.16022747734E+04  0.25500000000E-02 0. -1.
    8880023    1    1    2    0    0  0.10611421499E+04 -0.55303268395E+02 -0.10344929488E+04  0.16226727893E+04  0.65864270000E+03 0.  0.
    8880022    1    1    2    0    0 -0.10611421499E+04  0.55303268395E+02  0.77901804821E+03  0.13264018570E+04  0.15294330000E+03 0.  0.
<mgrwt>
<rscale>  0 0.12034474E+04</rscale>
<asrwt>0</asrwt>
<pdfrwt beam="1">  1        2 0.24650381E+00 0.12501565E+04</pdfrwt>
<pdfrwt beam="2">  1       -2 0.20719998E+00 0.12501565E+04</pdfrwt>
<totfact> 0.12803846E+00</totfact>
</mgrwt>
</event>
<event>
 4    2  0.2930016E-007  0.7075078E+03  0.7818608E-02  0.9967375E-01
         -2   -1    0    0    0  501 -0.00000000000E+00  0.00000000000E+00  0.28175446373E+03  0.28175446374E+03  0.25500000000E-02 0.  1.
          2   -1    0    0  501    0  0.00000000000E+00 -0.00000000000E+00 -0.20011823995E+04  0.20011823995E+04  0.25500000000E-02 0. -1.
    8880023    1    1    2    0    0 -0.25232325119E+03  0.55587797993E+02 -0.18307583634E+04  0.19627132796E+04  0.65864270000E+03 0. -1.
    8880022    1    1    2    0    0  0.25232325119E+03 -0.55587797993E+02  0.11133042767E+03  0.32022358364E+03  0.15294330000E+03 0.  0.
<mgrwt>
<rscale>  0 0.57104236E+03</rscale>
<asrwt>0</asrwt>
<pdfrwt beam="1">  1        2 0.30787421E+00 0.70750776E+03</pdfrwt>
<pdfrwt beam="2">  1       -2 0.43346842E-01 0.70750776E+03</pdfrwt>
<totfact> 0.34932344E+01</totfact>
</mgrwt>
</event>
<event>
 4    2  0.2930016E-007  0.1033465E+04  0.7818608E-02  0.9339028E-01
         -2   -1    0    0    0  501 -0.00000000000E+00  0.00000000000E+00  0.11381172793E+04  0.11381172793E+04  0.25500000000E-02 0.  1.
          2   -1    0    0  501    0  0.00000000000E+00 -0.00000000000E+00 -0.10479977825E+04  0.10479977825E+04  0.25500000000E-02 0. -1.
    8880023    1    1    2    0    0 -0.19907041761E+03 -0.77111020824E+03 -0.53356428426E+03  0.11630739599E+04  0.65864270000E+03 0.  0.
    8880022    1    1    2    0    0  0.19907041761E+03  0.77111020824E+03  0.62368378107E+03  0.10230411019E+04  0.15294330000E+03 0.  0.
<mgrwt>
<rscale>  0 0.97267938E+03</rscale>
<asrwt>0</asrwt>
<pdfrwt beam="1">  1        2 0.16123043E+00 0.10334651E+04</pdfrwt>
<pdfrwt beam="2">  1       -2 0.17509497E+00 0.10334651E+04</pdfrwt>
<totfact> 0.45493608E+00</totfact>
</mgrwt>
</event>
<event>
 4    2  0.2930016E-007  0.7612532E+03  0.7818608E-02  0.9801874E-01
         -2   -1    0    0    0  501 -0.00000000000E+00  0.00000000000E+00  0.71788048094E+03  0.71788048094E+03  0.25500000000E-02 0.  1.
          2   -1    0    0  501    0  0.00000000000E+00 -0.00000000000E+00 -0.65449092154E+03  0.65449092154E+03  0.25500000000E-02 0. -1.
    8880023    1    1    2    0    0  0.10831689450E+03 -0.36601045487E+03 -0.30519769893E+03  0.82015367121E+03  0.65864270000E+03 0.  0.
    8880022    1    1    2    0    0 -0.10831689450E+03  0.36601045487E+03  0.36858725833E+03  0.55221773127E+03  0.15294330000E+03 0.  0.
<mgrwt>
<rscale>  0 0.65262077E+03</rscale>
<asrwt>0</asrwt>
<pdfrwt beam="1">  1        2 0.10069091E+00 0.76125318E+03</pdfrwt>
<pdfrwt beam="2">  1       -2 0.11044315E+00 0.76125318E+03</pdfrwt>
<totfact> 0.29359383E+01</totfact>
</mgrwt>
</event>
<event>
 4    2  0.2930016E-007  0.8647765E+03  0.7818608E-02  0.9585123E-01
         -2   -1    0    0    0  501 -0.00000000000E+00  0.00000000000E+00  0.32228933371E+03  0.32228933372E+03  0.25500000000E-02 0.  1.
          2   -1    0    0  501    0  0.00000000000E+00 -0.00000000000E+00 -0.20322295559E+04  0.20322295559E+04  0.25500000000E-02 0. -1.
    8880023    1    1    2    0    0 -0.45381258655E+03  0.32875873345E+03 -0.15101771266E+04  0.17402509384E+04  0.65864270000E+03 0.  0.
    8880022    1    1    2    0    0  0.45381258655E+03 -0.32875873345E+03 -0.19976309556E+03  0.61426795122E+03  0.15294330000E+03 0.  0.
<mgrwt>
<rscale>  0 0.78288727E+03</rscale>
<asrwt>0</asrwt>
<pdfrwt beam="1">  1        2 0.31265069E+00 0.86477649E+03</pdfrwt>
<pdfrwt beam="2">  1       -2 0.49582976E-01 0.86477649E+03</pdfrwt>
<totfact> 0.25150321E+01</totfact>
</mgrwt>
</event>
<event>
 4    2  0.2930016E-007  0.6682217E+03  0.7818608E-02  0.1016971E+00
          2   -1    0    0  501    0  0.00000000000E+00  0.00000000000E+00  0.34129920765E+03  0.34129920766E+03  0.25500000000E-02 0. -1.
         -2   -1    0    0    0  501 -0.00000000000E+00 -0.00000000000E+00 -0.16112921352E+04  0.16112921352E+04  0.25500000000E-02 0.  1.
    8880023    1    1    2    0    0  0.11152546340E+03 -0.16497293757E+02  0.24461515840E+00  0.66822178638E+03  0.65864270000E+03 0. -1.
    8880022    1    1    2    0    0 -0.11152546340E+03  0.16497293757E+02 -0.12702375427E+04  0.12843695565E+04  0.15294330000E+03 0.  0.
<mgrwt>
<rscale>  0 0.48795691E+03</rscale>
<asrwt>0</asrwt>
<pdfrwt beam="1">  1        2 0.52507571E-01 0.66822174E+03</pdfrwt>
<pdfrwt beam="2">  1       -2 0.24789109E+00 0.66822174E+03</pdfrwt>
<totfact> 0.65316239E+00</totfact>
</mgrwt>
</event>
<event>
 4    2  0.2930016E-007  0.6720403E+03  0.7818608E-02  0.1014241E+00
          2   -1    0    0  501    0  0.00000000000E+00  0.00000000000E+00  0.84351319906E+03  0.84351319907E+03  0.25500000000E-02 0. -1.
         -2   -1    0    0    0  501 -0.00000000000E+00 -0.00000000000E+00 -0.84387771002E+03  0.84387771003E+03  0.25500000000E-02 0.  1.
    8880023    1    1    2    0    0 -0.17800789997E+02 -0.13232923973E+03  0.69274384822E+03  0.96515912746E+03  0.65864270000E+03 0. -1.
    8880022    1    1    2    0    0  0.17800789997E+02  0.13232923973E+03 -0.69310835918E+03  0.72223178163E+03  0.15294330000E+03 0.  0.
<mgrwt>
<rscale>  0 0.49823516E+03</rscale>
<asrwt>0</asrwt>
<pdfrwt beam="1">  1        2 0.12977126E+00 0.67204025E+03</pdfrwt>
<pdfrwt beam="2">  1       -2 0.12982734E+00 0.67204025E+03</pdfrwt>
<totfact> 0.14317596E+01</totfact>
</mgrwt>
</event>
<event>
 4    2  0.2930016E-007  0.8346046E+03  0.7818608E-02  0.9640439E-01
          2   -1    0    0  501    0  0.00000000000E+00  0.00000000000E+00  0.20042277841E+04  0.20042277841E+04  0.25500000000E-02 0. -1.
         -2   -1    0    0    0  501 -0.00000000000E+00 -0.00000000000E+00 -0.30832345811E+03  0.30832345812E+03  0.25500000000E-02 0.  1.
    8880023    1    1    2    0    0  0.38694639231E+03 -0.33619510680E+03  0.15462005096E+04  0.17570716782E+04  0.65864270000E+03 0.  0.
    8880022    1    1    2    0    0 -0.38694639231E+03  0.33619510680E+03  0.14970381644E+03  0.55547956401E+03  0.15294330000E+03 0.  0.
<mgrwt>
<rscale>  0 0.74676526E+03</rscale>
<asrwt>0</asrwt>
<pdfrwt beam="1">  1        2 0.30834273E+00 0.83460462E+03</pdfrwt>
<pdfrwt beam="2">  1       -2 0.47434379E-01 0.83460462E+03</pdfrwt>
<totfact> 0.28604842E+01</totfact>
</mgrwt>
</event>
<event>
 4    2  0.2930016E-007  0.6795829E+03  0.7818608E-02  0.1009561E+00
          2   -1    0    0  501    0  0.00000000000E+00  0.00000000000E+00  0.19943423863E+04  0.19943423863E+04  0.25500000000E-02 0. -1.
         -2   -1    0    0    0  501 -0.00000000000E+00 -0.00000000000E+00 -0.27436133337E+03  0.27436133338E+03  0.25500000000E-02 0.  1.
    8880023    1    1    2    0    0 -0.14902794890E+03  0.76245176645E+02  0.18747835140E+04  0.19941529749E+04  0.65864270000E+03 0. -1.
    8880022    1    1    2    0    0  0.14902794890E+03 -0.76245176645E+02 -0.15480246106E+03  0.27455074482E+03  0.15294330000E+03 0.  0.
<mgrwt>
<rscale>  0 0.51649642E+03</rscale>
<asrwt>0</asrwt>
<pdfrwt beam="1">  1        2 0.30682191E+00 0.67958286E+03</pdfrwt>
<pdfrwt beam="2">  1       -2 0.42209435E-01 0.67958286E+03</pdfrwt>
<totfact> 0.37274004E+01</totfact>
</mgrwt>
</event>
<event>
 4    2  0.2930016E-007  0.7028591E+03  0.7818608E-02  0.9985541E-01
         -2   -1    0    0    0  501 -0.00000000000E+00  0.00000000000E+00  0.13198536562E+04  0.13198536562E+04  0.25500000000E-02 0.  1.
          2   -1    0    0  501    0  0.00000000000E+00 -0.00000000000E+00 -0.65903641485E+03  0.65903641485E+03  0.25500000000E-02 0. -1.
    8880023    1    1    2    0    0  0.16252060946E+03 -0.18381455133E+03 -0.44766952139E+03  0.83331803318E+03  0.65864270000E+03 0. -1.
    8880022    1    1    2    0    0 -0.16252060946E+03  0.18381455133E+03  0.11084867628E+04  0.11455720379E+04  0.15294330000E+03 0.  0.
<mgrwt>
<rscale>  0 0.56288809E+03</rscale>
<asrwt>0</asrwt>
<pdfrwt beam="1">  1        2 0.10139022E+00 0.70285912E+03</pdfrwt>
<pdfrwt beam="2">  1       -2 0.20305441E+00 0.70285912E+03</pdfrwt>
<totfact> 0.57672521E+00</totfact>
</mgrwt>
</event>
<event>
 4    2  0.2930016E-007  0.7409288E+03  0.7818608E-02  0.9857250E-01
          2   -1    0    0  501    0  0.00000000000E+00  0.00000000000E+00  0.25194630077E+04  0.25194630077E+04  0.25500000000E-02 0. -1.
         -2   -1    0    0    0  501 -0.00000000000E+00 -0.00000000000E+00 -0.19846497685E+03  0.19846497687E+03  0.25500000000E-02 0.  1.
    8880023    1    1    2    0    0  0.73419807687E+02  0.33132274786E+03  0.22078822892E+04  0.23288880696E+04  0.65864270000E+03 0.  0.
    8880022    1    1    2    0    0 -0.73419807687E+02 -0.33132274786E+03  0.11311574162E+03  0.38903991496E+03  0.15294330000E+03 0.  0.
<mgrwt>
<rscale>  0 0.62378633E+03</rscale>
<asrwt>0</asrwt>
<pdfrwt beam="1">  1        2 0.38760969E+00 0.74092877E+03</pdfrwt>
<pdfrwt beam="2">  1       -2 0.30533074E-01 0.74092877E+03</pdfrwt>
<totfact> 0.35137774E+01</totfact>
</mgrwt>
</event>
<event>
 4    2  0.2930016E-007  0.7328953E+03  0.7818608E-02  0.9881148E-01
         -2   -1    0    0    0  501 -0.00000000000E+00  0.00000000000E+00  0.40538486703E+03  0.40538486704E+03  0.25500000000E-02 0.  1.
          2   -1    0    0  501    0  0.00000000000E+00 -0.00000000000E+00 -0.15483099567E+04  0.15483099567E+04  0.25500000000E-02 0. -1.
    8880023    1    1    2    0    0 -0.31695673927E+03  0.53514209952E+02 -0.13541586102E+04  0.15397665710E+04  0.65864270000E+03 0. -1.
    8880022    1    1    2    0    0  0.31695673927E+03 -0.53514209952E+02  0.21123352053E+03  0.41392825278E+03  0.15294330000E+03 0.  0.
<mgrwt>
<rscale>  0 0.61183712E+03</rscale>
<asrwt>0</asrwt>
<pdfrwt beam="1">  1        2 0.23820153E+00 0.73289532E+03</pdfrwt>
<pdfrwt beam="2">  1       -2 0.62366903E-01 0.73289532E+03</pdfrwt>
<totfact> 0.29185495E+01</totfact>
</mgrwt>
</event>
<event>
 4    2  0.2930016E-007  0.1134569E+04  0.7818608E-02  0.9223510E-01
          2   -1    0    0  501    0  0.00000000000E+00  0.00000000000E+00  0.12256594617E+04  0.12256594617E+04  0.25500000000E-02 0. -1.
         -2   -1    0    0    0  501 -0.00000000000E+00 -0.00000000000E+00 -0.11618086460E+04  0.11618086460E+04  0.25500000000E-02 0.  1.
    8880023    1    1    2    0    0  0.71492493340E+03  0.58508038436E+03  0.62548487066E+03  0.12955609774E+04  0.65864270000E+03 0.  0.
    8880022    1    1    2    0    0 -0.71492493340E+03 -0.58508038436E+03 -0.56163405493E+03  0.10919071303E+04  0.15294330000E+03 0.  0.
<mgrwt>
<rscale>  0 0.10814029E+04</rscale>
<asrwt>0</asrwt>
<pdfrwt beam="1">  1        2 0.18856299E+00 0.11345690E+04</pdfrwt>
<pdfrwt beam="2">  1       -2 0.17873979E+00 0.11345690E+04</pdfrwt>
<totfact> 0.33066293E+00</totfact>
</mgrwt>
</event>
<event>
 4    2  0.2930016E-007  0.7030968E+03  0.7818608E-02  0.9984589E-01
         -2   -1    0    0    0  501 -0.00000000000E+00  0.00000000000E+00  0.62866714789E+03  0.62866714790E+03  0.25500000000E-02 0.  1.
          2   -1    0    0  501    0  0.00000000000E+00 -0.00000000000E+00 -0.41737924659E+03  0.41737924660E+03  0.25500000000E-02 0. -1.
    8880023    1    1    2    0    0 -0.95752503682E+02  0.22664158870E+03  0.28853719287E+02  0.70368863503E+03  0.65864270000E+03 0. -1.
    8880022    1    1    2    0    0  0.95752503682E+02 -0.22664158870E+03  0.18243418202E+03  0.34235775947E+03  0.15294330000E+03 0.  1.
<mgrwt>
<rscale>  0 0.56331175E+03</rscale>
<asrwt>0</asrwt>
<pdfrwt beam="1">  1        2 0.64212192E-01 0.70309683E+03</pdfrwt>
<pdfrwt beam="2">  1       -2 0.96718023E-01 0.70309683E+03</pdfrwt>
<totfact> 0.68653087E+01</totfact>
</mgrwt>
</event>
<event>
 4    2  0.2930016E-007  0.7584525E+03  0.7818608E-02  0.9809130E-01
         -2   -1    0    0    0  501 -0.00000000000E+00  0.00000000000E+00  0.35150784685E+03  0.35150784685E+03  0.25500000000E-02 0.  1.
          2   -1    0    0  501    0  0.00000000000E+00 -0.00000000000E+00 -0.13258918989E+04  0.13258918989E+04  0.25500000000E-02 0. -1.
    8880023    1    1    2    0    0 -0.12923598264E+03 -0.35318283267E+03 -0.10175495936E+04  0.12691167930E+04  0.65864270000E+03 0. -1.
    8880022    1    1    2    0    0  0.12923598264E+03  0.35318283267E+03  0.43165541605E+02  0.40828295274E+03  0.15294330000E+03 0.  0.
<mgrwt>
<rscale>  0 0.64874855E+03</rscale>
<asrwt>0</asrwt>
<pdfrwt beam="1">  1        2 0.20398337E+00 0.75845254E+03</pdfrwt>
<pdfrwt beam="2">  1       -2 0.54078131E-01 0.75845254E+03</pdfrwt>
<totfact> 0.52358603E+01</totfact>
</mgrwt>
</event>
<event>
 4    2  0.2930016E-007  0.8096481E+03  0.7818608E-02  0.9690310E-01
         -2   -1    0    0    0  501 -0.00000000000E+00  0.00000000000E+00  0.22313224693E+03  0.22313224695E+03  0.25500000000E-02 0.  1.
          2   -1    0    0  501    0  0.00000000000E+00 -0.00000000000E+00 -0.22198304324E+04  0.22198304324E+04  0.25500000000E-02 0. -1.
    8880023    1    1    2    0    0 -0.83542580410E+02  0.46340094901E+03 -0.16518790140E+04  0.18396288445E+04  0.65864270000E+03 0.  0.
    8880022    1    1    2    0    0  0.83542580410E+02 -0.46340094901E+03 -0.34481917149E+03  0.60333383489E+03  0.15294330000E+03 0.  0.
<mgrwt>
<rscale>  0 0.71596644E+03</rscale>
<asrwt>0</asrwt>
<pdfrwt beam="1">  1        2 0.34151236E+00 0.80964808E+03</pdfrwt>
<pdfrwt beam="2">  1       -2 0.34328040E-01 0.80964808E+03</pdfrwt>
<totfact> 0.41113761E+01</totfact>
</mgrwt>
</event>
<event>
 4    2  0.2930016E-007  0.6894170E+03  0.7818608E-02  0.1004431E+00
         -2   -1    0    0    0  501 -0.00000000000E+00  0.00000000000E+00  0.13127392002E+04  0.13127392002E+04  0.25500000000E-02 0.  1.
          2   -1    0    0  501    0  0.00000000000E+00 -0.00000000000E+00 -0.53238954036E+03  0.53238954037E+03  0.25500000000E-02 0. -1.
    8880023    1    1    2    0    0  0.15858006266E+03  0.12781987072E+03 -0.28776509350E+03  0.74706392693E+03  0.65864270000E+03 0. -1.
    8880022    1    1    2    0    0 -0.15858006266E+03 -0.12781987072E+03  0.10681147533E+04  0.10980648136E+04  0.15294330000E+03 0.  0.
<mgrwt>
<rscale>  0 0.53749323E+03</rscale>
<asrwt>0</asrwt>
<pdfrwt beam="1">  1        2 0.81906085E-01 0.68941697E+03</pdfrwt>
<pdfrwt beam="2">  1       -2 0.20195987E+00 0.68941697E+03</pdfrwt>
<totfact> 0.75893125E+00</totfact>
</mgrwt>
</event>
<event>
 4    2  0.2930016E-007  0.7781626E+03  0.7818608E-02  0.9760171E-01
         -2   -1    0    0    0  501 -0.00000000000E+00  0.00000000000E+00  0.43381462424E+03  0.43381462424E+03  0.25500000000E-02 0.  1.
          2   -1    0    0  501    0  0.00000000000E+00 -0.00000000000E+00 -0.95158356100E+03  0.95158356100E+03  0.25500000000E-02 0. -1.
    8880023    1    1    2    0    0 -0.38238346778E+03  0.15971735738E+03 -0.53335616816E+03  0.94340116549E+03  0.65864270000E+03 0.  0.
    8880022    1    1    2    0    0  0.38238346778E+03 -0.15971735738E+03  0.15587231392E+02  0.44199701976E+03  0.15294330000E+03 0.  0.
<mgrwt>
<rscale>  0 0.67544505E+03</rscale>
<asrwt>0</asrwt>
<pdfrwt beam="1">  1        2 0.14639747E+00 0.77816255E+03</pdfrwt>
<pdfrwt beam="2">  1       -2 0.66740712E-01 0.77816255E+03</pdfrwt>
<totfact> 0.56547202E+01</totfact>
</mgrwt>
</event>
<event>
 4    2  0.2930016E-007  0.7949900E+03  0.7818608E-02  0.9721735E-01
          2   -1    0    0  501    0  0.00000000000E+00  0.00000000000E+00  0.30147884805E+03  0.30147884806E+03  0.25500000000E-02 0. -1.
         -2   -1    0    0    0  501 -0.00000000000E+00 -0.00000000000E+00 -0.19292123126E+04  0.19292123126E+04  0.25500000000E-02 0.  1.
    8880023    1    1    2    0    0  0.38422609586E+02 -0.44353427931E+03 -0.34929339549E+03  0.86834039192E+03  0.65864270000E+03 0. -1.
    8880022    1    1    2    0    0 -0.38422609586E+02  0.44353427931E+03 -0.12784400691E+04  0.13623507687E+04  0.15294330000E+03 0.  0.
<mgrwt>
<rscale>  0 0.69737309E+03</rscale>
<asrwt>0</asrwt>
<pdfrwt beam="1">  1        2 0.46381362E-01 0.79499004E+03</pdfrwt>
<pdfrwt beam="2">  1       -2 0.29680189E+00 0.79499004E+03</pdfrwt>
<totfact> 0.37490540E+00</totfact>
</mgrwt>
</event>
<event>
 4    2  0.2930016E-007  0.8747813E+03  0.7818608E-02  0.9567793E-01
         -2   -1    0    0    0  501 -0.00000000000E+00  0.00000000000E+00  0.30548441618E+03  0.30548441619E+03  0.25500000000E-02 0.  1.
          2   -1    0    0  501    0  0.00000000000E+00 -0.00000000000E+00 -0.52206264523E+04  0.52206264523E+04  0.25500000000E-02 0. -1.
    8880023    1    1    2    0    0  0.37773045577E+03  0.43445577034E+03 -0.48484316646E+04  0.49267161402E+04  0.65864270000E+03 0.  0.
    8880022    1    1    2    0    0 -0.37773045577E+03 -0.43445577034E+03 -0.66710371513E+02  0.59939472827E+03  0.15294330000E+03 0.  0.
<mgrwt>
<rscale>  0 0.79465058E+03</rscale>
<asrwt>0</asrwt>
<pdfrwt beam="1">  1        2 0.80317324E+00 0.87478130E+03</pdfrwt>
<pdfrwt beam="2">  1       -2 0.46997606E-01 0.87478130E+03</pdfrwt>
<totfact> 0.85570555E-02</totfact>
</mgrwt>
</event>
<event>
 4    2  0.2930016E-007  0.9170910E+03  0.7818608E-02  0.9499134E-01
          2   -1    0    0  501    0  0.00000000000E+00  0.00000000000E+00  0.97325277821E+03  0.97325277821E+03  0.25500000000E-02 0. -1.
         -2   -1    0    0    0  501 -0.00000000000E+00 -0.00000000000E+00 -0.10038006037E+04  0.10038006037E+04  0.25500000000E-02 0.  1.
    8880023    1    1    2    0    0  0.44967136684E+03  0.45281498212E+03  0.57638845721E+03  0.10831803202E+04  0.65864270000E+03 0. -1.
    8880022    1    1    2    0    0 -0.44967136684E+03 -0.45281498212E+03 -0.60693628268E+03  0.89387306170E+03  0.15294330000E+03 0.  0.
<mgrwt>
<rscale>  0 0.84347711E+03</rscale>
<asrwt>0</asrwt>
<pdfrwt beam="1">  1        2 0.14973120E+00 0.91709103E+03</pdfrwt>
<pdfrwt beam="2">  1       -2 0.15443086E+00 0.91709103E+03</pdfrwt>
<totfact> 0.72626921E+00</totfact>
</mgrwt>
</event>
<event>
 4    2  0.2930016E-007  0.6667889E+03  0.7818608E-02  0.1018077E+00
          2   -1    0    0  501    0  0.00000000000E+00  0.00000000000E+00  0.12400103965E+04  0.12400103965E+04  0.25500000000E-02 0. -1.
         -2   -1    0    0    0  501 -0.00000000000E+00 -0.00000000000E+00 -0.14937701874E+03  0.14937701876E+03  0.25500000000E-02 0.  1.
    8880023    1    1    2    0    0  0.47632934421E+02  0.92349254748E+02  0.93074500636E+03  0.11449426861E+04  0.65864270000E+03 0.  0.
    8880022    1    1    2    0    0 -0.47632934421E+02 -0.92349254748E+02  0.15988837137E+03  0.24444472915E+03  0.15294330000E+03 0. -1.
<mgrwt>
<rscale>  0 0.48386809E+03</rscale>
<asrwt>0</asrwt>
<pdfrwt beam="1">  1        2 0.19077082E+00 0.66678894E+03</pdfrwt>
<pdfrwt beam="2">  1       -2 0.22981081E-01 0.66678894E+03</pdfrwt>
<totfact> 0.30358374E+02</totfact>
</mgrwt>
</event>
<event>
 4    2  0.2930016E-007  0.6688124E+03  0.7818608E-02  0.1016529E+00
         -2   -1    0    0    0  501 -0.00000000000E+00  0.00000000000E+00  0.44829263794E+03  0.44829263795E+03  0.25500000000E-02 0.  1.
          2   -1    0    0  501    0  0.00000000000E+00 -0.00000000000E+00 -0.11659914641E+04  0.11659914641E+04  0.25500000000E-02 0. -1.
    8880023    1    1    2    0    0  0.11056166695E+03 -0.35719846409E+02 -0.10415289570E+04  0.12377772676E+04  0.65864270000E+03 0. -1.
    8880022    1    1    2    0    0 -0.11056166695E+03  0.35719846409E+02  0.32383013093E+03  0.37650683438E+03  0.15294330000E+03 0.  0.
<mgrwt>
<rscale>  0 0.48960284E+03</rscale>
<asrwt>0</asrwt>
<pdfrwt beam="1">  1        2 0.17938330E+00 0.66881238E+03</pdfrwt>
<pdfrwt beam="2">  1       -2 0.68968099E-01 0.66881238E+03</pdfrwt>
<totfact> 0.39131761E+01</totfact>
</mgrwt>
</event>
<event>
 4    2  0.2930016E-007  0.7711762E+03  0.7818608E-02  0.9776988E-01
          2   -1    0    0  501    0  0.00000000000E+00  0.00000000000E+00  0.36425811687E+03  0.36425811688E+03  0.25500000000E-02 0. -1.
         -2   -1    0    0    0  501 -0.00000000000E+00 -0.00000000000E+00 -0.10493044999E+04  0.10493044999E+04  0.25500000000E-02 0.  1.
    8880023    1    1    2    0    0 -0.29303574080E+02 -0.40005471472E+03 -0.27175673794E+03  0.81765787778E+03  0.65864270000E+03 0. -1.
    8880022    1    1    2    0    0  0.29303574080E+02  0.40005471472E+03 -0.41328964512E+03  0.59590473903E+03  0.15294330000E+03 0.  1.
<mgrwt>
<rscale>  0 0.66612255E+03</rscale>
<asrwt>0</asrwt>
<pdfrwt beam="1">  1        2 0.56039711E-01 0.77117617E+03</pdfrwt>
<pdfrwt beam="2">  1       -2 0.16143146E+00 0.77117617E+03</pdfrwt>
<totfact> 0.21977668E+01</totfact>
</mgrwt>
</event>
<event>
 4    2  0.2930016E-007  0.1070916E+04  0.7818608E-02  0.9294150E-01
         -2   -1    0    0    0  501 -0.00000000000E+00  0.00000000000E+00  0.48930436991E+03  0.48930436992E+03  0.25500000000E-02 0.  1.
          2   -1    0    0  501    0  0.00000000000E+00 -0.00000000000E+00 -0.24595563691E+04  0.24595563691E+04  0.25500000000E-02 0. -1.
    8880023    1    1    2    0    0  0.79505484936E+03  0.28449661835E+03 -0.37000665856E+03  0.11330338358E+04  0.65864270000E+03 0.  0.
    8880022    1    1    2    0    0 -0.79505484936E+03 -0.28449661835E+03 -0.16002453406E+04  0.18158269032E+04  0.15294330000E+03 0.  0.
<mgrwt>
<rscale>  0 0.10132319E+04</rscale>
<asrwt>0</asrwt>
<pdfrwt beam="1">  1        2 0.37839328E+00 0.10709158E+04</pdfrwt>
<pdfrwt beam="2">  1       -2 0.75277597E-01 0.10709158E+04</pdfrwt>
<totfact> 0.58243803E+00</totfact>
</mgrwt>
</event>
<event>
 4    2  0.2930016E-007  0.9036144E+03  0.7818608E-02  0.9520254E-01
         -2   -1    0    0    0  501 -0.00000000000E+00  0.00000000000E+00  0.66361637345E+03  0.66361637346E+03  0.25500000000E-02 0.  1.
          2   -1    0    0  501    0  0.00000000000E+00 -0.00000000000E+00 -0.17961980841E+04  0.17961980841E+04  0.25500000000E-02 0. -1.
    8880023    1    1    2    0    0 -0.13275537443E+03  0.60422245891E+03  0.24989534121E+03  0.93753221657E+03  0.65864270000E+03 0.  0.
    8880022    1    1    2    0    0  0.13275537443E+03 -0.60422245891E+03 -0.13824770518E+04  0.15222822410E+04  0.15294330000E+03 0.  0.
<mgrwt>
<rscale>  0 0.82806902E+03</rscale>
<asrwt>0</asrwt>
<pdfrwt beam="1">  1        2 0.27633816E+00 0.90361440E+03</pdfrwt>
<pdfrwt beam="2">  1       -2 0.10209483E+00 0.90361440E+03</pdfrwt>
<totfact> 0.68810056E+00</totfact>
</mgrwt>
</event>
<event>
 4    2  0.2930016E-007  0.6658740E+03  0.7818608E-02  0.1018811E+00
          2   -1    0    0  501    0  0.00000000000E+00  0.00000000000E+00  0.17302283608E+04  0.17302283608E+04  0.25500000000E-02 0. -1.
         -2   -1    0    0    0  501 -0.00000000000E+00 -0.00000000000E+00 -0.13405032248E+03  0.13405032250E+03  0.25500000000E-02 0.  1.
    8880023    1    1    2    0    0  0.83311707578E+02 -0.51352531423E+02  0.15341100744E+04  0.16723880679E+04  0.65864270000E+03 0. -1.
    8880022    1    1    2    0    0 -0.83311707578E+02  0.51352531423E+02  0.62067963893E+02  0.19189061535E+03  0.15294330000E+03 0.  1.
<mgrwt>
<rscale>  0 0.48118069E+03</rscale>
<asrwt>0</asrwt>
<pdfrwt beam="1">  1        2 0.26618896E+00 0.66587396E+03</pdfrwt>
<pdfrwt beam="2">  1       -2 0.20623128E-01 0.66587396E+03</pdfrwt>
<totfact> 0.19572034E+02</totfact>
</mgrwt>
</event>
<event>
 4    2  0.2930016E-007  0.6645021E+03  0.7818608E-02  0.1019955E+00
          2   -1    0    0  501    0  0.00000000000E+00  0.00000000000E+00  0.28594556053E+04  0.28594556053E+04  0.25500000000E-02 0. -1.
         -2   -1    0    0    0  501 -0.00000000000E+00 -0.00000000000E+00 -0.78522366146E+02  0.78522366188E+02  0.25500000000E-02 0.  1.
    8880023    1    1    2    0    0  0.87938590515E+02  0.44360600347E+01  0.26063912438E+04  0.26897654910E+04  0.65864270000E+03 0.  0.
    8880022    1    1    2    0    0 -0.87938590515E+02 -0.44360600347E+01  0.17454199533E+03  0.24821248051E+03  0.15294330000E+03 0.  1.
<mgrwt>
<rscale>  0 0.47702924E+03</rscale>
<asrwt>0</asrwt>
<pdfrwt beam="1">  1        2 0.43991626E+00 0.66450213E+03</pdfrwt>
<pdfrwt beam="2">  1       -2 0.12080364E-01 0.66450213E+03</pdfrwt>
<totfact> 0.11368819E+02</totfact>
</mgrwt>
</event>
<event>
 4    2  0.2930016E-007  0.6756044E+03  0.7818608E-02  0.1011928E+00
          2   -1    0    0  501    0  0.00000000000E+00  0.00000000000E+00  0.14660809098E+04  0.14660809098E+04  0.25500000000E-02 0. -1.
         -2   -1    0    0    0  501 -0.00000000000E+00 -0.00000000000E+00 -0.27856469121E+03  0.27856469122E+03  0.25500000000E-02 0.  1.
    8880023    1    1    2    0    0 -0.84762610625E+02  0.12428330150E+03  0.13267732457E+04  0.14888816242E+04  0.65864270000E+03 0. -1.
    8880022    1    1    2    0    0  0.84762610625E+02 -0.12428330150E+03 -0.13925702713E+03  0.25576397677E+03  0.15294330000E+03 0.  0.
<mgrwt>
<rscale>  0 0.50715514E+03</rscale>
<asrwt>0</asrwt>
<pdfrwt beam="1">  1        2 0.22555091E+00 0.67560436E+03</pdfrwt>
<pdfrwt beam="2">  1       -2 0.42856106E-01 0.67560436E+03</pdfrwt>
<totfact> 0.70374266E+01</totfact>
</mgrwt>
</event>
<event>
 4    2  0.2930016E-007  0.8480260E+03  0.7818608E-02  0.9615228E-01
         -2   -1    0    0    0  501 -0.00000000000E+00  0.00000000000E+00  0.12409860197E+04  0.12409860197E+04  0.25500000000E-02 0.  1.
          2   -1    0    0  501    0  0.00000000000E+00 -0.00000000000E+00 -0.11320434027E+04  0.11320434027E+04  0.25500000000E-02 0. -1.
    8880023    1    1    2    0    0  0.23141448832E+03  0.48144079178E+03 -0.89039305199E+03  0.12296129044E+04  0.65864270000E+03 0. -1.
    8880022    1    1    2    0    0 -0.23141448832E+03 -0.48144079178E+03  0.99933566901E+03  0.11434165181E+04  0.15294330000E+03 0.  0.
<mgrwt>
<rscale>  0 0.76296419E+03</rscale>
<asrwt>0</asrwt>
<pdfrwt beam="1">  1        2 0.17416052E+00 0.84802601E+03</pdfrwt>
<pdfrwt beam="2">  1       -2 0.19092093E+00 0.84802601E+03</pdfrwt>
<totfact> 0.32146423E+00</totfact>
</mgrwt>
</event>
<event>
 4    2  0.3315464E-007  0.7178169E+03  0.7818608E-02  0.9930043E-01
          2   -1    0    0  501    0  0.00000000000E+00  0.00000000000E+00  0.95824162561E+03  0.95824162561E+03  0.25500000000E-02 0. -1.
         -2   -1    0    0    0  501 -0.00000000000E+00 -0.00000000000E+00 -0.15417971171E+04  0.15417971171E+04  0.25500000000E-02 0.  1.
    8880023    1    1    2    0    0  0.21436023334E+03  0.18841602855E+03  0.80248392080E+03  0.10766808064E+04  0.65864270000E+03 0. -1.
    8880022    1    1    2    0    0 -0.21436023334E+03 -0.18841602855E+03 -0.13860394123E+04  0.14233579364E+04  0.15294330000E+03 0.  0.
<mgrwt>
<rscale>  0 0.58827104E+03</rscale>
<asrwt>0</asrwt>
<pdfrwt beam="1">  1        2 0.14742179E+00 0.71781691E+03</pdfrwt>
<pdfrwt beam="2">  1       -2 0.23719956E+00 0.71781691E+03</pdfrwt>
<totfact> 0.21419769E+00</totfact>
</mgrwt>
</event>
<event>
 4    2  0.2930016E-007  0.7922376E+03  0.7818608E-02  0.9727838E-01
         -2   -1    0    0    0  501 -0.00000000000E+00  0.00000000000E+00  0.50526615858E+03  0.50526615858E+03  0.25500000000E-02 0.  1.
          2   -1    0    0  501    0  0.00000000000E+00 -0.00000000000E+00 -0.20041412766E+04  0.20041412766E+04  0.25500000000E-02 0. -1.
    8880023    1    1    2    0    0 -0.43885139856E+03  0.35208239725E+02 -0.17916613494E+04  0.19590024929E+04  0.65864270000E+03 0.  0.
    8880022    1    1    2    0    0  0.43885139856E+03 -0.35208239725E+02  0.29278623136E+03  0.55040494225E+03  0.15294330000E+03 0.  0.
<mgrwt>
<rscale>  0 0.69383229E+03</rscale>
<asrwt>0</asrwt>
<pdfrwt beam="1">  1        2 0.30832942E+00 0.79223758E+03</pdfrwt>
<pdfrwt beam="2">  1       -2 0.77733256E-01 0.79223758E+03</pdfrwt>
<totfact> 0.10083554E+01</totfact>
</mgrwt>
</event>
<event>
 4    2  0.2930016E-007  0.7046685E+03  0.7818608E-02  0.9978359E-01
          2   -1    0    0  501    0  0.00000000000E+00  0.00000000000E+00  0.44936200835E+03  0.44936200836E+03  0.25500000000E-02 0. -1.
         -2   -1    0    0    0  501 -0.00000000000E+00 -0.00000000000E+00 -0.10056929857E+04  0.10056929857E+04  0.25500000000E-02 0.  1.
    8880023    1    1    2    0    0 -0.22268129686E+03 -0.11471905970E+03  0.12273591179E+03  0.71527738182E+03  0.65864270000E+03 0. -1.
    8880022    1    1    2    0    0  0.22268129686E+03  0.11471905970E+03 -0.67906688919E+03  0.73977761229E+03  0.15294330000E+03 0.  0.
<mgrwt>
<rscale>  0 0.56609413E+03</rscale>
<asrwt>0</asrwt>
<pdfrwt beam="1">  1        2 0.69132617E-01 0.70466845E+03</pdfrwt>
<pdfrwt beam="2">  1       -2 0.15472200E+00 0.70466845E+03</pdfrwt>
<totfact> 0.19556225E+01</totfact>
</mgrwt>
</event>
<event>
 4    2  0.2930016E-007  0.9054296E+03  0.7818608E-02  0.9517371E-01
         -2   -1    0    0    0  501 -0.00000000000E+00  0.00000000000E+00  0.23943258903E+03  0.23943258904E+03  0.25500000000E-02 0.  1.
          2   -1    0    0  501    0  0.00000000000E+00 -0.00000000000E+00 -0.38179636724E+04  0.38179636725E+04  0.25500000000E-02 0. -1.
    8880023    1    1    2    0    0 -0.35968404393E+03  0.50657677501E+03 -0.31735106997E+04  0.33001474222E+04  0.65864270000E+03 0.  0.
    8880022    1    1    2    0    0  0.35968404393E+03 -0.50657677501E+03 -0.40502038369E+03  0.75724883932E+03  0.15294330000E+03 0.  0.
<mgrwt>
<rscale>  0 0.83015164E+03</rscale>
<asrwt>0</asrwt>
<pdfrwt beam="1">  1        2 0.58737898E+00 0.90542965E+03</pdfrwt>
<pdfrwt beam="2">  1       -2 0.36835786E-01 0.90542965E+03</pdfrwt>
<totfact> 0.35178053E+00</totfact>
</mgrwt>
</event>
<event>
 4    2  0.2930016E-007  0.7179624E+03  0.7818608E-02  0.9929542E-01
         -2   -1    0    0    0  501 -0.00000000000E+00  0.00000000000E+00  0.37988306140E+03  0.37988306141E+03  0.25500000000E-02 0.  1.
          2   -1    0    0  501    0  0.00000000000E+00 -0.00000000000E+00 -0.14595254291E+04  0.14595254291E+04  0.25500000000E-02 0. -1.
    8880023    1    1    2    0    0  0.28094661589E+03  0.52238335433E+02 -0.12733557511E+04  0.14618156244E+04  0.65864270000E+03 0. -1.
    8880022    1    1    2    0    0 -0.28094661589E+03 -0.52238335433E+02  0.19371338334E+03  0.37759286615E+03  0.15294330000E+03 0.  0.
<mgrwt>
<rscale>  0 0.58850691E+03</rscale>
<asrwt>0</asrwt>
<pdfrwt beam="1">  1        2 0.22454237E+00 0.71796243E+03</pdfrwt>
<pdfrwt beam="2">  1       -2 0.58443548E-01 0.71796243E+03</pdfrwt>
<totfact> 0.37578453E+01</totfact>
</mgrwt>
</event>
<event>
 4    2  0.3475871E-007  0.7018690E+03  0.7818608E-02  0.9989534E-01
         -2   -1    0    0    0  501 -0.00000000000E+00  0.00000000000E+00  0.66580662822E+03  0.66580662823E+03  0.25500000000E-02 0.  1.
          2   -1    0    0  501    0  0.00000000000E+00 -0.00000000000E+00 -0.19924923994E+04  0.19924923994E+04  0.25500000000E-02 0. -1.
    8880023    1    1    2    0    0 -0.10895830760E+03  0.21665186616E+03 -0.18955223979E+04  0.20212929800E+04  0.65864270000E+03 0.  0.
    8880022    1    1    2    0    0  0.10895830760E+03 -0.21665186616E+03  0.56883662666E+03  0.63700604766E+03  0.15294330000E+03 0.  1.
<mgrwt>
<rscale>  0 0.56111528E+03</rscale>
<asrwt>0</asrwt>
<pdfrwt beam="1">  1        2 0.30653729E+00 0.70186904E+03</pdfrwt>
<pdfrwt beam="2">  1       -2 0.10243179E+00 0.70186904E+03</pdfrwt>
<totfact> 0.54949176E+00</totfact>
</mgrwt>
</event>
<event>
 4    2  0.2930016E-007  0.7876554E+03  0.7818608E-02  0.9738152E-01
          2   -1    0    0  501    0  0.00000000000E+00  0.00000000000E+00  0.77900975496E+03  0.77900975497E+03  0.25500000000E-02 0. -1.
         -2   -1    0    0    0  501 -0.00000000000E+00 -0.00000000000E+00 -0.60736733455E+03  0.60736733456E+03  0.25500000000E-02 0.  1.
    8880023    1    1    2    0    0  0.11572816111E+03 -0.41617036486E+03  0.38983071942E+03  0.87884525141E+03  0.65864270000E+03 0.  0.
    8880022    1    1    2    0    0 -0.11572816111E+03  0.41617036486E+03 -0.21818829901E+03  0.50753183811E+03  0.15294330000E+03 0.  0.
<mgrwt>
<rscale>  0 0.68789959E+03</rscale>
<asrwt>0</asrwt>
<pdfrwt beam="1">  1        2 0.11984765E+00 0.78765537E+03</pdfrwt>
<pdfrwt beam="2">  1       -2 0.93441128E-01 0.78765537E+03</pdfrwt>
<totfact> 0.34935233E+01</totfact>
</mgrwt>
</event>
<event>
 4    2  0.2930016E-007  0.8480377E+03  0.7818608E-02  0.9615207E-01
         -2   -1    0    0    0  501 -0.00000000000E+00  0.00000000000E+00  0.16143473662E+04  0.16143473662E+04  0.25500000000E-02 0.  1.
          2   -1    0    0  501    0  0.00000000000E+00 -0.00000000000E+00 -0.53579968755E+03  0.53579968756E+03  0.25500000000E-02 0. -1.
    8880023    1    1    2    0    0  0.53220109101E+03  0.46040414362E+02 -0.93381063238E+02  0.85316349562E+03  0.65864270000E+03 0.  0.
    8880022    1    1    2    0    0 -0.53220109101E+03 -0.46040414362E+02  0.11719287419E+04  0.12969835581E+04  0.15294330000E+03 0.  0.
<mgrwt>
<rscale>  0 0.76297820E+03</rscale>
<asrwt>0</asrwt>
<pdfrwt beam="1">  1        2 0.82430722E-01 0.84803769E+03</pdfrwt>
<pdfrwt beam="2">  1       -2 0.24836113E+00 0.84803769E+03</pdfrwt>
<totfact> 0.37955349E+00</totfact>
</mgrwt>
</event>
<event>
 4    2  0.2930016E-007  0.7254934E+03  0.7818608E-02  0.9904418E-01
          2   -1    0    0  501    0  0.00000000000E+00  0.00000000000E+00  0.15002677542E+04  0.15002677542E+04  0.25500000000E-02 0. -1.
         -2   -1    0    0    0  501 -0.00000000000E+00 -0.00000000000E+00 -0.23156441318E+03  0.23156441320E+03  0.25500000000E-02 0.  1.
    8880023    1    1    2    0    0 -0.21588985060E+03 -0.21429435158E+03  0.11711567118E+04  0.13776606065E+04  0.65864270000E+03 0. -1.
    8880022    1    1    2    0    0  0.21588985060E+03  0.21429435158E+03  0.97546629241E+02  0.35417156097E+03  0.15294330000E+03 0.  0.
<mgrwt>
<rscale>  0 0.60047636E+03</rscale>
<asrwt>0</asrwt>
<pdfrwt beam="1">  1        2 0.23081042E+00 0.72549342E+03</pdfrwt>
<pdfrwt beam="2">  1       -2 0.35625295E-01 0.72549342E+03</pdfrwt>
<totfact> 0.95916405E+01</totfact>
</mgrwt>
</event>
<event>
 4    2  0.2930016E-007  0.7138310E+03  0.7818608E-02  0.9944041E-01
          2   -1    0    0  501    0  0.00000000000E+00  0.00000000000E+00  0.90198639701E+03  0.90198639702E+03  0.25500000000E-02 0. -1.
         -2   -1    0    0    0  501 -0.00000000000E+00 -0.00000000000E+00 -0.46634986200E+03  0.46634986201E+03  0.25500000000E-02 0.  1.
    8880023    1    1    2    0    0 -0.27502694739E+03  0.10231455632E+02  0.66751429422E+03  0.97730754818E+03  0.65864270000E+03 0. -1.
    8880022    1    1    2    0    0  0.27502694739E+03 -0.10231455632E+02 -0.23187775921E+03  0.39102871085E+03  0.15294330000E+03 0.  0.
<mgrwt>
<rscale>  0 0.58173550E+03</rscale>
<asrwt>0</asrwt>
<pdfrwt beam="1">  1        2 0.13876714E+00 0.71383101E+03</pdfrwt>
<pdfrwt beam="2">  1       -2 0.71746134E-01 0.71383101E+03</pdfrwt>
<totfact> 0.52384310E+01</totfact>
</mgrwt>
</event>
<event>
 4    2  0.2930016E-007  0.6820577E+03  0.7818608E-02  0.1008183E+00
         -2   -1    0    0    0  501 -0.00000000000E+00  0.00000000000E+00  0.20596466022E+03  0.20596466023E+03  0.25500000000E-02 0.  1.
          2   -1    0    0  501    0  0.00000000000E+00 -0.00000000000E+00 -0.27873608741E+04  0.27873608741E+04  0.25500000000E-02 0. -1.
    8880023    1    1    2    0    0  0.11667592430E+03  0.13333896615E+03 -0.26602849958E+04  0.27463282790E+04  0.65864270000E+03 0. -1.
    8880022    1    1    2    0    0 -0.11667592430E+03 -0.13333896615E+03  0.78888781886E+02  0.24699725530E+03  0.15294330000E+03 0.  0.
<mgrwt>
<rscale>  0 0.52203278E+03</rscale>
<asrwt>0</asrwt>
<pdfrwt beam="1">  1        2 0.42882472E+00 0.68205774E+03</pdfrwt>
<pdfrwt beam="2">  1       -2 0.31686873E-01 0.68205774E+03</pdfrwt>
<totfact> 0.23175276E+01</totfact>
</mgrwt>
</event>
<event>
 4    2  0.2930016E-007  0.8511989E+03  0.7818608E-02  0.9609415E-01
         -2   -1    0    0    0  501 -0.00000000000E+00  0.00000000000E+00  0.57009294517E+03  0.57009294517E+03  0.25500000000E-02 0.  1.
          2   -1    0    0  501    0  0.00000000000E+00 -0.00000000000E+00 -0.16560554318E+04  0.16560554318E+04  0.25500000000E-02 0. -1.
    8880023    1    1    2    0    0 -0.37912325655E+03 -0.38339923748E+03 -0.13583376577E+04  0.16030036861E+04  0.65864270000E+03 0. -1.
    8880022    1    1    2    0    0  0.37912325655E+03  0.38339923748E+03  0.27237517107E+03  0.62314469089E+03  0.15294330000E+03 0.  0.
<mgrwt>
<rscale>  0 0.76676175E+03</rscale>
<asrwt>0</asrwt>
<pdfrwt beam="1">  1        2 0.25477776E+00 0.85119893E+03</pdfrwt>
<pdfrwt beam="2">  1       -2 0.87706607E-01 0.85119893E+03</pdfrwt>
<totfact> 0.11802472E+01</totfact>
</mgrwt>
</event>
<event>
 4    2  0.2930016E-007  0.6755033E+03  0.7818608E-02  0.1011991E+00
          2   -1    0    0  501    0  0.00000000000E+00  0.00000000000E+00  0.19928545148E+04  0.19928545148E+04  0.25500000000E-02 0. -1.
         -2   -1    0    0    0  501 -0.00000000000E+00 -0.00000000000E+00 -0.15669380691E+03  0.15669380693E+03  0.25500000000E-02 0.  1.
    8880023    1    1    2    0    0  0.11804459077E+03  0.92520332285E+02  0.18121966672E+04  0.19340014230E+04  0.65864270000E+03 0. -1.
    8880022    1    1    2    0    0 -0.11804459077E+03 -0.92520332285E+02  0.23964040711E+02  0.21554689874E+03  0.15294330000E+03 0.  0.
<mgrwt>
<rscale>  0 0.50691001E+03</rscale>
<asrwt>0</asrwt>
<pdfrwt beam="1">  1        2 0.30659299E+00 0.67550333E+03</pdfrwt>
<pdfrwt beam="2">  1       -2 0.24106740E-01 0.67550333E+03</pdfrwt>
<totfact> 0.10675256E+02</totfact>
</mgrwt>
</event>
<event>
 4    2  0.2930016E-007  0.1185982E+04  0.7818608E-02  0.9170870E-01
          2   -1    0    0  501    0  0.00000000000E+00  0.00000000000E+00  0.14980474352E+04  0.14980474352E+04  0.25500000000E-02 0. -1.
         -2   -1    0    0    0  501 -0.00000000000E+00 -0.00000000000E+00 -0.90786968042E+03  0.90786968042E+03  0.25500000000E-02 0.  1.
    8880023    1    1    2    0    0  0.88404858827E+03 -0.43726641797E+03 -0.10346179608E+03  0.11904866132E+04  0.65864270000E+03 0. -1.
    8880022    1    1    2    0    0 -0.88404858827E+03  0.43726641797E+03  0.69363955088E+03  0.12154305024E+04  0.15294330000E+03 0.  1.
<mgrwt>
<rscale>  0 0.11359219E+04</rscale>
<asrwt>0</asrwt>
<pdfrwt beam="1">  1        2 0.23046884E+00 0.11859823E+04</pdfrwt>
<pdfrwt beam="2">  1       -2 0.13967226E+00 0.11859823E+04</pdfrwt>
<totfact> 0.44800189E+00</totfact>
</mgrwt>
</event>
<event>
 4    2  0.2930016E-007  0.8528489E+03  0.7818608E-02  0.9606413E-01
         -2   -1    0    0    0  501 -0.00000000000E+00  0.00000000000E+00  0.71460942927E+03  0.71460942928E+03  0.25500000000E-02 0.  1.
          2   -1    0    0  501    0  0.00000000000E+00 -0.00000000000E+00 -0.10060970449E+04  0.10060970449E+04  0.25500000000E-02 0. -1.
    8880023    1    1    2    0    0 -0.36014871765E+03  0.40476414914E+03 -0.63314233946E+03  0.10621772656E+04  0.65864270000E+03 0. -1.
    8880022    1    1    2    0    0  0.36014871765E+03 -0.40476414914E+03  0.34165472382E+03  0.65852920860E+03  0.15294330000E+03 0.  0.
<mgrwt>
<rscale>  0 0.76873204E+03</rscale>
<asrwt>0</asrwt>
<pdfrwt beam="1">  1        2 0.15478416E+00 0.85284894E+03</pdfrwt>
<pdfrwt beam="2">  1       -2 0.10993991E+00 0.85284894E+03</pdfrwt>
<totfact> 0.16524211E+01</totfact>
</mgrwt>
</event>
<event>
 4    2  0.2930016E-007  0.7247447E+03  0.7818608E-02  0.9906847E-01
          2   -1    0    0  501    0  0.00000000000E+00  0.00000000000E+00  0.26787474430E+04  0.26787474430E+04  0.25500000000E-02 0. -1.
         -2   -1    0    0    0  501 -0.00000000000E+00 -0.00000000000E+00 -0.11840690299E+03  0.11840690302E+03  0.25500000000E-02 0.  1.
    8880023    1    1    2    0    0  0.30236615646E+03  0.44043013351E+01  0.21267575358E+04  0.22468539145E+04  0.65864270000E+03 0. -1.
    8880022    1    1    2    0    0 -0.30236615646E+03 -0.44043013351E+01  0.43358300413E+03  0.55030043152E+03  0.15294330000E+03 0.  0.
<mgrwt>
<rscale>  0 0.59930612E+03</rscale>
<asrwt>0</asrwt>
<pdfrwt beam="1">  1        2 0.41211497E+00 0.72474471E+03</pdfrwt>
<pdfrwt beam="2">  1       -2 0.18216448E-01 0.72474471E+03</pdfrwt>
<totfact> 0.71951746E+01</totfact>
</mgrwt>
</event>
<event>
 4    2  0.2930016E-007  0.8607644E+03  0.7818608E-02  0.9592205E-01
          2   -1    0    0  501    0  0.00000000000E+00  0.00000000000E+00  0.22486223337E+04  0.22486223337E+04  0.25500000000E-02 0. -1.
         -2   -1    0    0    0  501 -0.00000000000E+00 -0.00000000000E+00 -0.23894471722E+03  0.23894471723E+03  0.25500000000E-02 0.  1.
    8880023    1    1    2    0    0  0.31163996850E+03  0.45824197190E+03  0.14436972414E+04  0.16808263164E+04  0.65864270000E+03 0.  0.
    8880022    1    1    2    0    0 -0.31163996850E+03 -0.45824197190E+03  0.56598037512E+03  0.80674073457E+03  0.15294330000E+03 0.  0.
<mgrwt>
<rscale>  0 0.77814251E+03</rscale>
<asrwt>0</asrwt>
<pdfrwt beam="1">  1        2 0.34594191E+00 0.86076442E+03</pdfrwt>
<pdfrwt beam="2">  1       -2 0.36760725E-01 0.86076442E+03</pdfrwt>
<totfact> 0.34555115E+01</totfact>
</mgrwt>
</event>
<event>
 4    2  0.2930016E-007  0.1016664E+04  0.7818608E-02  0.9360073E-01
          2   -1    0    0  501    0  0.00000000000E+00  0.00000000000E+00  0.13080824639E+04  0.13080824639E+04  0.25500000000E-02 0. -1.
         -2   -1    0    0    0  501 -0.00000000000E+00 -0.00000000000E+00 -0.74830454157E+03  0.74830454158E+03  0.25500000000E-02 0.  1.
    8880023    1    1    2    0    0 -0.77432311562E+03  0.14838000244E+02  0.72648413893E+03  0.12495542661E+04  0.65864270000E+03 0. -1.
    8880022    1    1    2    0    0  0.77432311562E+03 -0.14838000244E+02 -0.16670621660E+03  0.80683273936E+03  0.15294330000E+03 0.  0.
<mgrwt>
<rscale>  0 0.95435649E+03</rscale>
<asrwt>0</asrwt>
<pdfrwt beam="1">  1        2 0.20124345E+00 0.10166645E+04</pdfrwt>
<pdfrwt beam="2">  1       -2 0.11512378E+00 0.10166645E+04</pdfrwt>
<totfact> 0.95378078E+00</totfact>
</mgrwt>
</event>
<event>
 4    2  0.2930016E-007  0.8908282E+03  0.7818608E-02  0.9540919E-01
          2   -1    0    0  501    0  0.00000000000E+00  0.00000000000E+00  0.25197067480E+04  0.25197067480E+04  0.25500000000E-02 0. -1.
         -2   -1    0    0    0  501 -0.00000000000E+00 -0.00000000000E+00 -0.57675514377E+03  0.57675514378E+03  0.25500000000E-02 0.  1.
    8880023    1    1    2    0    0  0.59858353640E+03  0.38241736121E+02  0.22394436991E+04  0.24101209447E+04  0.65864270000E+03 0.  0.
    8880022    1    1    2    0    0 -0.59858353640E+03 -0.38241736121E+02 -0.29649209480E+03  0.68634094714E+03  0.15294330000E+03 0.  0.
<mgrwt>
<rscale>  0 0.81333127E+03</rscale>
<asrwt>0</asrwt>
<pdfrwt beam="1">  1        2 0.38764720E+00 0.89082820E+03</pdfrwt>
<pdfrwt beam="2">  1       -2 0.88731560E-01 0.89082820E+03</pdfrwt>
<totfact> 0.37986997E+00</totfact>
</mgrwt>
</event>
<event>
 4    2  0.2930016E-007  0.6764143E+03  0.7818608E-02  0.1011429E+00
          2   -1    0    0  501    0  0.00000000000E+00  0.00000000000E+00  0.26746435279E+04  0.26746435279E+04  0.25500000000E-02 0. -1.
         -2   -1    0    0    0  501 -0.00000000000E+00 -0.00000000000E+00 -0.77396699675E+02  0.77396699717E+02  0.25500000000E-02 0.  1.
    8880023    1    1    2    0    0 -0.11231438963E+03 -0.10541141023E+03  0.21673552281E+04  0.22704547955E+04  0.65864270000E+03 0. -1.
    8880022    1    1    2    0    0  0.11231438963E+03  0.10541141023E+03  0.42989160016E+03  0.48158543212E+03  0.15294330000E+03 0. -1.
<mgrwt>
<rscale>  0 0.50910532E+03</rscale>
<asrwt>0</asrwt>
<pdfrwt beam="1">  1        2 0.41148358E+00 0.67641429E+03</pdfrwt>
<pdfrwt beam="2">  1       -2 0.11907186E-01 0.67641429E+03</pdfrwt>
<totfact> 0.14918217E+02</totfact>
</mgrwt>
</event>
<event>
 4    2  0.2930016E-007  0.6917335E+03  0.7818608E-02  0.1003339E+00
          2   -1    0    0  501    0  0.00000000000E+00  0.00000000000E+00  0.16111058873E+04  0.16111058873E+04  0.25500000000E-02 0. -1.
         -2   -1    0    0    0  501 -0.00000000000E+00 -0.00000000000E+00 -0.37686600994E+03  0.37686600994E+03  0.25500000000E-02 0.  1.
    8880023    1    1    2    0    0  0.86331735997E+02 -0.19295541993E+03  0.14773972615E+04  0.16313178223E+04  0.65864270000E+03 0. -1.
    8880022    1    1    2    0    0 -0.86331735997E+02  0.19295541993E+03 -0.24315738414E+03  0.35665407497E+03  0.15294330000E+03 0.  0.
<mgrwt>
<rscale>  0 0.54209928E+03</rscale>
<asrwt>0</asrwt>
<pdfrwt beam="1">  1        2 0.24786244E+00 0.69173345E+03</pdfrwt>
<pdfrwt beam="2">  1       -2 0.57979387E-01 0.69173345E+03</pdfrwt>
<totfact> 0.31597424E+01</totfact>
</mgrwt>
</event>
<event>
 4    2  0.2930016E-007  0.7608131E+03  0.7818608E-02  0.9803007E-01
          2   -1    0    0  501    0  0.00000000000E+00  0.00000000000E+00  0.11845691144E+04  0.11845691144E+04  0.25500000000E-02 0. -1.
         -2   -1    0    0    0  501 -0.00000000000E+00 -0.00000000000E+00 -0.78881975326E+03  0.78881975326E+03  0.25500000000E-02 0.  1.
    8880023    1    1    2    0    0  0.34556099395E+03  0.16004341963E+03  0.99162690659E+03  0.12498641626E+04  0.65864270000E+03 0.  0.
    8880022    1    1    2    0    0 -0.34556099395E+03 -0.16004341963E+03 -0.59587754545E+03  0.72352470511E+03  0.15294330000E+03 0.  0.
<mgrwt>
<rscale>  0 0.65201414E+03</rscale>
<asrwt>0</asrwt>
<pdfrwt beam="1">  1        2 0.18224140E+00 0.76081305E+03</pdfrwt>
<pdfrwt beam="2">  1       -2 0.12135689E+00 0.76081305E+03</pdfrwt>
<totfact> 0.10172658E+01</totfact>
</mgrwt>
</event>
<event>
 4    2  0.2930016E-007  0.7789814E+03  0.7818608E-02  0.9758235E-01
          2   -1    0    0  501    0  0.00000000000E+00  0.00000000000E+00  0.35957052073E+04  0.35957052073E+04  0.25500000000E-02 0. -1.
         -2   -1    0    0    0  501 -0.00000000000E+00 -0.00000000000E+00 -0.22416050273E+03  0.22416050274E+03  0.25500000000E-02 0.  1.
    8880023    1    1    2    0    0  0.39379926857E+03 -0.13388048987E+03  0.32749206611E+04  0.33662913410E+04  0.65864270000E+03 0.  0.
    8880022    1    1    2    0    0 -0.39379926857E+03  0.13388048987E+03  0.96624043484E+02  0.45357436909E+03  0.15294330000E+03 0.  0.
<mgrwt>
<rscale>  0 0.67652868E+03</rscale>
<asrwt>0</asrwt>
<pdfrwt beam="1">  1        2 0.55318535E+00 0.77898142E+03</pdfrwt>
<pdfrwt beam="2">  1       -2 0.34486235E-01 0.77898142E+03</pdfrwt>
<totfact> 0.59183346E+00</totfact>
</mgrwt>
</event>
<event>
 4    2  0.2930016E-007  0.8522157E+03  0.7818608E-02  0.9607563E-01
          2   -1    0    0  501    0  0.00000000000E+00  0.00000000000E+00  0.15681327579E+04  0.15681327579E+04  0.25500000000E-02 0. -1.
         -2   -1    0    0    0  501 -0.00000000000E+00 -0.00000000000E+00 -0.48582192893E+03  0.48582192893E+03  0.25500000000E-02 0.  1.
    8880023    1    1    2    0    0 -0.48792494188E+03  0.23321805224E+03  0.12077175554E+04  0.14781249300E+04  0.65864270000E+03 0. -1.
    8880022    1    1    2    0    0  0.48792494188E+03 -0.23321805224E+03 -0.12540672643E+03  0.57582975683E+03  0.15294330000E+03 0.  0.
<mgrwt>
<rscale>  0 0.76797625E+03</rscale>
<asrwt>0</asrwt>
<pdfrwt beam="1">  1        2 0.24125119E+00 0.85221571E+03</pdfrwt>
<pdfrwt beam="2">  1       -2 0.74741837E-01 0.85221571E+03</pdfrwt>
<totfact> 0.18941686E+01</totfact>
</mgrwt>
</event>
<event>
 4    2  0.2930016E-007  0.1014710E+04  0.7818608E-02  0.9362560E-01
          2   -1    0    0  501    0  0.00000000000E+00  0.00000000000E+00  0.33822637576E+04  0.33822637576E+04  0.25500000000E-02 0. -1.
         -2   -1    0    0    0  501 -0.00000000000E+00 -0.00000000000E+00 -0.47825418852E+03  0.47825418852E+03  0.25500000000E-02 0.  1.
    8880023    1    1    2    0    0  0.52067940261E+03  0.56984181854E+03  0.29012815751E+04  0.30736089085E+04  0.65864270000E+03 0. -1.
    8880022    1    1    2    0    0 -0.52067940261E+03 -0.56984181854E+03  0.27279939958E+01  0.78690903758E+03  0.15294330000E+03 0.  0.
<mgrwt>
<rscale>  0 0.95221940E+03</rscale>
<asrwt>0</asrwt>
<pdfrwt beam="1">  1        2 0.52034828E+00 0.10147103E+04</pdfrwt>
<pdfrwt beam="2">  1       -2 0.73577566E-01 0.10147103E+04</pdfrwt>
<totfact> 0.16816734E+00</totfact>
</mgrwt>
</event>
<event>
 4    2  0.2930016E-007  0.7107404E+03  0.7818608E-02  0.9955262E-01
         -2   -1    0    0    0  501 -0.00000000000E+00  0.00000000000E+00  0.17851057445E+03  0.17851057447E+03  0.25500000000E-02 0.  1.
          2   -1    0    0  501    0  0.00000000000E+00 -0.00000000000E+00 -0.23727935399E+04  0.23727935399E+04  0.25500000000E-02 0. -1.
    8880023    1    1    2    0    0  0.26593947492E+03 -0.24857677839E+02 -0.21181871354E+04  0.22342490137E+04  0.65864270000E+03 0.  0.
    8880022    1    1    2    0    0 -0.26593947492E+03  0.24857677839E+02 -0.76095830026E+02  0.31705510062E+03  0.15294330000E+03 0.  0.
<mgrwt>
<rscale>  0 0.57656214E+03</rscale>
<asrwt>0</asrwt>
<pdfrwt beam="1">  1        2 0.36504514E+00 0.71074040E+03</pdfrwt>
<pdfrwt beam="2">  1       -2 0.27463167E-01 0.71074040E+03</pdfrwt>
<totfact> 0.51890022E+01</totfact>
</mgrwt>
</event>
<event>
 4    2  0.2930016E-007  0.6971398E+03  0.7818608E-02  0.1000928E+00
          2   -1    0    0  501    0  0.00000000000E+00  0.00000000000E+00  0.17120893581E+04  0.17120893581E+04  0.25500000000E-02 0. -1.
         -2   -1    0    0    0  501 -0.00000000000E+00 -0.00000000000E+00 -0.68688981322E+03  0.68688981322E+03  0.25500000000E-02 0.  1.
    8880023    1    1    2    0    0 -0.11398398593E+03  0.19799322784E+03  0.16090807496E+04  0.17536090592E+04  0.65864270000E+03 0. -1.
    8880022    1    1    2    0    0  0.11398398593E+03 -0.19799322784E+03 -0.58388120477E+03  0.64537011212E+03  0.15294330000E+03 0.  0.
<mgrwt>
<rscale>  0 0.55245204E+03</rscale>
<asrwt>0</asrwt>
<pdfrwt beam="1">  1        2 0.26339836E+00 0.69713978E+03</pdfrwt>
<pdfrwt beam="2">  1       -2 0.10567536E+00 0.69713978E+03</pdfrwt>
<totfact> 0.72526465E+00</totfact>
</mgrwt>
</event>
<event>
 4    2  0.2930016E-007  0.7047993E+03  0.7818608E-02  0.9977846E-01
         -2   -1    0    0    0  501 -0.00000000000E+00  0.00000000000E+00  0.29267306200E+03  0.29267306201E+03  0.25500000000E-02 0.  1.
          2   -1    0    0  501    0  0.00000000000E+00 -0.00000000000E+00 -0.15363325608E+04  0.15363325608E+04  0.25500000000E-02 0. -1.
    8880023    1    1    2    0    0 -0.67139538830E+02 -0.24171077095E+03 -0.13447818097E+04  0.15182819687E+04  0.65864270000E+03 0.  0.
    8880022    1    1    2    0    0  0.67139538830E+02  0.24171077095E+03  0.10112231089E+03  0.31072365414E+03  0.15294330000E+03 0.  0.
<mgrwt>
<rscale>  0 0.56632430E+03</rscale>
<asrwt>0</asrwt>
<pdfrwt beam="1">  1        2 0.23635885E+00 0.70479928E+03</pdfrwt>
<pdfrwt beam="2">  1       -2 0.45026626E-01 0.70479928E+03</pdfrwt>
<totfact> 0.58141483E+01</totfact>
</mgrwt>
</event>
<event>
 4    2  0.2930016E-007  0.7418750E+03  0.7818608E-02  0.9854519E-01
          2   -1    0    0  501    0  0.00000000000E+00  0.00000000000E+00  0.25252903994E+04  0.25252903994E+04  0.25500000000E-02 0. -1.
         -2   -1    0    0    0  501 -0.00000000000E+00 -0.00000000000E+00 -0.30910177611E+03  0.30910177612E+03  0.25500000000E-02 0.  1.
    8880023    1    1    2    0    0  0.31696790937E+03  0.12688420861E+03  0.23284663023E+04  0.24437949556E+04  0.65864270000E+03 0. -1.
    8880022    1    1    2    0    0 -0.31696790937E+03 -0.12688420861E+03 -0.11227767900E+03  0.39059721989E+03  0.15294330000E+03 0.  0.
<mgrwt>
<rscale>  0 0.62517053E+03</rscale>
<asrwt>0</asrwt>
<pdfrwt beam="1">  1        2 0.38850622E+00 0.74187497E+03</pdfrwt>
<pdfrwt beam="2">  1       -2 0.47554118E-01 0.74187497E+03</pdfrwt>
<totfact> 0.14796273E+01</totfact>
</mgrwt>
</event>
<event>
 4    2  0.2930016E-007  0.7991005E+03  0.7818608E-02  0.9712744E-01
         -2   -1    0    0    0  501 -0.00000000000E+00  0.00000000000E+00  0.27699652965E+04  0.27699652965E+04  0.25500000000E-02 0.  1.
          2   -1    0    0  501    0  0.00000000000E+00 -0.00000000000E+00 -0.46891309587E+03  0.46891309588E+03  0.25500000000E-02 0. -1.
    8880023    1    1    2    0    0 -0.43301205386E+03 -0.13134668481E+03 -0.86728578433E+02  0.80379315932E+03  0.65864270000E+03 0. -1.
    8880022    1    1    2    0    0  0.43301205386E+03  0.13134668481E+03  0.23877807791E+04  0.24350852331E+04  0.15294330000E+03 0.  0.
<mgrwt>
<rscale>  0 0.70263043E+03</rscale>
<asrwt>0</asrwt>
<pdfrwt beam="1">  1        2 0.72140475E-01 0.79910049E+03</pdfrwt>
<pdfrwt beam="2">  1       -2 0.42614851E+00 0.79910049E+03</pdfrwt>
<totfact> 0.34983708E-01</totfact>
</mgrwt>
</event>
<event>
 4    2  0.2930016E-007  0.7780146E+03  0.7818608E-02  0.9760522E-01
          2   -1    0    0  501    0  0.00000000000E+00  0.00000000000E+00  0.12840316264E+04  0.12840316264E+04  0.25500000000E-02 0. -1.
         -2   -1    0    0    0  501 -0.00000000000E+00 -0.00000000000E+00 -0.87073236063E+03  0.87073236064E+03  0.25500000000E-02 0.  1.
    8880023    1    1    2    0    0  0.26229892299E+03  0.32046171614E+03  0.10946069900E+04  0.13429337680E+04  0.65864270000E+03 0. -1.
    8880022    1    1    2    0    0 -0.26229892299E+03 -0.32046171614E+03 -0.68130772419E+03  0.81183021905E+03  0.15294330000E+03 0.  0.
<mgrwt>
<rscale>  0 0.67524900E+03</rscale>
<asrwt>0</asrwt>
<pdfrwt beam="1">  1        2 0.19754333E+00 0.77801455E+03</pdfrwt>
<pdfrwt beam="2">  1       -2 0.13395882E+00 0.77801455E+03</pdfrwt>
<totfact> 0.69183580E+00</totfact>
</mgrwt>
</event>
<event>
 4    2  0.2930016E-007  0.6844879E+03  0.7818608E-02  0.1006891E+00
         -2   -1    0    0    0  501 -0.00000000000E+00  0.00000000000E+00  0.46269914192E+03  0.46269914193E+03  0.25500000000E-02 0.  1.
          2   -1    0    0  501    0  0.00000000000E+00 -0.00000000000E+00 -0.21791365309E+04  0.21791365309E+04  0.25500000000E-02 0. -1.
    8880023    1    1    2    0    0 -0.11950722503E+03 -0.14293903785E+03 -0.20888939383E+04  0.21981814386E+04  0.65864270000E+03 0. -1.
    8880022    1    1    2    0    0  0.11950722503E+03  0.14293903785E+03  0.37245654932E+03  0.44365423420E+03  0.15294330000E+03 0.  0.
<mgrwt>
<rscale>  0 0.52729206E+03</rscale>
<asrwt>0</asrwt>
<pdfrwt beam="1">  1        2 0.33525177E+00 0.68448795E+03</pdfrwt>
<pdfrwt beam="2">  1       -2 0.71184485E-01 0.68448795E+03</pdfrwt>
<totfact> 0.99929228E+00</totfact>
</mgrwt>
</event>
<event>
 4    2  0.2930016E-007  0.7441899E+03  0.7818608E-02  0.9847906E-01
         -2   -1    0    0    0  501 -0.00000000000E+00  0.00000000000E+00  0.12945767766E+03  0.12945767768E+03  0.25500000000E-02 0.  1.
          2   -1    0    0  501    0  0.00000000000E+00 -0.00000000000E+00 -0.27613689536E+04  0.27613689536E+04  0.25500000000E-02 0. -1.
    8880023    1    1    2    0    0  0.31995545556E+03  0.13280388622E+03 -0.21669058584E+04  0.22911349963E+04  0.65864270000E+03 0.  0.
    8880022    1    1    2    0    0 -0.31995545556E+03 -0.13280388622E+03 -0.46500541752E+03  0.59969163499E+03  0.15294330000E+03 0.  0.
<mgrwt>
<rscale>  0 0.62853790E+03</rscale>
<asrwt>0</asrwt>
<pdfrwt beam="1">  1        2 0.42482595E+00 0.74418988E+03</pdfrwt>
<pdfrwt beam="2">  1       -2 0.19916568E-01 0.74418988E+03</pdfrwt>
<totfact> 0.54994595E+01</totfact>
</mgrwt>
</event>
<event>
 4    2  0.2930016E-007  0.1017295E+04  0.7818608E-02  0.9359273E-01
         -2   -1    0    0    0  501 -0.00000000000E+00  0.00000000000E+00  0.74952390947E+03  0.74952390948E+03  0.25500000000E-02 0.  1.
          2   -1    0    0  501    0  0.00000000000E+00 -0.00000000000E+00 -0.11738669772E+04  0.11738669772E+04  0.25500000000E-02 0. -1.
    8880023    1    1    2    0    0 -0.82948819253E+01  0.77524798043E+03 -0.49246556353E+03  0.11302259835E+04  0.65864270000E+03 0.  0.
    8880022    1    1    2    0    0  0.82948819253E+01 -0.77524798043E+03  0.68122495794E+02  0.79316490320E+03  0.15294330000E+03 0.  0.
<mgrwt>
<rscale>  0 0.95504539E+03</rscale>
<asrwt>0</asrwt>
<pdfrwt beam="1">  1        2 0.18059492E+00 0.10172947E+04</pdfrwt>
<pdfrwt beam="2">  1       -2 0.11531137E+00 0.10172947E+04</pdfrwt>
<totfact> 0.11404481E+01</totfact>
</mgrwt>
</event>
<event>
 4    2  0.2930016E-007  0.7926274E+03  0.7818608E-02  0.9726970E-01
         -2   -1    0    0    0  501 -0.00000000000E+00  0.00000000000E+00  0.89151417263E+03  0.89151417264E+03  0.25500000000E-02 0.  1.
          2   -1    0    0  501    0  0.00000000000E+00 -0.00000000000E+00 -0.13073103418E+04  0.13073103418E+04  0.25500000000E-02 0. -1.
    8880023    1    1    2    0    0  0.38942526262E+03  0.20687185213E+03 -0.11090016123E+04  0.13631371100E+04  0.65864270000E+03 0.  0.
    8880022    1    1    2    0    0 -0.38942526262E+03 -0.20687185213E+03  0.69320544317E+03  0.83568740437E+03  0.15294330000E+03 0.  0.
<mgrwt>
<rscale>  0 0.69433480E+03</rscale>
<asrwt>0</asrwt>
<pdfrwt beam="1">  1        2 0.20112467E+00 0.79262741E+03</pdfrwt>
<pdfrwt beam="2">  1       -2 0.13715603E+00 0.79262741E+03</pdfrwt>
<totfact> 0.63023125E+00</totfact>
</mgrwt>
</event>
<event>
 4    2  0.2930016E-007  0.1185301E+04  0.7818608E-02  0.9171545E-01
          2   -1    0    0  501    0  0.00000000000E+00  0.00000000000E+00  0.80545553896E+03  0.80545553897E+03  0.25500000000E-02 0. -1.
         -2   -1    0    0    0  501 -0.00000000000E+00 -0.00000000000E+00 -0.22526474310E+04  0.22526474310E+04  0.25500000000E-02 0.  1.
    8880023    1    1    2    0    0  0.38340469281E+03 -0.90781508930E+03  0.12965261898E+03  0.11923704972E+04  0.65864270000E+03 0.  1.
    8880022    1    1    2    0    0 -0.38340469281E+03  0.90781508930E+03 -0.15768445110E+04  0.18657324727E+04  0.15294330000E+03 0.  0.
<mgrwt>
<rscale>  0 0.11352017E+04</rscale>
<asrwt>0</asrwt>
<pdfrwt beam="1">  1        2 0.12391624E+00 0.11853006E+04</pdfrwt>
<pdfrwt beam="2">  1       -2 0.34656114E+00 0.11853006E+04</pdfrwt>
<totfact> 0.55077175E-01</totfact>
</mgrwt>
</event>
<event>
 4    2  0.2930016E-007  0.7536486E+03  0.7818608E-02  0.9821837E-01
         -2   -1    0    0    0  501 -0.00000000000E+00  0.00000000000E+00  0.23392408329E+03  0.23392408331E+03  0.25500000000E-02 0.  1.
          2   -1    0    0  501    0  0.00000000000E+00 -0.00000000000E+00 -0.22108194916E+04  0.22108194916E+04  0.25500000000E-02 0. -1.
    8880023    1    1    2    0    0  0.88225175292E+01  0.36619416414E+03 -0.18950966034E+04  0.20394551589E+04  0.65864270000E+03 0. -1.
    8880022    1    1    2    0    0 -0.88225175292E+01 -0.36619416414E+03 -0.81798804927E+02  0.40528841603E+03  0.15294330000E+03 0.  0.
<mgrwt>
<rscale>  0 0.64203700E+03</rscale>
<asrwt>0</asrwt>
<pdfrwt beam="1">  1        2 0.34012606E+00 0.75364860E+03</pdfrwt>
<pdfrwt beam="2">  1       -2 0.35988322E-01 0.75364860E+03</pdfrwt>
<totfact> 0.38272502E+01</totfact>
</mgrwt>
</event>
<event>
 4    2  0.2930016E-007  0.1383870E+04  0.7818608E-02  0.8996319E-01
         -2   -1    0    0    0  501 -0.00000000000E+00  0.00000000000E+00  0.88145072529E+03  0.88145072530E+03  0.25500000000E-02 0.  1.
          2   -1    0    0  501    0  0.00000000000E+00 -0.00000000000E+00 -0.20061854392E+04  0.20061854392E+04  0.25500000000E-02 0. -1.
    8880023    1    1    2    0    0 -0.54364110093E+03 -0.10889164736E+04 -0.87057432784E+03  0.16349295396E+04  0.65864270000E+03 0. -1.
    8880022    1    1    2    0    0  0.54364110093E+03  0.10889164736E+04 -0.25416038603E+03  0.12527066248E+04  0.15294330000E+03 0.  1.
<mgrwt>
<rscale>  0 0.13427704E+04</rscale>
<asrwt>0</asrwt>
<pdfrwt beam="1">  1        2 0.30864391E+00 0.13838696E+04</pdfrwt>
<pdfrwt beam="2">  1       -2 0.13560780E+00 0.13838696E+04</pdfrwt>
<totfact> 0.24732716E+00</totfact>
</mgrwt>
</event>
<event>
 4    2  0.2930016E-007  0.8688159E+03  0.7818608E-02  0.9578070E-01
          2   -1    0    0  501    0  0.00000000000E+00  0.00000000000E+00  0.77065763229E+03  0.77065763229E+03  0.25500000000E-02 0. -1.
         -2   -1    0    0    0  501 -0.00000000000E+00 -0.00000000000E+00 -0.10001917433E+04  0.10001917433E+04  0.25500000000E-02 0.  1.
    8880023    1    1    2    0    0 -0.52863629518E+03 -0.20389828589E+03  0.35867307768E+03  0.93994011856E+03  0.65864270000E+03 0.  1.
    8880022    1    1    2    0    0  0.52863629518E+03  0.20389828589E+03 -0.58820718869E+03  0.83090925703E+03  0.15294330000E+03 0.  0.
<mgrwt>
<rscale>  0 0.78764815E+03</rscale>
<asrwt>0</asrwt>
<pdfrwt beam="1">  1        2 0.11856271E+00 0.86881589E+03</pdfrwt>
<pdfrwt beam="2">  1       -2 0.15387565E+00 0.86881589E+03</pdfrwt>
<totfact> 0.10169212E+01</totfact>
</mgrwt>
</event>
<event>
 4    2  0.2930016E-007  0.6820516E+03  0.7818608E-02  0.1008186E+00
          2   -1    0    0  501    0  0.00000000000E+00  0.00000000000E+00  0.19637674269E+04  0.19637674269E+04  0.25500000000E-02 0. -1.
         -2   -1    0    0    0  501 -0.00000000000E+00 -0.00000000000E+00 -0.11334424612E+03  0.11334424615E+03  0.25500000000E-02 0.  1.
    8880023    1    1    2    0    0 -0.17344264080E+03 -0.36081528880E+02  0.15706827165E+04  0.17123780624E+04  0.65864270000E+03 0. -1.
    8880022    1    1    2    0    0  0.17344264080E+03  0.36081528880E+02  0.27974046426E+03  0.36473361065E+03  0.15294330000E+03 0.  1.
<mgrwt>
<rscale>  0 0.52201936E+03</rscale>
<asrwt>0</asrwt>
<pdfrwt beam="1">  1        2 0.30211804E+00 0.68205163E+03</pdfrwt>
<pdfrwt beam="2">  1       -2 0.17437578E-01 0.68205163E+03</pdfrwt>
<totfact> 0.19521403E+02</totfact>
</mgrwt>
</event>
<event>
 4    2  0.2930016E-007  0.7113687E+03  0.7818608E-02  0.9952953E-01
         -2   -1    0    0    0  501 -0.00000000000E+00  0.00000000000E+00  0.33940301862E+03  0.33940301863E+03  0.25500000000E-02 0.  1.
          2   -1    0    0  501    0  0.00000000000E+00 -0.00000000000E+00 -0.81577109436E+03  0.81577109436E+03  0.25500000000E-02 0. -1.
    8880023    1    1    2    0    0  0.25156371690E+03 -0.94609249108E+02 -0.45661850129E+03  0.84530815426E+03  0.65864270000E+03 0.  0.
    8880022    1    1    2    0    0 -0.25156371690E+03  0.94609249108E+02 -0.19749574441E+02  0.30986595873E+03  0.15294330000E+03 0. -1.
<mgrwt>
<rscale>  0 0.57762177E+03</rscale>
<asrwt>0</asrwt>
<pdfrwt beam="1">  1        2 0.12550324E+00 0.71136869E+03</pdfrwt>
<pdfrwt beam="2">  1       -2 0.52215850E-01 0.71136869E+03</pdfrwt>
<totfact> 0.11785631E+02</totfact>
</mgrwt>
</event>
<event>
 4    2  0.2930016E-007  0.6856510E+03  0.7818608E-02  0.1006292E+00
          2   -1    0    0  501    0  0.00000000000E+00  0.00000000000E+00  0.22796650629E+04  0.22796650629E+04  0.25500000000E-02 0. -1.
         -2   -1    0    0    0  501 -0.00000000000E+00 -0.00000000000E+00 -0.11376923077E+03  0.11376923080E+03  0.25500000000E-02 0.  1.
    8880023    1    1    2    0    0 -0.80561912329E+02 -0.17267555566E+03  0.19512450734E+04  0.20682056503E+04  0.65864270000E+03 0. -1.
    8880022    1    1    2    0    0  0.80561912329E+02  0.17267555566E+03  0.21465075873E+03  0.32522864338E+03  0.15294330000E+03 0.  0.
<mgrwt>
<rscale>  0 0.52975243E+03</rscale>
<asrwt>0</asrwt>
<pdfrwt beam="1">  1        2 0.35071769E+00 0.68565099E+03</pdfrwt>
<pdfrwt beam="2">  1       -2 0.17502959E-01 0.68565099E+03</pdfrwt>
<totfact> 0.13020541E+02</totfact>
</mgrwt>
</event>
<event>
 4    2  0.2930016E-007  0.7258186E+03  0.7818608E-02  0.9903368E-01
          2   -1    0    0  501    0  0.00000000000E+00  0.00000000000E+00  0.12090760871E+04  0.12090760871E+04  0.25500000000E-02 0. -1.
         -2   -1    0    0    0  501 -0.00000000000E+00 -0.00000000000E+00 -0.28397795874E+03  0.28397795875E+03  0.25500000000E-02 0.  1.
    8880023    1    1    2    0    0 -0.21176144474E+03  0.21945282525E+03  0.89243637259E+03  0.11503283607E+04  0.65864270000E+03 0. -1.
    8880022    1    1    2    0    0  0.21176144474E+03 -0.21945282525E+03  0.32661755797E+02  0.34272568520E+03  0.15294330000E+03 0.  0.
<mgrwt>
<rscale>  0 0.60098336E+03</rscale>
<asrwt>0</asrwt>
<pdfrwt beam="1">  1        2 0.18601170E+00 0.72581861E+03</pdfrwt>
<pdfrwt beam="2">  1       -2 0.43688917E-01 0.72581861E+03</pdfrwt>
<totfact> 0.94560804E+01</totfact>
</mgrwt>
</event>
<event>
 4    2  0.2930016E-007  0.8439642E+03  0.7818608E-02  0.9622750E-01
         -2   -1    0    0    0  501 -0.00000000000E+00  0.00000000000E+00  0.26392731729E+03  0.26392731731E+03  0.25500000000E-02 0.  1.
          2   -1    0    0  501    0  0.00000000000E+00 -0.00000000000E+00 -0.35694444907E+04  0.35694444907E+04  0.25500000000E-02 0. -1.
    8880023    1    1    2    0    0 -0.19279485358E+03 -0.49121843560E+03 -0.31518271335E+04  0.32628652888E+04  0.65864270000E+03 0.  0.
    8880022    1    1    2    0    0  0.19279485358E+03  0.49121843560E+03 -0.15369003985E+03  0.57050651916E+03  0.15294330000E+03 0.  1.
<mgrwt>
<rscale>  0 0.75808551E+03</rscale>
<asrwt>0</asrwt>
<pdfrwt beam="1">  1        2 0.54914527E+00 0.84396423E+03</pdfrwt>
<pdfrwt beam="2">  1       -2 0.40604205E-01 0.84396423E+03</pdfrwt>
<totfact> 0.44491619E+00</totfact>
</mgrwt>
</event>
<event>
 4    2  0.2930016E-007  0.6588303E+03  0.7818608E-02  0.1025388E+00
         -2   -1    0    0    0  501 -0.00000000000E+00  0.00000000000E+00  0.32173456001E+03  0.32173456002E+03  0.25500000000E-02 0.  1.
          2   -1    0    0  501    0  0.00000000000E+00 -0.00000000000E+00 -0.17652153161E+04  0.17652153161E+04  0.25500000000E-02 0. -1.
    8880023    1    1    2    0    0  0.15700084103E+02  0.78325605712E+00 -0.16801609049E+04  0.18047154841E+04  0.65864270000E+03 0. -1.
    8880022    1    1    2    0    0 -0.15700084103E+02 -0.78325605712E+00  0.23668014883E+03  0.28223439195E+03  0.15294330000E+03 0.  0.
<mgrwt>
<rscale>  0 0.45791328E+03</rscale>
<asrwt>0</asrwt>
<pdfrwt beam="1">  1        2 0.27157158E+00 0.65883026E+03</pdfrwt>
<pdfrwt beam="2">  1       -2 0.49497626E-01 0.65883026E+03</pdfrwt>
<totfact> 0.36222407E+01</totfact>
</mgrwt>
</event>
<event>
 4    2  0.2930016E-007  0.7881087E+03  0.7818608E-02  0.9737123E-01
         -2   -1    0    0    0  501 -0.00000000000E+00  0.00000000000E+00  0.20325910075E+03  0.20325910076E+03  0.25500000000E-02 0.  1.
          2   -1    0    0  501    0  0.00000000000E+00 -0.00000000000E+00 -0.34820379729E+04  0.34820379729E+04  0.25500000000E-02 0. -1.
    8880023    1    1    2    0    0 -0.25965510676E+03  0.34624322207E+03 -0.30900945010E+04  0.31890122883E+04  0.65864270000E+03 0. -1.
    8880022    1    1    2    0    0  0.25965510676E+03 -0.34624322207E+03 -0.18868437115E+03  0.49628478540E+03  0.15294330000E+03 0.  0.
<mgrwt>
<rscale>  0 0.68848874E+03</rscale>
<asrwt>0</asrwt>
<pdfrwt beam="1">  1        2 0.53569811E+00 0.78810872E+03</pdfrwt>
<pdfrwt beam="2">  1       -2 0.31270633E-01 0.78810872E+03</pdfrwt>
<totfact> 0.85115797E+00</totfact>
</mgrwt>
</event>
<event>
 4    2  0.2930016E-007  0.8056212E+03  0.7818608E-02  0.9698771E-01
         -2   -1    0    0    0  501 -0.00000000000E+00  0.00000000000E+00  0.91454086340E+03  0.91454086340E+03  0.25500000000E-02 0.  1.
          2   -1    0    0  501    0  0.00000000000E+00 -0.00000000000E+00 -0.64343645425E+03  0.64343645425E+03  0.25500000000E-02 0. -1.
    8880023    1    1    2    0    0  0.43939058685E+03  0.14883268126E+03 -0.25019985357E+03  0.84357893988E+03  0.65864270000E+03 0. -1.
    8880022    1    1    2    0    0 -0.43939058685E+03 -0.14883268126E+03  0.52130426272E+03  0.71439837778E+03  0.15294330000E+03 0.  0.
<mgrwt>
<rscale>  0 0.71090002E+03</rscale>
<asrwt>0</asrwt>
<pdfrwt beam="1">  1        2 0.98990224E-01 0.80562116E+03</pdfrwt>
<pdfrwt beam="2">  1       -2 0.14069859E+00 0.80562116E+03</pdfrwt>
<totfact> 0.16286804E+01</totfact>
</mgrwt>
</event>
<event>
 4    2  0.2930016E-007  0.7930361E+03  0.7818608E-02  0.9726061E-01
         -2   -1    0    0    0  501 -0.00000000000E+00  0.00000000000E+00  0.18740783013E+03  0.18740783014E+03  0.25500000000E-02 0.  1.
          2   -1    0    0  501    0  0.00000000000E+00 -0.00000000000E+00 -0.24262236364E+04  0.24262236364E+04  0.25500000000E-02 0. -1.
    8880023    1    1    2    0    0 -0.44105822534E+03  0.23741895785E+02 -0.18229858891E+04  0.19880100085E+04  0.65864270000E+03 0.  0.
    8880022    1    1    2    0    0  0.44105822534E+03 -0.23741895785E+02 -0.41582991721E+03  0.62562145808E+03  0.15294330000E+03 0.  0.
<mgrwt>
<rscale>  0 0.69486124E+03</rscale>
<asrwt>0</asrwt>
<pdfrwt beam="1">  1        2 0.37326515E+00 0.79303609E+03</pdfrwt>
<pdfrwt beam="2">  1       -2 0.28831976E-01 0.79303609E+03</pdfrwt>
<totfact> 0.43815745E+01</totfact>
</mgrwt>
</event>
<event>
 4    2  0.2930016E-007  0.8984079E+03  0.7818608E-02  0.9528592E-01
          2   -1    0    0  501    0  0.00000000000E+00  0.00000000000E+00  0.71212871350E+03  0.71212871350E+03  0.25500000000E-02 0. -1.
         -2   -1    0    0    0  501 -0.00000000000E+00 -0.00000000000E+00 -0.14609340866E+04  0.14609340866E+04  0.25500000000E-02 0.  1.
    8880023    1    1    2    0    0  0.24491821860E+02  0.61051345727E+03  0.30211734401E+03  0.94784578211E+03  0.65864270000E+03 0. -1.
    8880022    1    1    2    0    0 -0.24491821860E+02 -0.61051345727E+03 -0.10509227171E+04  0.12252170180E+04  0.15294330000E+03 0.  0.
<mgrwt>
<rscale>  0 0.82208255E+03</rscale>
<asrwt>0</asrwt>
<pdfrwt beam="1">  1        2 0.10955826E+00 0.89840789E+03</pdfrwt>
<pdfrwt beam="2">  1       -2 0.22475909E+00 0.89840789E+03</pdfrwt>
<totfact> 0.37207251E+00</totfact>
</mgrwt>
</event>
<event>
 4    2  0.2930016E-007  0.7494551E+03  0.7818608E-02  0.9833214E-01
         -2   -1    0    0    0  501 -0.00000000000E+00  0.00000000000E+00  0.15074546303E+03  0.15074546306E+03  0.25500000000E-02 0.  1.
          2   -1    0    0  501    0  0.00000000000E+00 -0.00000000000E+00 -0.43245527994E+04  0.43245527994E+04  0.25500000000E-02 0. -1.
    8880023    1    1    2    0    0 -0.21916714625E+03 -0.28255712601E+03 -0.39623477259E+04  0.40326024444E+04  0.65864270000E+03 0. -1.
    8880022    1    1    2    0    0  0.21916714625E+03  0.28255712601E+03 -0.21145961049E+03  0.44269581807E+03  0.15294330000E+03 0.  0.
<mgrwt>
<rscale>  0 0.63610136E+03</rscale>
<asrwt>0</asrwt>
<pdfrwt beam="1">  1        2 0.66531572E+00 0.74945512E+03</pdfrwt>
<pdfrwt beam="2">  1       -2 0.23191613E-01 0.74945512E+03</pdfrwt>
<totfact> 0.33198615E+00</totfact>
</mgrwt>
</event>
<event>
 4    2  0.2930016E-007  0.6747703E+03  0.7818608E-02  0.1012451E+00
         -2   -1    0    0    0  501 -0.00000000000E+00  0.00000000000E+00  0.49562846712E+03  0.49562846712E+03  0.25500000000E-02 0.  1.
          2   -1    0    0  501    0  0.00000000000E+00 -0.00000000000E+00 -0.96244416313E+03  0.96244416313E+03  0.25500000000E-02 0. -1.
    8880023    1    1    2    0    0  0.10925573609E+03  0.97815593126E+02 -0.81031495113E+03  0.10544786543E+04  0.65864270000E+03 0. -1.
    8880022    1    1    2    0    0 -0.10925573609E+03 -0.97815593126E+02  0.34349925512E+03  0.40359397593E+03  0.15294330000E+03 0.  0.
<mgrwt>
<rscale>  0 0.50511858E+03</rscale>
<asrwt>0</asrwt>
<pdfrwt beam="1">  1        2 0.14806833E+00 0.67477027E+03</pdfrwt>
<pdfrwt beam="2">  1       -2 0.76250533E-01 0.67477027E+03</pdfrwt>
<totfact> 0.41933235E+01</totfact>
</mgrwt>
</event>
<event>
 4    2  0.2930016E-007  0.8787095E+03  0.7818608E-02  0.9561112E-01
          2   -1    0    0  501    0  0.00000000000E+00  0.00000000000E+00  0.18056921808E+04  0.18056921808E+04  0.25500000000E-02 0. -1.
         -2   -1    0    0    0  501 -0.00000000000E+00 -0.00000000000E+00 -0.31854242015E+03  0.31854242016E+03  0.25500000000E-02 0.  1.
    8880023    1    1    2    0    0  0.38883783434E+00 -0.58165282773E+03  0.11045005129E+04  0.14114006350E+04  0.65864270000E+03 0. -1.
    8880022    1    1    2    0    0 -0.38883783434E+00  0.58165282773E+03  0.38264924770E+03  0.71283396593E+03  0.15294330000E+03 0.  1.
<mgrwt>
<rscale>  0 0.79924389E+03</rscale>
<asrwt>0</asrwt>
<pdfrwt beam="1">  1        2 0.27779879E+00 0.87870949E+03</pdfrwt>
<pdfrwt beam="2">  1       -2 0.49006527E-01 0.87870949E+03</pdfrwt>
<totfact> 0.34225791E+01</totfact>
</mgrwt>
</event>
<event>
 4    2  0.2930016E-007  0.8048679E+03  0.7818608E-02  0.9700368E-01
          2   -1    0    0  501    0  0.00000000000E+00  0.00000000000E+00  0.13929371875E+04  0.13929371875E+04  0.25500000000E-02 0. -1.
         -2   -1    0    0    0  501 -0.00000000000E+00 -0.00000000000E+00 -0.45212558787E+03  0.45212558787E+03  0.25500000000E-02 0.  1.
    8880023    1    1    2    0    0  0.94476323071E+02 -0.45285356978E+03  0.10719610057E+04  0.13404897371E+04  0.65864270000E+03 0. -1.
    8880022    1    1    2    0    0 -0.94476323071E+02  0.45285356978E+03 -0.13114940601E+03  0.50457303832E+03  0.15294330000E+03 0.  0.
<mgrwt>
<rscale>  0 0.70994895E+03</rscale>
<asrwt>0</asrwt>
<pdfrwt beam="1">  1        2 0.21429803E+00 0.80486790E+03</pdfrwt>
<pdfrwt beam="2">  1       -2 0.69557784E-01 0.80486790E+03</pdfrwt>
<totfact> 0.27960176E+01</totfact>
</mgrwt>
</event>
<event>
 4    2  0.2930016E-007  0.6609676E+03  0.7818608E-02  0.1023186E+00
          2   -1    0    0  501    0  0.00000000000E+00  0.00000000000E+00  0.25371984447E+04  0.25371984447E+04  0.25500000000E-02 0. -1.
         -2   -1    0    0    0  501 -0.00000000000E+00 -0.00000000000E+00 -0.44261197981E+03  0.44261197982E+03  0.25500000000E-02 0.  1.
    8880023    1    1    2    0    0  0.86181154990E+01  0.54714065863E+02  0.24773012515E+04  0.25639616998E+04  0.65864270000E+03 0. -1.
    8880022    1    1    2    0    0 -0.86181154990E+01 -0.54714065863E+02 -0.38271478665E+03  0.41584872472E+03  0.15294330000E+03 0.  0.
<mgrwt>
<rscale>  0 0.46554098E+03</rscale>
<asrwt>0</asrwt>
<pdfrwt beam="1">  1        2 0.39033824E+00 0.66096755E+03</pdfrwt>
<pdfrwt beam="2">  1       -2 0.68094148E-01 0.66096755E+03</pdfrwt>
<totfact> 0.69840549E+00</totfact>
</mgrwt>
</event>
<event>
 4    2  0.2930016E-007  0.1012607E+04  0.7818608E-02  0.9365247E-01
          2   -1    0    0  501    0  0.00000000000E+00  0.00000000000E+00  0.15283270665E+04  0.15283270665E+04  0.25500000000E-02 0. -1.
         -2   -1    0    0    0  501 -0.00000000000E+00 -0.00000000000E+00 -0.78826283297E+03  0.78826283297E+03  0.25500000000E-02 0.  1.
    8880023    1    1    2    0    0  0.72216997475E+03 -0.26463739080E+03  0.10633625068E+04  0.14683706780E+04  0.65864270000E+03 0.  0.
    8880022    1    1    2    0    0 -0.72216997475E+03  0.26463739080E+03 -0.32329827327E+03  0.84821922140E+03  0.15294330000E+03 0.  0.
<mgrwt>
<rscale>  0 0.94991770E+03</rscale>
<asrwt>0</asrwt>
<pdfrwt beam="1">  1        2 0.23512724E+00 0.10126068E+04</pdfrwt>
<pdfrwt beam="2">  1       -2 0.12127121E+00 0.10126068E+04</pdfrwt>
<totfact> 0.62828333E+00</totfact>
</mgrwt>
</event>
<event>
 4    2  0.2930016E-007  0.7537860E+03  0.7818608E-02  0.9821469E-01
          2   -1    0    0  501    0  0.00000000000E+00  0.00000000000E+00  0.21616862350E+04  0.21616862350E+04  0.25500000000E-02 0. -1.
         -2   -1    0    0    0  501 -0.00000000000E+00 -0.00000000000E+00 -0.25383629180E+03  0.25383629182E+03  0.25500000000E-02 0.  1.
    8880023    1    1    2    0    0  0.26394450105E+03  0.25439434093E+03  0.18703682272E+04  0.20165492039E+04  0.65864270000E+03 0. -1.
    8880022    1    1    2    0    0 -0.26394450105E+03 -0.25439434093E+03  0.37481716010E+02  0.39897332289E+03  0.15294330000E+03 0.  0.
<mgrwt>
<rscale>  0 0.64223029E+03</rscale>
<asrwt>0</asrwt>
<pdfrwt beam="1">  1        2 0.33256712E+00 0.75378604E+03</pdfrwt>
<pdfrwt beam="2">  1       -2 0.39051737E-01 0.75378604E+03</pdfrwt>
<totfact> 0.34797859E+01</totfact>
</mgrwt>
</event>
<event>
 4    2  0.2930016E-007  0.8099544E+03  0.7818608E-02  0.9689672E-01
         -2   -1    0    0    0  501 -0.00000000000E+00  0.00000000000E+00  0.71957273827E+03  0.71957273827E+03  0.25500000000E-02 0.  1.
          2   -1    0    0  501    0  0.00000000000E+00 -0.00000000000E+00 -0.86976210924E+03  0.86976210925E+03  0.25500000000E-02 0. -1.
    8880023    1    1    2    0    0 -0.45768686118E+03  0.11286588674E+03 -0.52739478679E+03  0.96652544648E+03  0.65864270000E+03 0. -1.
    8880022    1    1    2    0    0  0.45768686118E+03 -0.11286588674E+03  0.37720541581E+03  0.62280940104E+03  0.15294330000E+03 0.  1.
<mgrwt>
<rscale>  0 0.71635067E+03</rscale>
<asrwt>0</asrwt>
<pdfrwt beam="1">  1        2 0.13380955E+00 0.80995443E+03</pdfrwt>
<pdfrwt beam="2">  1       -2 0.11070350E+00 0.80995443E+03</pdfrwt>
<totfact> 0.20080521E+01</totfact>
</mgrwt>
</event>
<event>
 4    2  0.2930016E-007  0.7184153E+03  0.7818608E-02  0.9927985E-01
         -2   -1    0    0    0  501 -0.00000000000E+00  0.00000000000E+00  0.30182695228E+03  0.30182695229E+03  0.25500000000E-02 0.  1.
          2   -1    0    0  501    0  0.00000000000E+00 -0.00000000000E+00 -0.17271403647E+04  0.17271403648E+04  0.25500000000E-02 0. -1.
    8880023    1    1    2    0    0 -0.64562756857E+02  0.27953894096E+03 -0.15276314222E+04  0.16881286496E+04  0.65864270000E+03 0. -1.
    8880022    1    1    2    0    0  0.64562756857E+02 -0.27953894096E+03  0.10231800978E+03  0.34083866744E+03  0.15294330000E+03 0.  0.
<mgrwt>
<rscale>  0 0.58923984E+03</rscale>
<asrwt>0</asrwt>
<pdfrwt beam="1">  1        2 0.26571390E+00 0.71841532E+03</pdfrwt>
<pdfrwt beam="2">  1       -2 0.46434917E-01 0.71841532E+03</pdfrwt>
<totfact> 0.42885162E+01</totfact>
</mgrwt>
</event>
<event>
 4    2  0.2930016E-007  0.8548469E+03  0.7818608E-02  0.9602796E-01
          2   -1    0    0  501    0  0.00000000000E+00  0.00000000000E+00  0.10946611034E+04  0.10946611034E+04  0.25500000000E-02 0. -1.
         -2   -1    0    0    0  501 -0.00000000000E+00 -0.00000000000E+00 -0.46406018957E+03  0.46406018958E+03  0.25500000000E-02 0.  1.
    8880023    1    1    2    0    0  0.38951107987E+03  0.38109590647E+03  0.31752598232E+03  0.91191333304E+03  0.65864270000E+03 0.  0.
    8880022    1    1    2    0    0 -0.38951107987E+03 -0.38109590647E+03  0.31307493147E+03  0.64680795990E+03  0.15294330000E+03 0. -1.
<mgrwt>
<rscale>  0 0.77111371E+03</rscale>
<asrwt>0</asrwt>
<pdfrwt beam="1">  1        2 0.16840940E+00 0.85484687E+03</pdfrwt>
<pdfrwt beam="2">  1       -2 0.71393875E-01 0.85484687E+03</pdfrwt>
<totfact> 0.39374971E+01</totfact>
</mgrwt>
</event>
<event>
 4    2  0.2930016E-007  0.6685892E+03  0.7818608E-02  0.1016695E+00
         -2   -1    0    0    0  501 -0.00000000000E+00  0.00000000000E+00  0.18548502823E+03  0.18548502825E+03  0.25500000000E-02 0.  1.
          2   -1    0    0  501    0  0.00000000000E+00 -0.00000000000E+00 -0.17493461073E+04  0.17493461073E+04  0.25500000000E-02 0. -1.
    8880023    1    1    2    0    0 -0.11477545907E+03 -0.52848905438E+01 -0.16054199704E+04  0.17390758533E+04  0.65864270000E+03 0. -1.
    8880022    1    1    2    0    0  0.11477545907E+03  0.52848905438E+01  0.41558891273E+02  0.19575528226E+03  0.15294330000E+03 0.  0.
<mgrwt>
<rscale>  0 0.48898356E+03</rscale>
<asrwt>0</asrwt>
<pdfrwt beam="1">  1        2 0.26913016E+00 0.66858922E+03</pdfrwt>
<pdfrwt beam="2">  1       -2 0.28536159E-01 0.66858922E+03</pdfrwt>
<totfact> 0.10668351E+02</totfact>
</mgrwt>
</event>
<event>
 4    2  0.2930016E-007  0.6952394E+03  0.7818608E-02  0.1001755E+00
         -2   -1    0    0    0  501 -0.00000000000E+00  0.00000000000E+00  0.84179743691E+03  0.84179743691E+03  0.25500000000E-02 0.  1.
          2   -1    0    0  501    0  0.00000000000E+00 -0.00000000000E+00 -0.38398182564E+03  0.38398182565E+03  0.25500000000E-02 0. -1.
    8880023    1    1    2    0    0  0.17154584657E+03 -0.14184372824E+03  0.11623091801E+01  0.69524037422E+03  0.65864270000E+03 0. -1.
    8880022    1    1    2    0    0 -0.17154584657E+03  0.14184372824E+03  0.45665330209E+03  0.53053888834E+03  0.15294330000E+03 0.  0.
<mgrwt>
<rscale>  0 0.54887186E+03</rscale>
<asrwt>0</asrwt>
<pdfrwt beam="1">  1        2 0.59074128E-01 0.69523940E+03</pdfrwt>
<pdfrwt beam="2">  1       -2 0.12950730E+00 0.69523940E+03</pdfrwt>
<totfact> 0.37081079E+01</totfact>
</mgrwt>
</event>
<event>
 4    2  0.2930016E-007  0.1209751E+04  0.7818608E-02  0.9147701E-01
          2   -1    0    0  501    0  0.00000000000E+00  0.00000000000E+00  0.11902806720E+04  0.11902806720E+04  0.25500000000E-02 0. -1.
         -2   -1    0    0    0  501 -0.00000000000E+00 -0.00000000000E+00 -0.10610987741E+04  0.10610987741E+04  0.25500000000E-02 0.  1.
    8880023    1    1    2    0    0 -0.10033646580E+04 -0.15148171134E+03  0.18427443325E+03  0.12237052827E+04  0.65864270000E+03 0.  0.
    8880022    1    1    2    0    0  0.10033646580E+04  0.15148171134E+03 -0.55092535284E+02  0.10276741635E+04  0.15294330000E+03 0.  0.
<mgrwt>
<rscale>  0 0.11609930E+04</rscale>
<asrwt>0</asrwt>
<pdfrwt beam="1">  1        2 0.18312010E+00 0.12097510E+04</pdfrwt>
<pdfrwt beam="2">  1       -2 0.16324597E+00 0.12097510E+04</pdfrwt>
<totfact> 0.44459334E+00</totfact>
</mgrwt>
</event>
<event>
 4    2  0.2930016E-007  0.8132168E+03  0.7818608E-02  0.9682915E-01
          2   -1    0    0  501    0  0.00000000000E+00  0.00000000000E+00  0.13138228047E+04  0.13138228047E+04  0.25500000000E-02 0. -1.
         -2   -1    0    0    0  501 -0.00000000000E+00 -0.00000000000E+00 -0.67339069201E+03  0.67339069201E+03  0.25500000000E-02 0.  1.
    8880023    1    1    2    0    0 -0.43422147373E+03  0.19739064547E+03  0.10584646202E+04  0.13347917117E+04  0.65864270000E+03 0. -1.
    8880022    1    1    2    0    0  0.43422147373E+03 -0.19739064547E+03 -0.41803250753E+03  0.65242178499E+03  0.15294330000E+03 0.  0.
<mgrwt>
<rscale>  0 0.72043199E+03</rscale>
<asrwt>0</asrwt>
<pdfrwt beam="1">  1        2 0.20212658E+00 0.81321680E+03</pdfrwt>
<pdfrwt beam="2">  1       -2 0.10359857E+00 0.81321680E+03</pdfrwt>
<totfact> 0.12486539E+01</totfact>
</mgrwt>
</event>
<event>
 4    2  0.2930016E-007  0.8467896E+03  0.7818608E-02  0.9617508E-01
         -2   -1    0    0    0  501 -0.00000000000E+00  0.00000000000E+00  0.10212333992E+04  0.10212333992E+04  0.25500000000E-02 0.  1.
          2   -1    0    0  501    0  0.00000000000E+00 -0.00000000000E+00 -0.22025395873E+04  0.22025395873E+04  0.25500000000E-02 0. -1.
    8880023    1    1    2    0    0 -0.52760495789E+03  0.69824612945E+02 -0.20361707861E+04  0.22052310865E+04  0.65864270000E+03 0. -1.
    8880022    1    1    2    0    0  0.52760495789E+03 -0.69824612945E+02  0.85486459805E+03  0.10185419001E+04  0.15294330000E+03 0.  0.
<mgrwt>
<rscale>  0 0.76148124E+03</rscale>
<asrwt>0</asrwt>
<pdfrwt beam="1">  1        2 0.33885224E+00 0.84678963E+03</pdfrwt>
<pdfrwt beam="2">  1       -2 0.15711283E+00 0.84678963E+03</pdfrwt>
<totfact> 0.13966953E+00</totfact>
</mgrwt>
</event>
<event>
 4    2  0.2930016E-007  0.7341219E+03  0.7818608E-02  0.9877413E-01
          2   -1    0    0  501    0  0.00000000000E+00  0.00000000000E+00  0.11867220603E+04  0.11867220603E+04  0.25500000000E-02 0. -1.
         -2   -1    0    0    0  501 -0.00000000000E+00 -0.00000000000E+00 -0.25528292802E+03  0.25528292803E+03  0.25500000000E-02 0.  1.
    8880023    1    1    2    0    0 -0.31258686407E+03 -0.86105441476E+02  0.54086405040E+03  0.91184912235E+03  0.65864270000E+03 0. -1.
    8880022    1    1    2    0    0  0.31258686407E+03  0.86105441476E+02  0.39057508191E+03  0.53015586601E+03  0.15294330000E+03 0.  0.
<mgrwt>
<rscale>  0 0.61368557E+03</rscale>
<asrwt>0</asrwt>
<pdfrwt beam="1">  1        2 0.18257262E+00 0.73412186E+03</pdfrwt>
<pdfrwt beam="2">  1       -2 0.39274297E-01 0.73412186E+03</pdfrwt>
<totfact> 0.12006789E+02</totfact>
</mgrwt>
</event>
<event>
 4    2  0.2930016E-007  0.1870053E+04  0.7818608E-02  0.8684745E-01
         -2   -1    0    0    0  501 -0.00000000000E+00  0.00000000000E+00  0.30899360984E+04  0.30899360984E+04  0.25500000000E-02 0.  1.
          2   -1    0    0  501    0  0.00000000000E+00 -0.00000000000E+00 -0.18710330785E+04  0.18710330785E+04  0.25500000000E-02 0. -1.
    8880023    1    1    2    0    0 -0.12653423961E+04  0.12092126506E+04 -0.10080329236E+04  0.21244357357E+04  0.65864270000E+03 0.  0.
    8880022    1    1    2    0    0  0.12653423961E+04 -0.12092126506E+04  0.22269359435E+04  0.28365334413E+04  0.15294330000E+03 0.  0.
<mgrwt>
<rscale>  0 0.18410975E+04</rscale>
<asrwt>0</asrwt>
<pdfrwt beam="1">  1        2 0.28785125E+00 0.18700526E+04</pdfrwt>
<pdfrwt beam="2">  1       -2 0.47537478E+00 0.18700526E+04</pdfrwt>
<totfact> 0.16657374E-02</totfact>
</mgrwt>
</event>
<event>
 4    2  0.2930016E-007  0.1002387E+04  0.7818608E-02  0.9378442E-01
         -2   -1    0    0    0  501 -0.00000000000E+00  0.00000000000E+00  0.81206255820E+03  0.81206255821E+03  0.25500000000E-02 0.  1.
          2   -1    0    0  501    0  0.00000000000E+00 -0.00000000000E+00 -0.19321967747E+04  0.19321967747E+04  0.25500000000E-02 0. -1.
    8880023    1    1    2    0    0 -0.72551597704E+03  0.21117731049E+03 -0.15617697065E+04  0.18557758786E+04  0.65864270000E+03 0.  0.
    8880022    1    1    2    0    0  0.72551597704E+03 -0.21117731049E+03  0.44163549001E+03  0.88848345424E+03  0.15294330000E+03 0.  0.
<mgrwt>
<rscale>  0 0.93871297E+03</rscale>
<asrwt>0</asrwt>
<pdfrwt beam="1">  1        2 0.29726104E+00 0.10023869E+04</pdfrwt>
<pdfrwt beam="2">  1       -2 0.12493270E+00 0.10023869E+04</pdfrwt>
<totfact> 0.34903083E+00</totfact>
</mgrwt>
</event>
<event>
 4    2  0.2930016E-007  0.1153739E+04  0.7818608E-02  0.9203458E-01
          2   -1    0    0  501    0  0.00000000000E+00  0.00000000000E+00  0.87200029506E+03  0.87200029506E+03  0.25500000000E-02 0. -1.
         -2   -1    0    0    0  501 -0.00000000000E+00 -0.00000000000E+00 -0.16964029543E+04  0.16964029543E+04  0.25500000000E-02 0.  1.
    8880023    1    1    2    0    0 -0.19192792569E+03 -0.92761336930E+03  0.19314898313E+03  0.11697946946E+04  0.65864270000E+03 0.  0.
    8880022    1    1    2    0    0  0.19192792569E+03  0.92761336930E+03 -0.10175516424E+04  0.13986085548E+04  0.15294330000E+03 0.  0.
<mgrwt>
<rscale>  0 0.11017804E+04</rscale>
<asrwt>0</asrwt>
<pdfrwt beam="1">  1        2 0.13415389E+00 0.11537387E+04</pdfrwt>
<pdfrwt beam="2">  1       -2 0.26098507E+00 0.11537387E+04</pdfrwt>
<totfact> 0.16542405E+00</totfact>
</mgrwt>
</event>
<event>
 4    2  0.2930016E-007  0.9166111E+03  0.7818608E-02  0.9499875E-01
          2   -1    0    0  501    0  0.00000000000E+00  0.00000000000E+00  0.15313669182E+04  0.15313669182E+04  0.25500000000E-02 0. -1.
         -2   -1    0    0    0  501 -0.00000000000E+00 -0.00000000000E+00 -0.87579141321E+03  0.87579141322E+03  0.25500000000E-02 0.  1.
    8880023    1    1    2    0    0  0.60508605353E+03 -0.20059053153E+03  0.12310707770E+04  0.15348326156E+04  0.65864270000E+03 0.  0.
    8880022    1    1    2    0    0 -0.60508605353E+03  0.20059053153E+03 -0.57549527199E+03  0.87232571589E+03  0.15294330000E+03 0.  0.
<mgrwt>
<rscale>  0 0.84293046E+03</rscale>
<asrwt>0</asrwt>
<pdfrwt beam="1">  1        2 0.23559491E+00 0.91661110E+03</pdfrwt>
<pdfrwt beam="2">  1       -2 0.13473714E+00 0.91661110E+03</pdfrwt>
<totfact> 0.48475043E+00</totfact>
</mgrwt>
</event>
<event>
 4    2  0.2930016E-007  0.7339207E+03  0.7818608E-02  0.9878023E-01
         -2   -1    0    0    0  501 -0.00000000000E+00  0.00000000000E+00  0.20183044744E+03  0.20183044746E+03  0.25500000000E-02 0.  1.
          2   -1    0    0  501    0  0.00000000000E+00 -0.00000000000E+00 -0.27393257488E+04  0.27393257488E+04  0.25500000000E-02 0. -1.
    8880023    1    1    2    0    0  0.29661598834E+03  0.12980125119E+03 -0.24700522893E+04  0.25767805354E+04  0.65864270000E+03 0. -1.
    8880022    1    1    2    0    0 -0.29661598834E+03 -0.12980125119E+03 -0.67443012053E+02  0.36437566088E+03  0.15294330000E+03 0.  0.
<mgrwt>
<rscale>  0 0.61338306E+03</rscale>
<asrwt>0</asrwt>
<pdfrwt beam="1">  1        2 0.42143470E+00 0.73392071E+03</pdfrwt>
<pdfrwt beam="2">  1       -2 0.31050840E-01 0.73392071E+03</pdfrwt>
<totfact> 0.25463549E+01</totfact>
</mgrwt>
</event>
<event>
 4    2  0.2930016E-007  0.6883162E+03  0.7818608E-02  0.1004963E+00
          2   -1    0    0  501    0  0.00000000000E+00  0.00000000000E+00  0.33174887895E+04  0.33174887895E+04  0.25500000000E-02 0. -1.
         -2   -1    0    0    0  501 -0.00000000000E+00 -0.00000000000E+00 -0.78827644556E+02  0.78827644598E+02  0.25500000000E-02 0.  1.
    8880023    1    1    2    0    0 -0.55094155690E+02  0.19218120050E+03  0.28597250874E+04  0.29413953766E+04  0.65864270000E+03 0.  0.
    8880022    1    1    2    0    0  0.55094155690E+02 -0.19218120050E+03  0.37893605755E+03  0.45492105749E+03  0.15294330000E+03 0. -1.
<mgrwt>
<rscale>  0 0.53526449E+03</rscale>
<asrwt>0</asrwt>
<pdfrwt beam="1">  1        2 0.51038280E+00 0.68831620E+03</pdfrwt>
<pdfrwt beam="2">  1       -2 0.12127332E-01 0.68831620E+03</pdfrwt>
<totfact> 0.58450966E+01</totfact>
</mgrwt>
</event>
<event>
 4    2  0.2930016E-007  0.8475179E+03  0.7818608E-02  0.9616164E-01
         -2   -1    0    0    0  501 -0.00000000000E+00  0.00000000000E+00  0.54608468339E+03  0.54608468340E+03  0.25500000000E-02 0.  1.
          2   -1    0    0  501    0  0.00000000000E+00 -0.00000000000E+00 -0.20131615525E+04  0.20131615525E+04  0.25500000000E-02 0. -1.
    8880023    1    1    2    0    0  0.37482277433E+03  0.37945269395E+03 -0.17440708822E+04  0.19390899689E+04  0.65864270000E+03 0. -1.
    8880022    1    1    2    0    0 -0.37482277433E+03 -0.37945269395E+03  0.27699401314E+03  0.62015626694E+03  0.15294330000E+03 0.  0.
<mgrwt>
<rscale>  0 0.76235502E+03</rscale>
<asrwt>0</asrwt>
<pdfrwt beam="1">  1        2 0.30971716E+00 0.84751794E+03</pdfrwt>
<pdfrwt beam="2">  1       -2 0.84013029E-01 0.84751794E+03</pdfrwt>
<totfact> 0.83018845E+00</totfact>
</mgrwt>
</event>
<event>
 4    2  0.2930016E-007  0.7015142E+03  0.7818608E-02  0.9990977E-01
         -2   -1    0    0    0  501 -0.00000000000E+00  0.00000000000E+00  0.80275489360E+03  0.80275489361E+03  0.25500000000E-02 0.  1.
          2   -1    0    0  501    0  0.00000000000E+00 -0.00000000000E+00 -0.37759859300E+03  0.37759859301E+03  0.25500000000E-02 0. -1.
    8880023    1    1    2    0    0  0.23602931127E+03 -0.51011174041E+02  0.42602550721E+02  0.70280663005E+03  0.65864270000E+03 0.  0.
    8880022    1    1    2    0    0 -0.23602931127E+03  0.51011174041E+02  0.38255374988E+03  0.47754685657E+03  0.15294330000E+03 0.  0.
<mgrwt>
<rscale>  0 0.56047665E+03</rscale>
<asrwt>0</asrwt>
<pdfrwt beam="1">  1        2 0.58092092E-01 0.70151421E+03</pdfrwt>
<pdfrwt beam="2">  1       -2 0.12350075E+00 0.70151421E+03</pdfrwt>
<totfact> 0.42549675E+01</totfact>
</mgrwt>
</event>
<event>
 4    2  0.2930016E-007  0.6756813E+03  0.7818608E-02  0.1011880E+00
         -2   -1    0    0    0  501 -0.00000000000E+00  0.00000000000E+00  0.87393395127E+03  0.87393395128E+03  0.25500000000E-02 0.  1.
          2   -1    0    0  501    0  0.00000000000E+00 -0.00000000000E+00 -0.10658045088E+04  0.10658045088E+04  0.25500000000E-02 0. -1.
    8880023    1    1    2    0    0  0.14099846757E+03 -0.53426461363E+02 -0.94211150663E+03  0.11593615708E+04  0.65864270000E+03 0. -1.
    8880022    1    1    2    0    0 -0.14099846757E+03  0.53426461363E+02  0.75024094910E+03  0.78037688930E+03  0.15294330000E+03 0.  0.
<mgrwt>
<rscale>  0 0.50734145E+03</rscale>
<asrwt>0</asrwt>
<pdfrwt beam="1">  1        2 0.16396993E+00 0.67568126E+03</pdfrwt>
<pdfrwt beam="2">  1       -2 0.13445138E+00 0.67568126E+03</pdfrwt>
<totfact> 0.93787129E+00</totfact>
</mgrwt>
</event>
<event>
 4    2  0.2930016E-007  0.6962279E+03  0.7818608E-02  0.1001322E+00
         -2   -1    0    0    0  501 -0.00000000000E+00  0.00000000000E+00  0.23974673211E+03  0.23974673212E+03  0.25500000000E-02 0.  1.
          2   -1    0    0  501    0  0.00000000000E+00 -0.00000000000E+00 -0.11254743167E+04  0.11254743168E+04  0.25500000000E-02 0. -1.
    8880023    1    1    2    0    0  0.21113494449E+03 -0.79656278783E+02 -0.83628507497E+03  0.10881663570E+04  0.65864270000E+03 0.  0.
    8880022    1    1    2    0    0 -0.21113494449E+03  0.79656278783E+02 -0.49442509671E+02  0.27705469192E+03  0.15294330000E+03 0.  0.
<mgrwt>
<rscale>  0 0.55074167E+03</rscale>
<asrwt>0</asrwt>
<pdfrwt beam="1">  1        2 0.17314989E+00 0.69622790E+03</pdfrwt>
<pdfrwt beam="2">  1       -2 0.36884113E-01 0.69622790E+03</pdfrwt>
<totfact> 0.14792574E+02</totfact>
</mgrwt>
</event>
<event>
 4    2  0.2930016E-007  0.7326280E+03  0.7818608E-02  0.9881966E-01
          2   -1    0    0  501    0  0.00000000000E+00  0.00000000000E+00  0.25111437306E+04  0.25111437306E+04  0.25500000000E-02 0. -1.
         -2   -1    0    0    0  501 -0.00000000000E+00 -0.00000000000E+00 -0.14949746002E+03  0.14949746004E+03  0.25500000000E-02 0.  1.
    8880023    1    1    2    0    0 -0.27075492238E+03  0.17212016719E+03  0.20858272427E+04  0.22107507939E+04  0.65864270000E+03 0. -1.
    8880022    1    1    2    0    0  0.27075492238E+03 -0.17212016719E+03  0.27581902787E+03  0.44989039676E+03  0.15294330000E+03 0.  1.
<mgrwt>
<rscale>  0 0.61143303E+03</rscale>
<asrwt>0</asrwt>
<pdfrwt beam="1">  1        2 0.38632980E+00 0.73262800E+03</pdfrwt>
<pdfrwt beam="2">  1       -2 0.22999610E-01 0.73262800E+03</pdfrwt>
<totfact> 0.59564264E+01</totfact>
</mgrwt>
</event>
<event>
 4    2  0.2930016E-007  0.1222657E+04  0.7818608E-02  0.9135407E-01
          2   -1    0    0  501    0  0.00000000000E+00  0.00000000000E+00  0.34732499869E+04  0.34732499869E+04  0.25500000000E-02 0. -1.
         -2   -1    0    0    0  501 -0.00000000000E+00 -0.00000000000E+00 -0.48990472907E+03  0.48990472908E+03  0.25500000000E-02 0.  1.
    8880023    1    1    2    0    0 -0.98508225004E+03  0.30115189456E+03  0.59939634914E+03  0.13616775288E+04  0.65864270000E+03 0. -1.
    8880022    1    1    2    0    0  0.98508225004E+03 -0.30115189456E+03  0.23839489087E+04  0.26014771872E+04  0.15294330000E+03 0.  0.
<mgrwt>
<rscale>  0 0.11745748E+04</rscale>
<asrwt>0</asrwt>
<pdfrwt beam="1">  1        2 0.53434613E+00 0.12226568E+04</pdfrwt>
<pdfrwt beam="2">  1       -2 0.75369961E-01 0.12226568E+04</pdfrwt>
<totfact> 0.13410652E+00</totfact>
</mgrwt>
</event>
<event>
 4    2  0.2930016E-007  0.7152811E+03  0.7818608E-02  0.9938889E-01
          2   -1    0    0  501    0  0.00000000000E+00  0.00000000000E+00  0.24348762679E+04  0.24348762679E+04  0.25500000000E-02 0. -1.
         -2   -1    0    0    0  501 -0.00000000000E+00 -0.00000000000E+00 -0.52716195791E+03  0.52716195792E+03  0.25500000000E-02 0.  1.
    8880023    1    1    2    0    0  0.25273241198E+03  0.11808127160E+03  0.23277244982E+04  0.24351444320E+04  0.65864270000E+03 0. -1.
    8880022    1    1    2    0    0 -0.25273241198E+03 -0.11808127160E+03 -0.42001018822E+03  0.52689379384E+03  0.15294330000E+03 0.  0.
<mgrwt>
<rscale>  0 0.58413025E+03</rscale>
<asrwt>0</asrwt>
<pdfrwt beam="1">  1        2 0.37459634E+00 0.71528111E+03</pdfrwt>
<pdfrwt beam="2">  1       -2 0.81101841E-01 0.71528111E+03</pdfrwt>
<totfact> 0.53648230E+00</totfact>
</mgrwt>
</event>
<event>
 4    2  0.2930016E-007  0.7083278E+03  0.7818608E-02  0.9964264E-01
         -2   -1    0    0    0  501 -0.00000000000E+00  0.00000000000E+00  0.17327620665E+03  0.17327620667E+03  0.25500000000E-02 0.  1.
          2   -1    0    0  501    0  0.00000000000E+00 -0.00000000000E+00 -0.22027322409E+04  0.22027322409E+04  0.25500000000E-02 0. -1.
    8880023    1    1    2    0    0  0.21127992301E+03 -0.15257429651E+03 -0.64183310663E+03  0.95586508716E+03  0.65864270000E+03 0.  1.
    8880022    1    1    2    0    0 -0.21127992301E+03  0.15257429651E+03 -0.13876229277E+04  0.14201433604E+04  0.15294330000E+03 0.  0.
<mgrwt>
<rscale>  0 0.57245373E+03</rscale>
<asrwt>0</asrwt>
<pdfrwt beam="1">  1        2 0.33888186E+00 0.70832784E+03</pdfrwt>
<pdfrwt beam="2">  1       -2 0.26657880E-01 0.70832784E+03</pdfrwt>
<totfact> 0.68081512E+01</totfact>
</mgrwt>
</event>
<event>
 4    2  0.2930016E-007  0.7289537E+03  0.7818608E-02  0.9893378E-01
          2   -1    0    0  501    0  0.00000000000E+00  0.00000000000E+00  0.99499900240E+03  0.99499900240E+03  0.25500000000E-02 0. -1.
         -2   -1    0    0    0  501 -0.00000000000E+00 -0.00000000000E+00 -0.50147087334E+03  0.50147087335E+03  0.25500000000E-02 0.  1.
    8880023    1    1    2    0    0  0.24172522686E+03 -0.19781843352E+03  0.76394193277E+03  0.10559264656E+04  0.65864270000E+03 0. -1.
    8880022    1    1    2    0    0 -0.24172522686E+03  0.19781843352E+03 -0.27041380371E+03  0.44054341011E+03  0.15294330000E+03 0.  0.
<mgrwt>
<rscale>  0 0.60583290E+03</rscale>
<asrwt>0</asrwt>
<pdfrwt beam="1">  1        2 0.15307677E+00 0.72895365E+03</pdfrwt>
<pdfrwt beam="2">  1       -2 0.77149366E-01 0.72895365E+03</pdfrwt>
<totfact> 0.38726978E+01</totfact>
</mgrwt>
</event>
<event>
 4    2  0.2930016E-007  0.7260904E+03  0.7818608E-02  0.9902492E-01
         -2   -1    0    0    0  501 -0.00000000000E+00  0.00000000000E+00  0.12728131092E+04  0.12728131092E+04  0.25500000000E-02 0.  1.
          2   -1    0    0  501    0  0.00000000000E+00 -0.00000000000E+00 -0.85382883237E+03  0.85382883237E+03  0.25500000000E-02 0. -1.
    8880023    1    1    2    0    0 -0.59437371516E+02  0.29977360379E+03 -0.66835299034E+03  0.98686520894E+03  0.65864270000E+03 0. -1.
    8880022    1    1    2    0    0  0.59437371516E+02 -0.29977360379E+03  0.10873372672E+04  0.11397767327E+04  0.15294330000E+03 0.  0.
<mgrwt>
<rscale>  0 0.60140647E+03</rscale>
<asrwt>0</asrwt>
<pdfrwt beam="1">  1        2 0.13135828E+00 0.72609037E+03</pdfrwt>
<pdfrwt beam="2">  1       -2 0.19581740E+00 0.72609037E+03</pdfrwt>
<totfact> 0.45834583E+00</totfact>
</mgrwt>
</event>
<event>
 4    2  0.2930016E-007  0.6940915E+03  0.7818608E-02  0.1002265E+00
          2   -1    0    0  501    0  0.00000000000E+00  0.00000000000E+00  0.71757990910E+03  0.71757990911E+03  0.25500000000E-02 0. -1.
         -2   -1    0    0    0  501 -0.00000000000E+00 -0.00000000000E+00 -0.69213958850E+03  0.69213958850E+03  0.25500000000E-02 0.  1.
    8880023    1    1    2    0    0  0.34448409359E+02  0.21625467026E+03  0.50665965076E+03  0.85934101688E+03  0.65864270000E+03 0.  0.
    8880022    1    1    2    0    0 -0.34448409359E+02 -0.21625467026E+03 -0.48121933016E+03  0.55037848073E+03  0.15294330000E+03 0.  0.
<mgrwt>
<rscale>  0 0.54667919E+03</rscale>
<asrwt>0</asrwt>
<pdfrwt beam="1">  1        2 0.11039691E+00 0.69409148E+03</pdfrwt>
<pdfrwt beam="2">  1       -2 0.10648301E+00 0.69409148E+03</pdfrwt>
<totfact> 0.28741513E+01</totfact>
</mgrwt>
</event>
<event>
 4    2  0.2930016E-007  0.6756238E+03  0.7818608E-02  0.1011916E+00
         -2   -1    0    0    0  501 -0.00000000000E+00  0.00000000000E+00  0.11713768311E+03  0.11713768314E+03  0.25500000000E-02 0.  1.
          2   -1    0    0  501    0  0.00000000000E+00 -0.00000000000E+00 -0.20801818509E+04  0.20801818509E+04  0.25500000000E-02 0. -1.
    8880023    1    1    2    0    0  0.40209488956E+02  0.14505329504E+03 -0.18148542406E+04  0.19365338578E+04  0.65864270000E+03 0. -1.
    8880022    1    1    2    0    0 -0.40209488956E+02 -0.14505329504E+03 -0.14818992714E+03  0.26078567623E+03  0.15294330000E+03 0.  0.
<mgrwt>
<rscale>  0 0.50720218E+03</rscale>
<asrwt>0</asrwt>
<pdfrwt beam="1">  1        2 0.32002795E+00 0.67562376E+03</pdfrwt>
<pdfrwt beam="2">  1       -2 0.18021184E-01 0.67562376E+03</pdfrwt>
<totfact> 0.15951911E+02</totfact>
</mgrwt>
</event>
<event>
 4    2  0.2930016E-007  0.7785548E+03  0.7818608E-02  0.9759243E-01
         -2   -1    0    0    0  501 -0.00000000000E+00  0.00000000000E+00  0.97564902708E+03  0.97564902709E+03  0.25500000000E-02 0.  1.
          2   -1    0    0  501    0  0.00000000000E+00 -0.00000000000E+00 -0.12537203952E+04  0.12537203952E+04  0.25500000000E-02 0. -1.
    8880023    1    1    2    0    0 -0.21594229831E+03  0.35455087334E+03 -0.10693877482E+04  0.13227765345E+04  0.65864270000E+03 0. -1.
    8880022    1    1    2    0    0  0.21594229831E+03 -0.35455087334E+03  0.79131638002E+03  0.90659288784E+03  0.15294330000E+03 0.  0.
<mgrwt>
<rscale>  0 0.67596438E+03</rscale>
<asrwt>0</asrwt>
<pdfrwt beam="1">  1        2 0.19288006E+00 0.77855482E+03</pdfrwt>
<pdfrwt beam="2">  1       -2 0.15009985E+00 0.77855482E+03</pdfrwt>
<totfact> 0.53589561E+00</totfact>
</mgrwt>
</event>
<event>
 4    2  0.2930016E-007  0.9513581E+03  0.7818608E-02  0.9448163E-01
         -2   -1    0    0    0  501 -0.00000000000E+00  0.00000000000E+00  0.28454988763E+03  0.28454988764E+03  0.25500000000E-02 0.  1.
          2   -1    0    0  501    0  0.00000000000E+00 -0.00000000000E+00 -0.24702259838E+04  0.24702259838E+04  0.25500000000E-02 0. -1.
    8880023    1    1    2    0    0 -0.26756394868E+03 -0.63220365911E+03 -0.10319019565E+04  0.14035326100E+04  0.65864270000E+03 0.  0.
    8880022    1    1    2    0    0  0.26756394868E+03  0.63220365911E+03 -0.11537741398E+04  0.13512432615E+04  0.15294330000E+03 0.  0.
<mgrwt>
<rscale>  0 0.88215874E+03</rscale>
<asrwt>0</asrwt>
<pdfrwt beam="1">  1        2 0.38003475E+00 0.95135805E+03</pdfrwt>
<pdfrwt beam="2">  1       -2 0.43776908E-01 0.95135805E+03</pdfrwt>
<totfact> 0.18234119E+01</totfact>
</mgrwt>
</event>
<event>
 4    2  0.2930016E-007  0.1064991E+04  0.7818608E-02  0.9301074E-01
         -2   -1    0    0    0  501 -0.00000000000E+00  0.00000000000E+00  0.65700593593E+03  0.65700593593E+03  0.25500000000E-02 0.  1.
          2   -1    0    0  501    0  0.00000000000E+00 -0.00000000000E+00 -0.24970399050E+04  0.24970399050E+04  0.25500000000E-02 0. -1.
    8880023    1    1    2    0    0 -0.25048420535E+03 -0.79853183775E+03 -0.20208347530E+04  0.22842895478E+04  0.65864270000E+03 0.  0.
    8880022    1    1    2    0    0  0.25048420535E+03  0.79853183775E+03  0.18080078389E+03  0.86975629316E+03  0.15294330000E+03 0.  0.
<mgrwt>
<rscale>  0 0.10068407E+04</rscale>
<asrwt>0</asrwt>
<pdfrwt beam="1">  1        2 0.38415998E+00 0.10649909E+04</pdfrwt>
<pdfrwt beam="2">  1       -2 0.10107784E+00 0.10649909E+04</pdfrwt>
<totfact> 0.28129616E+00</totfact>
</mgrwt>
</event>
<event>
 4    2  0.2930016E-007  0.8586667E+03  0.7818608E-02  0.9595940E-01
         -2   -1    0    0    0  501 -0.00000000000E+00  0.00000000000E+00  0.15012133455E+04  0.15012133455E+04  0.25500000000E-02 0.  1.
          2   -1    0    0  501    0  0.00000000000E+00 -0.00000000000E+00 -0.38499688492E+03  0.38499688493E+03  0.25500000000E-02 0. -1.
    8880023    1    1    2    0    0 -0.36762850066E+03  0.41030185320E+03  0.97121460764E+03  0.12963665938E+04  0.65864270000E+03 0.  0.
    8880022    1    1    2    0    0  0.36762850066E+03 -0.41030185320E+03  0.14500185290E+03  0.58984363656E+03  0.15294330000E+03 0.  0.
<mgrwt>
<rscale>  0 0.77565514E+03</rscale>
<asrwt>0</asrwt>
<pdfrwt beam="1">  1        2 0.59230289E-01 0.85866672E+03</pdfrwt>
<pdfrwt beam="2">  1       -2 0.23095590E+00 0.85866672E+03</pdfrwt>
<totfact> 0.70874635E+00</totfact>
</mgrwt>
</event>
<event>
 4    2  0.3660436E-007  0.7816082E+03  0.7818608E-02  0.9752073E-01
          2   -1    0    0  501    0  0.00000000000E+00  0.00000000000E+00  0.15265980578E+04  0.15265980578E+04  0.25500000000E-02 0. -1.
         -2   -1    0    0    0  501 -0.00000000000E+00 -0.00000000000E+00 -0.28020119322E+04  0.28020119322E+04  0.25500000000E-02 0.  1.
    8880023    1    1    2    0    0 -0.96708385560E+02  0.40957137064E+03  0.14067631603E+04  0.16093147656E+04  0.65864270000E+03 0. -1.
    8880022    1    1    2    0    0  0.96708385560E+02 -0.40957137064E+03 -0.26821770347E+04  0.27192952245E+04  0.15294330000E+03 0.  0.
<mgrwt>
<rscale>  0 0.67999264E+03</rscale>
<asrwt>0</asrwt>
<pdfrwt beam="1">  1        2 0.23486124E+00 0.78160823E+03</pdfrwt>
<pdfrwt beam="2">  1       -2 0.43107876E+00 0.78160823E+03</pdfrwt>
<totfact> 0.60877678E-02</totfact>
</mgrwt>
</event>
<event>
 4    2  0.2930016E-007  0.6807318E+03  0.7818608E-02  0.1008913E+00
          2   -1    0    0  501    0  0.00000000000E+00  0.00000000000E+00  0.13966694251E+04  0.13966694251E+04  0.25500000000E-02 0. -1.
         -2   -1    0    0    0  501 -0.00000000000E+00 -0.00000000000E+00 -0.14876754648E+03  0.14876754650E+03  0.25500000000E-02 0.  1.
    8880023    1    1    2    0    0  0.17051271703E+03  0.22604421066E+02  0.95942425289E+03  0.11763888175E+04  0.65864270000E+03 0.  0.
    8880022    1    1    2    0    0 -0.17051271703E+03 -0.22604421066E+02  0.28847762568E+03  0.36904815411E+03  0.15294330000E+03 0.  1.
<mgrwt>
<rscale>  0 0.51909057E+03</rscale>
<asrwt>0</asrwt>
<pdfrwt beam="1">  1        2 0.21487222E+00 0.68073178E+03</pdfrwt>
<pdfrwt beam="2">  1       -2 0.22887315E-01 0.68073178E+03</pdfrwt>
<totfact> 0.24849294E+02</totfact>
</mgrwt>
</event>
<event>
 4    2  0.2930016E-007  0.8824647E+03  0.7818608E-02  0.9554789E-01
         -2   -1    0    0    0  501 -0.00000000000E+00  0.00000000000E+00  0.72225729589E+03  0.72225729590E+03  0.25500000000E-02 0.  1.
          2   -1    0    0  501    0  0.00000000000E+00 -0.00000000000E+00 -0.12769804823E+04  0.12769804823E+04  0.25500000000E-02 0. -1.
    8880023    1    1    2    0    0 -0.36172281286E+03 -0.46269899899E+03 -0.93290253435E+03  0.12841538467E+04  0.65864270000E+03 0.  0.
    8880022    1    1    2    0    0  0.36172281286E+03  0.46269899899E+03  0.37817934791E+03  0.71508393158E+03  0.15294330000E+03 0.  0.
<mgrwt>
<rscale>  0 0.80362228E+03</rscale>
<asrwt>0</asrwt>
<pdfrwt beam="1">  1        2 0.19645854E+00 0.88246471E+03</pdfrwt>
<pdfrwt beam="2">  1       -2 0.11111651E+00 0.88246471E+03</pdfrwt>
<totfact> 0.10990008E+01</totfact>
</mgrwt>
</event>
<event>
 4    2  0.2930016E-007  0.8194807E+03  0.7818608E-02  0.9670157E-01
          2   -1    0    0  501    0  0.00000000000E+00  0.00000000000E+00  0.17302569251E+04  0.17302569251E+04  0.25500000000E-02 0. -1.
         -2   -1    0    0    0  501 -0.00000000000E+00 -0.00000000000E+00 -0.49967029268E+03  0.49967029269E+03  0.25500000000E-02 0.  1.
    8880023    1    1    2    0    0  0.29852629539E+03 -0.38551330035E+03  0.14564990364E+04  0.16712085756E+04  0.65864270000E+03 0. -1.
    8880022    1    1    2    0    0 -0.29852629539E+03  0.38551330035E+03 -0.22591240403E+03  0.55871864216E+03  0.15294330000E+03 0.  0.
<mgrwt>
<rscale>  0 0.72821761E+03</rscale>
<asrwt>0</asrwt>
<pdfrwt beam="1">  1        2 0.26619338E+00 0.81948073E+03</pdfrwt>
<pdfrwt beam="2">  1       -2 0.76872351E-01 0.81948073E+03</pdfrwt>
<totfact> 0.14539669E+01</totfact>
</mgrwt>
</event>
<event>
 4    2  0.2930016E-007  0.7019072E+03  0.7818608E-02  0.9989379E-01
          2   -1    0    0  501    0  0.00000000000E+00  0.00000000000E+00  0.10179592958E+04  0.10179592958E+04  0.25500000000E-02 0. -1.
         -2   -1    0    0    0  501 -0.00000000000E+00 -0.00000000000E+00 -0.25648427973E+03  0.25648427974E+03  0.25500000000E-02 0.  1.
    8880023    1    1    2    0    0  0.24148398202E+03 -0.23431043967E+02  0.38307823835E+03  0.79963908756E+03  0.65864270000E+03 0.  0.
    8880022    1    1    2    0    0 -0.24148398202E+03  0.23431043967E+02  0.37839677769E+03  0.47480448795E+03  0.15294330000E+03 0.  1.
<mgrwt>
<rscale>  0 0.56118388E+03</rscale>
<asrwt>0</asrwt>
<pdfrwt beam="1">  1        2 0.15660912E+00 0.70190721E+03</pdfrwt>
<pdfrwt beam="2">  1       -2 0.39459120E-01 0.70190721E+03</pdfrwt>
<totfact> 0.15123258E+02</totfact>
</mgrwt>
</event>
<event>
 4    2  0.2930016E-007  0.6608180E+03  0.7818608E-02  0.1023334E+00
          2   -1    0    0  501    0  0.00000000000E+00  0.00000000000E+00  0.14931508496E+04  0.14931508496E+04  0.25500000000E-02 0. -1.
         -2   -1    0    0    0  501 -0.00000000000E+00 -0.00000000000E+00 -0.72541944136E+03  0.72541944136E+03  0.25500000000E-02 0.  1.
    8880023    1    1    2    0    0  0.43113259251E+02  0.31804139392E+02  0.14094676531E+04  0.15566886419E+04  0.65864270000E+03 0. -1.
    8880022    1    1    2    0    0 -0.43113259251E+02 -0.31804139392E+02 -0.64173624485E+03  0.66188164907E+03  0.15294330000E+03 0.  0.
<mgrwt>
<rscale>  0 0.46502596E+03</rscale>
<asrwt>0</asrwt>
<pdfrwt beam="1">  1        2 0.22971552E+00 0.66081803E+03</pdfrwt>
<pdfrwt beam="2">  1       -2 0.11160299E+00 0.66081803E+03</pdfrwt>
<totfact> 0.84368100E+00</totfact>
</mgrwt>
</event>
<event>
 4    2  0.2930016E-007  0.1042288E+04  0.7818608E-02  0.9328210E-01
         -2   -1    0    0    0  501 -0.00000000000E+00  0.00000000000E+00  0.82799166999E+03  0.82799166999E+03  0.25500000000E-02 0.  1.
          2   -1    0    0  501    0  0.00000000000E+00 -0.00000000000E+00 -0.16100193590E+04  0.16100193590E+04  0.25500000000E-02 0. -1.
    8880023    1    1    2    0    0 -0.45217003688E+02 -0.80654136896E+03  0.29482565651E+03  0.10831832399E+04  0.65864270000E+03 0.  0.
    8880022    1    1    2    0    0  0.45217003688E+02  0.80654136896E+03 -0.10768533456E+04  0.13548277891E+04  0.15294330000E+03 0.  0.
<mgrwt>
<rscale>  0 0.98226725E+03</rscale>
<asrwt>0</asrwt>
<pdfrwt beam="1">  1        2 0.24769528E+00 0.10422878E+04</pdfrwt>
<pdfrwt beam="2">  1       -2 0.12738333E+00 0.10422878E+04</pdfrwt>
<totfact> 0.49817005E+00</totfact>
</mgrwt>
</event>
<event>
 4    2  0.2930016E-007  0.6641860E+03  0.7818608E-02  0.1020226E+00
          2   -1    0    0  501    0  0.00000000000E+00  0.00000000000E+00  0.41119362813E+04  0.41119362813E+04  0.25500000000E-02 0. -1.
         -2   -1    0    0    0  501 -0.00000000000E+00 -0.00000000000E+00 -0.51792651557E+02  0.51792651619E+02  0.25500000000E-02 0.  1.
    8880023    1    1    2    0    0  0.85240387320E+02  0.81759595212E+01  0.37420554352E+04  0.38005423109E+04  0.65864270000E+03 0.  0.
    8880022    1    1    2    0    0 -0.85240387320E+02 -0.81759595212E+01  0.31808819447E+03  0.36318662203E+03  0.15294330000E+03 0.  1.
<mgrwt>
<rscale>  0 0.47605018E+03</rscale>
<asrwt>0</asrwt>
<pdfrwt beam="1">  1        2 0.63260569E+00 0.66418595E+03</pdfrwt>
<pdfrwt beam="2">  1       -2 0.79680989E-02 0.66418595E+03</pdfrwt>
<totfact> 0.30828957E+01</totfact>
</mgrwt>
</event>
<event>
 4    2  0.2930016E-007  0.7057797E+03  0.7818608E-02  0.9974020E-01
         -2   -1    0    0    0  501 -0.00000000000E+00  0.00000000000E+00  0.43779747105E+03  0.43779747105E+03  0.25500000000E-02 0.  1.
          2   -1    0    0  501    0  0.00000000000E+00 -0.00000000000E+00 -0.89185135956E+03  0.89185135956E+03  0.25500000000E-02 0. -1.
    8880023    1    1    2    0    0 -0.25358522093E+03  0.30515154488E+01 -0.66209518468E+03  0.96772672581E+03  0.65864270000E+03 0. -1.
    8880022    1    1    2    0    0  0.25358522093E+03 -0.30515154488E+01  0.20804129617E+03  0.36192210480E+03  0.15294330000E+03 0.  0.
<mgrwt>
<rscale>  0 0.56804246E+03</rscale>
<asrwt>0</asrwt>
<pdfrwt beam="1">  1        2 0.13720790E+00 0.70577970E+03</pdfrwt>
<pdfrwt beam="2">  1       -2 0.67353457E-01 0.70577970E+03</pdfrwt>
<totfact> 0.61105629E+01</totfact>
</mgrwt>
</event>
<event>
 4    2  0.2930016E-007  0.7003528E+03  0.7818608E-02  0.9995741E-01
          2   -1    0    0  501    0  0.00000000000E+00  0.00000000000E+00  0.12681294756E+04  0.12681294756E+04  0.25500000000E-02 0. -1.
         -2   -1    0    0    0  501 -0.00000000000E+00 -0.00000000000E+00 -0.21573348257E+03  0.21573348258E+03  0.25500000000E-02 0.  1.
    8880023    1    1    2    0    0  0.23574888451E+03 -0.33260185194E+02  0.95565327461E+03  0.11848068045E+04  0.65864270000E+03 0. -1.
    8880022    1    1    2    0    0 -0.23574888451E+03  0.33260185194E+02  0.96742718418E+02  0.29905615367E+03  0.15294330000E+03 0.  0.
<mgrwt>
<rscale>  0 0.55837381E+03</rscale>
<asrwt>0</asrwt>
<pdfrwt beam="1">  1        2 0.19509684E+00 0.70035276E+03</pdfrwt>
<pdfrwt beam="2">  1       -2 0.33189767E-01 0.70035276E+03</pdfrwt>
<totfact> 0.14884222E+02</totfact>
</mgrwt>
</event>
<event>
 4    2  0.2930016E-007  0.9093147E+03  0.7818608E-02  0.9511241E-01
          2   -1    0    0  501    0  0.00000000000E+00  0.00000000000E+00  0.12697523441E+04  0.12697523441E+04  0.25500000000E-02 0. -1.
         -2   -1    0    0    0  501 -0.00000000000E+00 -0.00000000000E+00 -0.54673159765E+03  0.54673159766E+03  0.25500000000E-02 0.  1.
    8880023    1    1    2    0    0 -0.89597588955E+02  0.62049607257E+03  0.73782105708E+03  0.11709966791E+04  0.65864270000E+03 0. -1.
    8880022    1    1    2    0    0  0.89597588955E+02 -0.62049607257E+03 -0.14800310617E+02  0.64548726264E+03  0.15294330000E+03 0.  0.
<mgrwt>
<rscale>  0 0.83460128E+03</rscale>
<asrwt>0</asrwt>
<pdfrwt beam="1">  1        2 0.19534651E+00 0.90931475E+03</pdfrwt>
<pdfrwt beam="2">  1       -2 0.84112554E-01 0.90931475E+03</pdfrwt>
<totfact> 0.21327078E+01</totfact>
</mgrwt>
</event>
<event>
 4    2  0.2930016E-007  0.8680157E+03  0.7818608E-02  0.9579461E-01
         -2   -1    0    0    0  501 -0.00000000000E+00  0.00000000000E+00  0.59704584596E+03  0.59704584597E+03  0.25500000000E-02 0.  1.
          2   -1    0    0  501    0  0.00000000000E+00 -0.00000000000E+00 -0.98754674468E+03  0.98754674468E+03  0.25500000000E-02 0. -1.
    8880023    1    1    2    0    0 -0.56515340227E+03  0.15577865790E+02  0.21876143163E+02  0.86829131627E+03  0.65864270000E+03 0.  1.
    8880022    1    1    2    0    0  0.56515340227E+03 -0.15577865790E+02 -0.41237704188E+03  0.71630127438E+03  0.15294330000E+03 0.  0.
<mgrwt>
<rscale>  0 0.78670629E+03</rscale>
<asrwt>0</asrwt>
<pdfrwt beam="1">  1        2 0.15193027E+00 0.86801569E+03</pdfrwt>
<pdfrwt beam="2">  1       -2 0.91853207E-01 0.86801569E+03</pdfrwt>
<totfact> 0.26000897E+01</totfact>
</mgrwt>
</event>
<event>
 4    2  0.2930016E-007  0.7370156E+03  0.7818608E-02  0.9868727E-01
         -2   -1    0    0    0  501 -0.00000000000E+00  0.00000000000E+00  0.46475298785E+03  0.46475298786E+03  0.25500000000E-02 0.  1.
          2   -1    0    0  501    0  0.00000000000E+00 -0.00000000000E+00 -0.12893819890E+04  0.12893819890E+04  0.25500000000E-02 0. -1.
    8880023    1    1    2    0    0 -0.20151796436E+03 -0.26224465721E+03 -0.10811871754E+04  0.13084944267E+04  0.65864270000E+03 0. -1.
    8880022    1    1    2    0    0  0.20151796436E+03  0.26224465721E+03  0.25655817422E+03  0.44564055018E+03  0.15294330000E+03 0.  0.
<mgrwt>
<rscale>  0 0.61801126E+03</rscale>
<asrwt>0</asrwt>
<pdfrwt beam="1">  1        2 0.19836646E+00 0.73701557E+03</pdfrwt>
<pdfrwt beam="2">  1       -2 0.71500460E-01 0.73701557E+03</pdfrwt>
<totfact> 0.30392700E+01</totfact>
</mgrwt>
</event>
<event>
 4    2  0.2930016E-007  0.7065912E+03  0.7818608E-02  0.9970884E-01
          2   -1    0    0  501    0  0.00000000000E+00  0.00000000000E+00  0.94069006365E+03  0.94069006366E+03  0.25500000000E-02 0. -1.
         -2   -1    0    0    0  501 -0.00000000000E+00 -0.00000000000E+00 -0.30154957765E+03  0.30154957766E+03  0.25500000000E-02 0.  1.
    8880023    1    1    2    0    0 -0.24139132753E+03  0.84800836869E+02  0.24454658621E+03  0.74771264135E+03  0.65864270000E+03 0.  0.
    8880022    1    1    2    0    0  0.24139132753E+03 -0.84800836869E+02  0.39459389979E+03  0.49452699998E+03  0.15294330000E+03 0.  1.
<mgrwt>
<rscale>  0 0.56945571E+03</rscale>
<asrwt>0</asrwt>
<pdfrwt beam="1">  1        2 0.14472155E+00 0.70659123E+03</pdfrwt>
<pdfrwt beam="2">  1       -2 0.46392243E-01 0.70659123E+03</pdfrwt>
<totfact> 0.12316934E+02</totfact>
</mgrwt>
</event>
<event>
 4    2  0.2930016E-007  0.8555984E+03  0.7818608E-02  0.9601441E-01
          2   -1    0    0  501    0  0.00000000000E+00  0.00000000000E+00  0.17538344417E+04  0.17538344417E+04  0.25500000000E-02 0. -1.
         -2   -1    0    0    0  501 -0.00000000000E+00 -0.00000000000E+00 -0.31126932138E+03  0.31126932139E+03  0.25500000000E-02 0.  1.
    8880023    1    1    2    0    0  0.22878380504E+03  0.49587947879E+03  0.11305562122E+04  0.14178173515E+04  0.65864270000E+03 0. -1.
    8880022    1    1    2    0    0 -0.22878380504E+03 -0.49587947879E+03  0.31200890816E+03  0.64728641166E+03  0.15294330000E+03 0.  1.
<mgrwt>
<rscale>  0 0.77200850E+03</rscale>
<asrwt>0</asrwt>
<pdfrwt beam="1">  1        2 0.26982069E+00 0.85559844E+03</pdfrwt>
<pdfrwt beam="2">  1       -2 0.47887587E-01 0.85559844E+03</pdfrwt>
<totfact> 0.38384554E+01</totfact>
</mgrwt>
</event>
<event>
 4    2  0.2930016E-007  0.1163735E+04  0.7818608E-02  0.9193207E-01
         -2   -1    0    0    0  501 -0.00000000000E+00  0.00000000000E+00  0.74718093412E+03  0.74718093412E+03  0.25500000000E-02 0.  1.
          2   -1    0    0  501    0  0.00000000000E+00 -0.00000000000E+00 -0.18879726671E+04  0.18879726671E+04  0.25500000000E-02 0. -1.
    8880023    1    1    2    0    0 -0.42398698454E+03 -0.86064155166E+03 -0.11872999106E+04  0.16625162037E+04  0.65864270000E+03 0.  0.
    8880022    1    1    2    0    0  0.42398698454E+03  0.86064155166E+03  0.46508177630E+02  0.97263739755E+03  0.15294330000E+03 0.  0.
<mgrwt>
<rscale>  0 0.11123822E+04</rscale>
<asrwt>0</asrwt>
<pdfrwt beam="1">  1        2 0.29045733E+00 0.11637350E+04</pdfrwt>
<pdfrwt beam="2">  1       -2 0.11495091E+00 0.11637350E+04</pdfrwt>
<totfact> 0.44604066E+00</totfact>
</mgrwt>
</event>
<event>
 4    2  0.2930016E-007  0.7058877E+03  0.7818608E-02  0.9973601E-01
          2   -1    0    0  501    0  0.00000000000E+00  0.00000000000E+00  0.46314425750E+04  0.46314425750E+04  0.25500000000E-02 0. -1.
         -2   -1    0    0    0  501 -0.00000000000E+00 -0.00000000000E+00 -0.32334603621E+03  0.32334603622E+03  0.25500000000E-02 0.  1.
    8880023    1    1    2    0    0  0.21230450557E+03  0.13926261321E+03  0.45299059294E+04  0.45845747037E+04  0.65864270000E+03 0.  0.
    8880022    1    1    2    0    0 -0.21230450557E+03 -0.13926261321E+03 -0.22180939062E+03  0.37021390749E+03  0.15294330000E+03 0. -1.
<mgrwt>
<rscale>  0 0.56823105E+03</rscale>
<asrwt>0</asrwt>
<pdfrwt beam="1">  1        2 0.71252960E+00 0.70588773E+03</pdfrwt>
<pdfrwt beam="2">  1       -2 0.49745546E-01 0.70588773E+03</pdfrwt>
<totfact> 0.40452850E-01</totfact>
</mgrwt>
</event>
<event>
 4    2  0.2930016E-007  0.8187690E+03  0.7818608E-02  0.9671593E-01
          2   -1    0    0  501    0  0.00000000000E+00  0.00000000000E+00  0.21753885693E+04  0.21753885693E+04  0.25500000000E-02 0. -1.
         -2   -1    0    0    0  501 -0.00000000000E+00 -0.00000000000E+00 -0.23554279972E+03  0.23554279974E+03  0.25500000000E-02 0.  1.
    8880023    1    1    2    0    0 -0.24751085704E+03  0.41870137298E+03  0.16025432928E+04  0.17995909745E+04  0.65864270000E+03 0.  0.
    8880022    1    1    2    0    0  0.24751085704E+03 -0.41870137298E+03  0.33730247678E+03  0.61134039450E+03  0.15294330000E+03 0.  0.
<mgrwt>
<rscale>  0 0.72733622E+03</rscale>
<asrwt>0</asrwt>
<pdfrwt beam="1">  1        2 0.33467516E+00 0.81876900E+03</pdfrwt>
<pdfrwt beam="2">  1       -2 0.36237354E-01 0.81876900E+03</pdfrwt>
<totfact> 0.39190930E+01</totfact>
</mgrwt>
</event>
<event>
 4    2  0.2930016E-007  0.7863132E+03  0.7818608E-02  0.9741211E-01
         -2   -1    0    0    0  501 -0.00000000000E+00  0.00000000000E+00  0.21122290270E+03  0.21122290271E+03  0.25500000000E-02 0.  1.
          2   -1    0    0  501    0  0.00000000000E+00 -0.00000000000E+00 -0.18386520321E+04  0.18386520321E+04  0.25500000000E-02 0. -1.
    8880023    1    1    2    0    0 -0.21971512495E+03 -0.36905764238E+03 -0.11091650464E+04  0.13596086150E+04  0.65864270000E+03 0.  0.
    8880022    1    1    2    0    0  0.21971512495E+03  0.36905764238E+03 -0.51826408298E+03  0.69026631980E+03  0.15294330000E+03 0.  1.
<mgrwt>
<rscale>  0 0.68615249E+03</rscale>
<asrwt>0</asrwt>
<pdfrwt beam="1">  1        2 0.28286953E+00 0.78631322E+03</pdfrwt>
<pdfrwt beam="2">  1       -2 0.32495832E-01 0.78631322E+03</pdfrwt>
<totfact> 0.73979125E+01</totfact>
</mgrwt>
</event>
<event>
 4    2  0.2930016E-007  0.7594715E+03  0.7818608E-02  0.9806478E-01
         -2   -1    0    0    0  501 -0.00000000000E+00  0.00000000000E+00  0.39972073217E+03  0.39972073218E+03  0.25500000000E-02 0.  1.
          2   -1    0    0  501    0  0.00000000000E+00 -0.00000000000E+00 -0.42525504637E+04  0.42525504637E+04  0.25500000000E-02 0. -1.
    8880023    1    1    2    0    0  0.28351119677E+03 -0.25021609157E+03 -0.41037116442E+04  0.41733974357E+04  0.65864270000E+03 0.  0.
    8880022    1    1    2    0    0 -0.28351119677E+03  0.25021609157E+03  0.25088191261E+03  0.47887376026E+03  0.15294330000E+03 0.  0.
<mgrwt>
<rscale>  0 0.65016067E+03</rscale>
<asrwt>0</asrwt>
<pdfrwt beam="1">  1        2 0.65423850E+00 0.75947146E+03</pdfrwt>
<pdfrwt beam="2">  1       -2 0.61495500E-01 0.75947146E+03</pdfrwt>
<totfact> 0.57812644E-01</totfact>
</mgrwt>
</event>
<event>
 4    2  0.2930016E-007  0.8355196E+03  0.7818608E-02  0.9638687E-01
          2   -1    0    0  501    0  0.00000000000E+00  0.00000000000E+00  0.48037900550E+03  0.48037900551E+03  0.25500000000E-02 0. -1.
         -2   -1    0    0    0  501 -0.00000000000E+00 -0.00000000000E+00 -0.99716166612E+03  0.99716166612E+03  0.25500000000E-02 0.  1.
    8880023    1    1    2    0    0  0.39685174881E+03 -0.32678970568E+03 -0.21761400872E+03  0.86339381821E+03  0.65864270000E+03 0.  0.
    8880022    1    1    2    0    0 -0.39685174881E+03  0.32678970568E+03 -0.29916865190E+03  0.61414685342E+03  0.15294330000E+03 0.  0.
<mgrwt>
<rscale>  0 0.74787696E+03</rscale>
<asrwt>0</asrwt>
<pdfrwt beam="1">  1        2 0.73904463E-01 0.83551962E+03</pdfrwt>
<pdfrwt beam="2">  1       -2 0.15340949E+00 0.83551962E+03</pdfrwt>
<totfact> 0.18324518E+01</totfact>
</mgrwt>
</event>
<event>
 4    2  0.3145438E-007  0.7380243E+03  0.7818608E-02  0.9865740E-01
          2   -1    0    0  501    0  0.00000000000E+00  0.00000000000E+00  0.22427036679E+04  0.22427036679E+04  0.25500000000E-02 0. -1.
         -2   -1    0    0    0  501 -0.00000000000E+00 -0.00000000000E+00 -0.89885703307E+03  0.89885703308E+03  0.25500000000E-02 0.  1.
    8880023    1    1    2    0    0 -0.23863256709E+03  0.23221561373E+03  0.21407811345E+04  0.22644256812E+04  0.65864270000E+03 0. -1.
    8880022    1    1    2    0    0  0.23863256709E+03 -0.23221561373E+03 -0.79693449964E+03  0.87713501986E+03  0.15294330000E+03 0.  0.
<mgrwt>
<rscale>  0 0.61950784E+03</rscale>
<asrwt>0</asrwt>
<pdfrwt beam="1">  1        2 0.34503133E+00 0.73802425E+03</pdfrwt>
<pdfrwt beam="2">  1       -2 0.13828570E+00 0.73802425E+03</pdfrwt>
<totfact> 0.18954132E+00</totfact>
</mgrwt>
</event>
<event>
 4    2  0.2930016E-007  0.7156178E+03  0.7818608E-02  0.9937703E-01
         -2   -1    0    0    0  501 -0.00000000000E+00  0.00000000000E+00  0.42734804306E+03  0.42734804306E+03  0.25500000000E-02 0.  1.
          2   -1    0    0  501    0  0.00000000000E+00 -0.00000000000E+00 -0.76651697740E+03  0.76651697741E+03  0.25500000000E-02 0. -1.
    8880023    1    1    2    0    0  0.46968421359E+02 -0.27584885897E+03 -0.46238066120E+03  0.85200041533E+03  0.65864270000E+03 0. -1.
    8880022    1    1    2    0    0 -0.46968421359E+02  0.27584885897E+03  0.12321172686E+03  0.34186460514E+03  0.15294330000E+03 0.  0.
<mgrwt>
<rscale>  0 0.58468342E+03</rscale>
<asrwt>0</asrwt>
<pdfrwt beam="1">  1        2 0.11792569E+00 0.71561780E+03</pdfrwt>
<pdfrwt beam="2">  1       -2 0.65745853E-01 0.71561780E+03</pdfrwt>
<totfact> 0.78819927E+01</totfact>
</mgrwt>
</event>
<event>
 4    2  0.2930016E-007  0.1261476E+04  0.7818608E-02  0.9099563E-01
          2   -1    0    0  501    0  0.00000000000E+00  0.00000000000E+00  0.30129385296E+04  0.30129385296E+04  0.25500000000E-02 0. -1.
         -2   -1    0    0    0  501 -0.00000000000E+00 -0.00000000000E+00 -0.51655940596E+03  0.51655940596E+03  0.25500000000E-02 0.  1.
    8880023    1    1    2    0    0 -0.75507940122E+03  0.76639813972E+03  0.73532057796E+03  0.14601429962E+04  0.65864270000E+03 0.  0.
    8880022    1    1    2    0    0  0.75507940122E+03 -0.76639813972E+03  0.17610585456E+04  0.20693549393E+04  0.15294330000E+03 0.  0.
<mgrwt>
<rscale>  0 0.12153069E+04</rscale>
<asrwt>0</asrwt>
<pdfrwt beam="1">  1        2 0.46352900E+00 0.12614758E+04</pdfrwt>
<pdfrwt beam="2">  1       -2 0.79470678E-01 0.12614758E+04</pdfrwt>
<totfact> 0.23648546E+00</totfact>
</mgrwt>
</event>
<event>
 4    2  0.2930016E-007  0.6589731E+03  0.7818608E-02  0.1025234E+00
         -2   -1    0    0    0  501 -0.00000000000E+00  0.00000000000E+00  0.31831313595E+03  0.31831313596E+03  0.25500000000E-02 0.  1.
          2   -1    0    0  501    0  0.00000000000E+00 -0.00000000000E+00 -0.15326492996E+04  0.15326492996E+04  0.25500000000E-02 0. -1.
    8880023    1    1    2    0    0 -0.13307368257E+02  0.16069265142E+02 -0.14365009120E+04  0.15804367699E+04  0.65864270000E+03 0. -1.
    8880022    1    1    2    0    0  0.13307368257E+02 -0.16069265142E+02  0.22216474835E+03  0.27052566562E+03  0.15294330000E+03 0.  0.
<mgrwt>
<rscale>  0 0.45844193E+03</rscale>
<asrwt>0</asrwt>
<pdfrwt beam="1">  1        2 0.23579220E+00 0.65897308E+03</pdfrwt>
<pdfrwt beam="2">  1       -2 0.48971252E-01 0.65897308E+03</pdfrwt>
<totfact> 0.49613278E+01</totfact>
</mgrwt>
</event>
<event>
 4    2  0.2930016E-007  0.7058008E+03  0.7818608E-02  0.9973938E-01
         -2   -1    0    0    0  501 -0.00000000000E+00  0.00000000000E+00  0.17738347469E+03  0.17738347471E+03  0.25500000000E-02 0.  1.
          2   -1    0    0  501    0  0.00000000000E+00 -0.00000000000E+00 -0.32233274859E+04  0.32233274859E+04  0.25500000000E-02 0. -1.
    8880023    1    1    2    0    0 -0.18767616198E+03  0.17065253570E+03 -0.30222401371E+04  0.31035609036E+04  0.65864270000E+03 0. -1.
    8880022    1    1    2    0    0  0.18767616198E+03 -0.17065253570E+03 -0.23703874098E+02  0.29715005701E+03  0.15294330000E+03 0.  0.
<mgrwt>
<rscale>  0 0.56807939E+03</rscale>
<asrwt>0</asrwt>
<pdfrwt beam="1">  1        2 0.49589649E+00 0.70580085E+03</pdfrwt>
<pdfrwt beam="2">  1       -2 0.27289768E-01 0.70580085E+03</pdfrwt>
<totfact> 0.16455766E+01</totfact>
</mgrwt>
</event>
<event>
 4    2  0.2930016E-007  0.7882855E+03  0.7818608E-02  0.9736722E-01
         -2   -1    0    0    0  501 -0.00000000000E+00  0.00000000000E+00  0.67817624417E+03  0.67817624417E+03  0.25500000000E-02 0.  1.
          2   -1    0    0  501    0  0.00000000000E+00 -0.00000000000E+00 -0.58265332423E+03  0.58265332423E+03  0.25500000000E-02 0. -1.
    8880023    1    1    2    0    0 -0.41770921890E+03 -0.11446784707E+03 -0.14883471452E+02  0.78842602922E+03  0.65864270000E+03 0.  0.
    8880022    1    1    2    0    0  0.41770921890E+03  0.11446784707E+03  0.11040639139E+03  0.47240353919E+03  0.15294330000E+03 0.  0.
<mgrwt>
<rscale>  0 0.68871839E+03</rscale>
<asrwt>0</asrwt>
<pdfrwt beam="1">  1        2 0.89638973E-01 0.78828554E+03</pdfrwt>
<pdfrwt beam="2">  1       -2 0.10433481E+00 0.78828554E+03</pdfrwt>
<totfact> 0.38720535E+01</totfact>
</mgrwt>
</event>
<event>
 4    2  0.2930016E-007  0.7224766E+03  0.7818608E-02  0.9914294E-01
          2   -1    0    0  501    0  0.00000000000E+00  0.00000000000E+00  0.18561493914E+04  0.18561493914E+04  0.25500000000E-02 0. -1.
         -2   -1    0    0    0  501 -0.00000000000E+00 -0.00000000000E+00 -0.45408762512E+03  0.45408762512E+03  0.25500000000E-02 0.  1.
    8880023    1    1    2    0    0 -0.19440839173E+03  0.22442716340E+03  0.17097414483E+04  0.18561218173E+04  0.65864270000E+03 0. -1.
    8880022    1    1    2    0    0  0.19440839173E+03 -0.22442716340E+03 -0.30767968199E+03  0.45411519923E+03  0.15294330000E+03 0.  0.
<mgrwt>
<rscale>  0 0.59573536E+03</rscale>
<asrwt>0</asrwt>
<pdfrwt beam="1">  1        2 0.28556145E+00 0.72247656E+03</pdfrwt>
<pdfrwt beam="2">  1       -2 0.69859634E-01 0.72247656E+03</pdfrwt>
<totfact> 0.15526580E+01</totfact>
</mgrwt>
</event>
<event>
 4    2  0.2930016E-007  0.7300562E+03  0.7818608E-02  0.9889921E-01
          2   -1    0    0  501    0  0.00000000000E+00  0.00000000000E+00  0.16743080292E+04  0.16743080292E+04  0.25500000000E-02 0. -1.
         -2   -1    0    0    0  501 -0.00000000000E+00 -0.00000000000E+00 -0.49429206215E+03  0.49429206216E+03  0.25500000000E-02 0.  1.
    8880023    1    1    2    0    0 -0.22556212521E+03  0.21975800404E+03  0.15164650470E+04  0.16830473249E+04  0.65864270000E+03 0. -1.
    8880022    1    1    2    0    0  0.22556212521E+03 -0.21975800404E+03 -0.33644907994E+03  0.48555276652E+03  0.15294330000E+03 0.  0.
<mgrwt>
<rscale>  0 0.60752250E+03</rscale>
<asrwt>0</asrwt>
<pdfrwt beam="1">  1        2 0.25758585E+00 0.73005620E+03</pdfrwt>
<pdfrwt beam="2">  1       -2 0.76044932E-01 0.73005620E+03</pdfrwt>
<totfact> 0.16169733E+01</totfact>
</mgrwt>
</event>
<event>
 4    2  0.2930016E-007  0.7255593E+03  0.7818608E-02  0.9904205E-01
         -2   -1    0    0    0  501 -0.00000000000E+00  0.00000000000E+00  0.49746231867E+03  0.49746231868E+03  0.25500000000E-02 0.  1.
          2   -1    0    0  501    0  0.00000000000E+00 -0.00000000000E+00 -0.12962736295E+04  0.12962736295E+04  0.25500000000E-02 0. -1.
    8880023    1    1    2    0    0  0.30349473339E+03  0.22737744894E+02  0.18822923573E+03  0.74957755415E+03  0.65864270000E+03 0.  1.
    8880022    1    1    2    0    0 -0.30349473339E+03 -0.22737744894E+02 -0.98704054653E+03  0.10441583940E+04  0.15294330000E+03 0.  0.
<mgrwt>
<rscale>  0 0.60057910E+03</rscale>
<asrwt>0</asrwt>
<pdfrwt beam="1">  1        2 0.19942671E+00 0.72555928E+03</pdfrwt>
<pdfrwt beam="2">  1       -2 0.76532665E-01 0.72555928E+03</pdfrwt>
<totfact> 0.25947363E+01</totfact>
</mgrwt>
</event>
<event>
 4    2  0.2930016E-007  0.6851884E+03  0.7818608E-02  0.1006529E+00
         -2   -1    0    0    0  501 -0.00000000000E+00  0.00000000000E+00  0.73668890493E+02  0.73668890537E+02  0.25500000000E-02 0.  1.
          2   -1    0    0  501    0  0.00000000000E+00 -0.00000000000E+00 -0.40674844808E+04  0.40674844808E+04  0.25500000000E-02 0. -1.
    8880023    1    1    2    0    0 -0.13474188032E+03 -0.13235382709E+03 -0.36850751857E+04  0.37482345498E+04  0.65864270000E+03 0.  0.
    8880022    1    1    2    0    0  0.13474188032E+03  0.13235382709E+03 -0.30874040461E+03  0.39291882153E+03  0.15294330000E+03 0.  0.
<mgrwt>
<rscale>  0 0.52877799E+03</rscale>
<asrwt>0</asrwt>
<pdfrwt beam="1">  1        2 0.62576667E+00 0.68518838E+03</pdfrwt>
<pdfrwt beam="2">  1       -2 0.11333679E-01 0.68518838E+03</pdfrwt>
<totfact> 0.18850657E+01</totfact>
</mgrwt>
</event>
<event>
 4    2  0.2930016E-007  0.9542555E+03  0.7818608E-02  0.9444018E-01
         -2   -1    0    0    0  501 -0.00000000000E+00  0.00000000000E+00  0.61128652362E+03  0.61128652362E+03  0.25500000000E-02 0.  1.
          2   -1    0    0  501    0  0.00000000000E+00 -0.00000000000E+00 -0.13299883650E+04  0.13299883650E+04  0.25500000000E-02 0. -1.
    8880023    1    1    2    0    0 -0.69050185972E+03  0.67487914503E+00 -0.30927467074E+02  0.95475650729E+03  0.65864270000E+03 0.  1.
    8880022    1    1    2    0    0  0.69050185972E+03 -0.67487914503E+00 -0.68777437433E+03  0.98651838134E+03  0.15294330000E+03 0.  0.
<mgrwt>
<rscale>  0 0.88540061E+03</rscale>
<asrwt>0</asrwt>
<pdfrwt beam="1">  1        2 0.20461359E+00 0.95425546E+03</pdfrwt>
<pdfrwt beam="2">  1       -2 0.94044081E-01 0.95425546E+03</pdfrwt>
<totfact> 0.15143057E+01</totfact>
</mgrwt>
</event>
<event>
 4    2  0.2930016E-007  0.6795069E+03  0.7818608E-02  0.1009604E+00
          2   -1    0    0  501    0  0.00000000000E+00  0.00000000000E+00  0.50311045827E+03  0.50311045828E+03  0.25500000000E-02 0. -1.
         -2   -1    0    0    0  501 -0.00000000000E+00 -0.00000000000E+00 -0.14764002038E+04  0.14764002038E+04  0.25500000000E-02 0.  1.
    8880023    1    1    2    0    0  0.14322586376E+03  0.86056953635E+02  0.25853768907E+03  0.72702915365E+03  0.65864270000E+03 0. -1.
    8880022    1    1    2    0    0 -0.14322586376E+03 -0.86056953635E+02 -0.12318274346E+04  0.12524815084E+04  0.15294330000E+03 0.  0.
<mgrwt>
<rscale>  0 0.51632342E+03</rscale>
<asrwt>0</asrwt>
<pdfrwt beam="1">  1        2 0.77401610E-01 0.67950692E+03</pdfrwt>
<pdfrwt beam="2">  1       -2 0.22713849E+00 0.67950692E+03</pdfrwt>
<totfact> 0.56310557E+00</totfact>
</mgrwt>
</event>
<event>
 4    2  0.2930016E-007  0.7263143E+03  0.7818608E-02  0.9901772E-01
         -2   -1    0    0    0  501 -0.00000000000E+00  0.00000000000E+00  0.10963210915E+03  0.10963210918E+03  0.25500000000E-02 0.  1.
          2   -1    0    0  501    0  0.00000000000E+00 -0.00000000000E+00 -0.34213258801E+04  0.34213258801E+04  0.25500000000E-02 0. -1.
    8880023    1    1    2    0    0 -0.23633329779E+03 -0.19459900321E+03 -0.29283727073E+04  0.30171011118E+04  0.65864270000E+03 0. -1.
    8880022    1    1    2    0    0  0.23633329779E+03  0.19459900321E+03 -0.38332106365E+03  0.51385687749E+03  0.15294330000E+03 0.  0.
<mgrwt>
<rscale>  0 0.60175466E+03</rscale>
<asrwt>0</asrwt>
<pdfrwt beam="1">  1        2 0.52635775E+00 0.72631426E+03</pdfrwt>
<pdfrwt beam="2">  1       -2 0.16866481E-01 0.72631426E+03</pdfrwt>
<totfact> 0.28478217E+01</totfact>
</mgrwt>
</event>
<event>
 4    2  0.2930016E-007  0.6706213E+03  0.7818608E-02  0.1015221E+00
         -2   -1    0    0    0  501 -0.00000000000E+00  0.00000000000E+00  0.36857941820E+03  0.36857941821E+03  0.25500000000E-02 0.  1.
          2   -1    0    0  501    0  0.00000000000E+00 -0.00000000000E+00 -0.10560769028E+04  0.10560769028E+04  0.25500000000E-02 0. -1.
    8880023    1    1    2    0    0  0.53334502803E+02 -0.11436001557E+03 -0.90755625717E+03  0.11284464314E+04  0.65864270000E+03 0. -1.
    8880022    1    1    2    0    0 -0.53334502803E+02  0.11436001557E+03  0.22005877253E+03  0.29620988966E+03  0.15294330000E+03 0.  0.
<mgrwt>
<rscale>  0 0.49451223E+03</rscale>
<asrwt>0</asrwt>
<pdfrwt beam="1">  1        2 0.16247337E+00 0.67062135E+03</pdfrwt>
<pdfrwt beam="2">  1       -2 0.56704526E-01 0.67062135E+03</pdfrwt>
<totfact> 0.69197945E+01</totfact>
</mgrwt>
</event>
<event>
 4    2  0.2930016E-007  0.6869695E+03  0.7818608E-02  0.1005628E+00
         -2   -1    0    0    0  501 -0.00000000000E+00  0.00000000000E+00  0.45982625448E+03  0.45982625449E+03  0.25500000000E-02 0.  1.
          2   -1    0    0  501    0  0.00000000000E+00 -0.00000000000E+00 -0.80110546034E+03  0.80110546034E+03  0.25500000000E-02 0. -1.
    8880023    1    1    2    0    0 -0.60626425251E+02  0.18558368012E+03 -0.59303561462E+03  0.90753419343E+03  0.65864270000E+03 0. -1.
    8880022    1    1    2    0    0  0.60626425251E+02 -0.18558368012E+03  0.25175640876E+03  0.35339752141E+03  0.15294330000E+03 0.  0.
<mgrwt>
<rscale>  0 0.53250047E+03</rscale>
<asrwt>0</asrwt>
<pdfrwt beam="1">  1        2 0.12324699E+00 0.68696948E+03</pdfrwt>
<pdfrwt beam="2">  1       -2 0.70742501E-01 0.68696948E+03</pdfrwt>
<totfact> 0.63600347E+01</totfact>
</mgrwt>
</event>
<event>
 4    2  0.2930016E-007  0.7506217E+03  0.7818608E-02  0.9830021E-01
          2   -1    0    0  501    0  0.00000000000E+00  0.00000000000E+00  0.33918160044E+03  0.33918160045E+03  0.25500000000E-02 0. -1.
         -2   -1    0    0    0  501 -0.00000000000E+00 -0.00000000000E+00 -0.17602950915E+04  0.17602950915E+04  0.25500000000E-02 0.  1.
    8880023    1    1    2    0    0  0.26894526572E+03  0.23935565220E+03 -0.14466438436E+03  0.76443487267E+03  0.65864270000E+03 0. -1.
    8880022    1    1    2    0    0 -0.26894526572E+03 -0.23935565220E+03 -0.12764491067E+04  0.13350418192E+04  0.15294330000E+03 0.  0.
<mgrwt>
<rscale>  0 0.63776009E+03</rscale>
<asrwt>0</asrwt>
<pdfrwt beam="1">  1        2 0.52181786E-01 0.75062167E+03</pdfrwt>
<pdfrwt beam="2">  1       -2 0.27081462E+00 0.75062167E+03</pdfrwt>
<totfact> 0.47358301E+00</totfact>
</mgrwt>
</event>
<event>
 4    2  0.2930016E-007  0.6967714E+03  0.7818608E-02  0.1001087E+00
          2   -1    0    0  501    0  0.00000000000E+00  0.00000000000E+00  0.32198531786E+04  0.32198531786E+04  0.25500000000E-02 0. -1.
         -2   -1    0    0    0  501 -0.00000000000E+00 -0.00000000000E+00 -0.17379638722E+03  0.17379638724E+03  0.25500000000E-02 0.  1.
    8880023    1    1    2    0    0 -0.12577520107E+02  0.22698460079E+03  0.30407984805E+04  0.31196066753E+04  0.65864270000E+03 0. -1.
    8880022    1    1    2    0    0  0.12577520107E+02 -0.22698460079E+03  0.52583108277E+01  0.27404289054E+03  0.15294330000E+03 0.  0.
<mgrwt>
<rscale>  0 0.55176277E+03</rscale>
<asrwt>0</asrwt>
<pdfrwt beam="1">  1        2 0.49536201E+00 0.69677142E+03</pdfrwt>
<pdfrwt beam="2">  1       -2 0.26737907E-01 0.69677142E+03</pdfrwt>
<totfact> 0.17197114E+01</totfact>
</mgrwt>
</event>
<event>
 4    2  0.2930016E-007  0.6735927E+03  0.7818608E-02  0.1013208E+00
         -2   -1    0    0    0  501 -0.00000000000E+00  0.00000000000E+00  0.65036675947E+03  0.65036675947E+03  0.25500000000E-02 0.  1.
          2   -1    0    0  501    0  0.00000000000E+00 -0.00000000000E+00 -0.43575984093E+03  0.43575984094E+03  0.25500000000E-02 0. -1.
    8880023    1    1    2    0    0 -0.12712236063E+03  0.61292569108E+02 -0.12763594237E+03  0.68557859772E+03  0.65864270000E+03 0. -1.
    8880022    1    1    2    0    0  0.12712236063E+03 -0.61292569108E+02  0.34224286091E+03  0.40054800269E+03  0.15294330000E+03 0.  0.
<mgrwt>
<rscale>  0 0.50219188E+03</rscale>
<asrwt>0</asrwt>
<pdfrwt beam="1">  1        2 0.67039975E-01 0.67359267E+03</pdfrwt>
<pdfrwt beam="2">  1       -2 0.10005643E+00 0.67359267E+03</pdfrwt>
<totfact> 0.60478318E+01</totfact>
</mgrwt>
</event>
<event>
 4    2  0.2930016E-007  0.7788584E+03  0.7818608E-02  0.9758525E-01
         -2   -1    0    0    0  501 -0.00000000000E+00  0.00000000000E+00  0.27522173952E+03  0.27522173954E+03  0.25500000000E-02 0.  1.
          2   -1    0    0  501    0  0.00000000000E+00 -0.00000000000E+00 -0.16200179716E+04  0.16200179716E+04  0.25500000000E-02 0. -1.
    8880023    1    1    2    0    0 -0.30128240199E+03  0.28642472692E+03 -0.11973835874E+04  0.14284074599E+04  0.65864270000E+03 0.  1.
    8880022    1    1    2    0    0  0.30128240199E+03 -0.28642472692E+03 -0.14741264467E+03  0.46683225120E+03  0.15294330000E+03 0.  0.
<mgrwt>
<rscale>  0 0.67636601E+03</rscale>
<asrwt>0</asrwt>
<pdfrwt beam="1">  1        2 0.24923353E+00 0.77885841E+03</pdfrwt>
<pdfrwt beam="2">  1       -2 0.42341807E-01 0.77885841E+03</pdfrwt>
<totfact> 0.58591582E+01</totfact>
</mgrwt>
</event>
<event>
 4    2  0.2930016E-007  0.8335342E+03  0.7818608E-02  0.9642495E-01
          2   -1    0    0  501    0  0.00000000000E+00  0.00000000000E+00  0.22282971867E+04  0.22282971867E+04  0.25500000000E-02 0. -1.
         -2   -1    0    0    0  501 -0.00000000000E+00 -0.00000000000E+00 -0.37292102267E+03  0.37292102268E+03  0.25500000000E-02 0.  1.
    8880023    1    1    2    0    0 -0.28806481530E+03 -0.42188599872E+03  0.19324655992E+03  0.85564219912E+03  0.65864270000E+03 0.  1.
    8880022    1    1    2    0    0  0.28806481530E+03  0.42188599872E+03  0.16621296041E+04  0.17455760103E+04  0.15294330000E+03 0.  0.
<mgrwt>
<rscale>  0 0.74546335E+03</rscale>
<asrwt>0</asrwt>
<pdfrwt beam="1">  1        2 0.34281495E+00 0.83353425E+03</pdfrwt>
<pdfrwt beam="2">  1       -2 0.57372466E-01 0.83353425E+03</pdfrwt>
<totfact> 0.14563131E+01</totfact>
</mgrwt>
</event>
<event>
 4    2  0.2930016E-007  0.6808798E+03  0.7818608E-02  0.1008830E+00
         -2   -1    0    0    0  501 -0.00000000000E+00  0.00000000000E+00  0.19552025839E+03  0.19552025841E+03  0.25500000000E-02 0.  1.
          2   -1    0    0  501    0  0.00000000000E+00 -0.00000000000E+00 -0.17364789028E+04  0.17364789028E+04  0.25500000000E-02 0. -1.
    8880023    1    1    2    0    0 -0.14629967471E+03 -0.91561513804E+02 -0.15584867775E+04  0.17007287695E+04  0.65864270000E+03 0. -1.
    8880022    1    1    2    0    0  0.14629967471E+03  0.91561513804E+02  0.17528133031E+02  0.23127039173E+03  0.15294330000E+03 0.  0.
<mgrwt>
<rscale>  0 0.51942173E+03</rscale>
<asrwt>0</asrwt>
<pdfrwt beam="1">  1        2 0.26715059E+00 0.68087981E+03</pdfrwt>
<pdfrwt beam="2">  1       -2 0.30080041E-01 0.68087981E+03</pdfrwt>
<totfact> 0.98237870E+01</totfact>
</mgrwt>
</event>
<event>
 4    2  0.2930016E-007  0.1124722E+04  0.7818608E-02  0.9234018E-01
          2   -1    0    0  501    0  0.00000000000E+00  0.00000000000E+00  0.15802512950E+04  0.15802512950E+04  0.25500000000E-02 0. -1.
         -2   -1    0    0    0  501 -0.00000000000E+00 -0.00000000000E+00 -0.98139579177E+03  0.98139579177E+03  0.25500000000E-02 0.  1.
    8880023    1    1    2    0    0  0.72646423046E+03 -0.55085350414E+03  0.10449313480E+04  0.15352138579E+04  0.65864270000E+03 0.  0.
    8880022    1    1    2    0    0 -0.72646423046E+03  0.55085350414E+03 -0.44607584473E+03  0.10264332289E+04  0.15294330000E+03 0.  0.
<mgrwt>
<rscale>  0 0.10709104E+04</rscale>
<asrwt>0</asrwt>
<pdfrwt beam="1">  1        2 0.24311558E+00 0.11247222E+04</pdfrwt>
<pdfrwt beam="2">  1       -2 0.15098397E+00 0.11247222E+04</pdfrwt>
<totfact> 0.32993318E+00</totfact>
</mgrwt>
</event>
<event>
 4    2  0.2930016E-007  0.8843860E+03  0.7818608E-02  0.9551577E-01
          2   -1    0    0  501    0  0.00000000000E+00  0.00000000000E+00  0.10857623928E+04  0.10857623929E+04  0.25500000000E-02 0. -1.
         -2   -1    0    0    0  501 -0.00000000000E+00 -0.00000000000E+00 -0.95272872927E+03  0.95272872927E+03  0.25500000000E-02 0.  1.
    8880023    1    1    2    0    0  0.53850082593E+03 -0.24154779485E+03  0.75845041731E+03  0.11650689759E+04  0.65864270000E+03 0. -1.
    8880022    1    1    2    0    0 -0.53850082593E+03  0.24154779485E+03 -0.62541675373E+03  0.87342214626E+03  0.15294330000E+03 0.  0.
<mgrwt>
<rscale>  0 0.80585782E+03</rscale>
<asrwt>0</asrwt>
<pdfrwt beam="1">  1        2 0.16704037E+00 0.88438605E+03</pdfrwt>
<pdfrwt beam="2">  1       -2 0.14657365E+00 0.88438605E+03</pdfrwt>
<totfact> 0.71036934E+00</totfact>
</mgrwt>
</event>
<event>
 4    2  0.2930016E-007  0.9431356E+03  0.7818608E-02  0.9460060E-01
          2   -1    0    0  501    0  0.00000000000E+00  0.00000000000E+00  0.27225108474E+04  0.27225108474E+04  0.25500000000E-02 0. -1.
         -2   -1    0    0    0  501 -0.00000000000E+00 -0.00000000000E+00 -0.92290990239E+03  0.92290990239E+03  0.25500000000E-02 0.  1.
    8880023    1    1    2    0    0  0.66493158610E+03  0.11644990416E+03  0.24931490294E+04  0.26655762761E+04  0.65864270000E+03 0.  0.
    8880022    1    1    2    0    0 -0.66493158610E+03 -0.11644990416E+03 -0.69354808438E+03  0.97984447375E+03  0.15294330000E+03 0.  0.
<mgrwt>
<rscale>  0 0.87293584E+03</rscale>
<asrwt>0</asrwt>
<pdfrwt beam="1">  1        2 0.41884782E+00 0.94313562E+03</pdfrwt>
<pdfrwt beam="2">  1       -2 0.14198614E+00 0.94313562E+03</pdfrwt>
<totfact> 0.90937494E-01</totfact>
</mgrwt>
</event>
<event>
 4    2  0.2930016E-007  0.7176394E+03  0.7818608E-02  0.9930656E-01
         -2   -1    0    0    0  501 -0.00000000000E+00  0.00000000000E+00  0.44685177579E+03  0.44685177580E+03  0.25500000000E-02 0.  1.
          2   -1    0    0  501    0  0.00000000000E+00 -0.00000000000E+00 -0.85288318971E+03  0.85288318971E+03  0.25500000000E-02 0. -1.
    8880023    1    1    2    0    0  0.20137614711E+03  0.20160302283E+03  0.73444915912E+02  0.72138789384E+03  0.65864270000E+03 0.  1.
    8880022    1    1    2    0    0 -0.20137614711E+03 -0.20160302283E+03 -0.47947632982E+03  0.57834707167E+03  0.15294330000E+03 0.  0.
<mgrwt>
<rscale>  0 0.58798309E+03</rscale>
<asrwt>0</asrwt>
<pdfrwt beam="1">  1        2 0.13121280E+00 0.71763942E+03</pdfrwt>
<pdfrwt beam="2">  1       -2 0.68746427E-01 0.71763942E+03</pdfrwt>
<totfact> 0.62088302E+01</totfact>
</mgrwt>
</event>
<event>
 4    2  0.2930016E-007  0.8807958E+03  0.7818608E-02  0.9557592E-01
         -2   -1    0    0    0  501 -0.00000000000E+00  0.00000000000E+00  0.28024882628E+03  0.28024882629E+03  0.25500000000E-02 0.  1.
          2   -1    0    0  501    0  0.00000000000E+00 -0.00000000000E+00 -0.22543900159E+04  0.22543900159E+04  0.25500000000E-02 0. -1.
    8880023    1    1    2    0    0 -0.56815883198E+03 -0.13851569372E+03 -0.15922723904E+04  0.18196517873E+04  0.65864270000E+03 0.  0.
    8880022    1    1    2    0    0  0.56815883198E+03  0.13851569372E+03 -0.38186879927E+03  0.71498705487E+03  0.15294330000E+03 0.  0.
<mgrwt>
<rscale>  0 0.80167793E+03</rscale>
<asrwt>0</asrwt>
<pdfrwt beam="1">  1        2 0.34682922E+00 0.88079581E+03</pdfrwt>
<pdfrwt beam="2">  1       -2 0.43115206E-01 0.88079581E+03</pdfrwt>
<totfact> 0.25062628E+01</totfact>
</mgrwt>
</event>
<event>
 4    2  0.2930016E-007  0.6873597E+03  0.7818608E-02  0.1005434E+00
          2   -1    0    0  501    0  0.00000000000E+00  0.00000000000E+00  0.10587033011E+04  0.10587033011E+04  0.25500000000E-02 0. -1.
         -2   -1    0    0    0  501 -0.00000000000E+00 -0.00000000000E+00 -0.66642341590E+03  0.66642341591E+03  0.25500000000E-02 0.  1.
    8880023    1    1    2    0    0  0.18326954226E+03 -0.71171331732E+02  0.91598437835E+03  0.11452033318E+04  0.65864270000E+03 0. -1.
    8880022    1    1    2    0    0 -0.18326954226E+03  0.71171331732E+02 -0.52370449313E+03  0.57992338521E+03  0.15294330000E+03 0.  0.
<mgrwt>
<rscale>  0 0.53330560E+03</rscale>
<asrwt>0</asrwt>
<pdfrwt beam="1">  1        2 0.16287743E+00 0.68735965E+03</pdfrwt>
<pdfrwt beam="2">  1       -2 0.10252668E+00 0.68735965E+03</pdfrwt>
<totfact> 0.18432638E+01</totfact>
</mgrwt>
</event>
<event>
 4    2  0.2930016E-007  0.6920481E+03  0.7818608E-02  0.1003194E+00
          2   -1    0    0  501    0  0.00000000000E+00  0.00000000000E+00  0.13749565839E+04  0.13749565839E+04  0.25500000000E-02 0. -1.
         -2   -1    0    0    0  501 -0.00000000000E+00 -0.00000000000E+00 -0.22762488076E+03  0.22762488077E+03  0.25500000000E-02 0.  1.
    8880023    1    1    2    0    0  0.21227261492E+03  0.77872939739E+01  0.11484328244E+04  0.13408312584E+04  0.65864270000E+03 0. -1.
    8880022    1    1    2    0    0 -0.21227261492E+03 -0.77872939739E+01 -0.11011213055E+01  0.26175020626E+03  0.15294330000E+03 0.  0.
<mgrwt>
<rscale>  0 0.54271645E+03</rscale>
<asrwt>0</asrwt>
<pdfrwt beam="1">  1        2 0.21153179E+00 0.69204806E+03</pdfrwt>
<pdfrwt beam="2">  1       -2 0.35019211E-01 0.69204806E+03</pdfrwt>
<totfact> 0.11687751E+02</totfact>
</mgrwt>
</event>
<event>
 4    2  0.2930016E-007  0.6867132E+03  0.7818608E-02  0.1005756E+00
          2   -1    0    0  501    0  0.00000000000E+00  0.00000000000E+00  0.14040758590E+04  0.14040758591E+04  0.25500000000E-02 0. -1.
         -2   -1    0    0    0  501 -0.00000000000E+00 -0.00000000000E+00 -0.46532974415E+03  0.46532974415E+03  0.25500000000E-02 0.  1.
    8880023    1    1    2    0    0  0.18543685279E+03 -0.58120187112E+02  0.12772724425E+04  0.14501723626E+04  0.65864270000E+03 0. -1.
    8880022    1    1    2    0    0 -0.18543685279E+03  0.58120187112E+02 -0.33852632763E+03  0.41923324061E+03  0.15294330000E+03 0.  0.
<mgrwt>
<rscale>  0 0.53196959E+03</rscale>
<asrwt>0</asrwt>
<pdfrwt beam="1">  1        2 0.21601167E+00 0.68671318E+03</pdfrwt>
<pdfrwt beam="2">  1       -2 0.71589191E-01 0.68671318E+03</pdfrwt>
<totfact> 0.26227153E+01</totfact>
</mgrwt>
</event>
<event>
 4    2  0.2930016E-007  0.6842084E+03  0.7818608E-02  0.1007037E+00
          2   -1    0    0  501    0  0.00000000000E+00  0.00000000000E+00  0.10611615814E+04  0.10611615814E+04  0.25500000000E-02 0. -1.
         -2   -1    0    0    0  501 -0.00000000000E+00 -0.00000000000E+00 -0.10234800864E+04  0.10234800864E+04  0.25500000000E-02 0.  1.
    8880023    1    1    2    0    0 -0.96321776585E+02  0.15828134762E+03  0.93337009231E+03  0.11572902856E+04  0.65864270000E+03 0.  0.
    8880022    1    1    2    0    0  0.96321776585E+02 -0.15828134762E+03 -0.89568859731E+03  0.92735138217E+03  0.15294330000E+03 0.  0.
<mgrwt>
<rscale>  0 0.52669530E+03</rscale>
<asrwt>0</asrwt>
<pdfrwt beam="1">  1        2 0.16325563E+00 0.68420836E+03</pdfrwt>
<pdfrwt beam="2">  1       -2 0.15745848E+00 0.68420836E+03</pdfrwt>
<totfact> 0.62372054E+00</totfact>
</mgrwt>
</event>
<event>
 4    2  0.2930016E-007  0.6932947E+03  0.7818608E-02  0.1002624E+00
          2   -1    0    0  501    0  0.00000000000E+00  0.00000000000E+00  0.15908611455E+04  0.15908611455E+04  0.25500000000E-02 0. -1.
         -2   -1    0    0    0  501 -0.00000000000E+00 -0.00000000000E+00 -0.20988513187E+03  0.20988513189E+03  0.25500000000E-02 0.  1.
    8880023    1    1    2    0    0 -0.12064102333E+03  0.17970267893E+03  0.13700690525E+04  0.15354955957E+04  0.65864270000E+03 0. -1.
    8880022    1    1    2    0    0  0.12064102333E+03 -0.17970267893E+03  0.10906961055E+02  0.26525068169E+03  0.15294330000E+03 0.  0.
<mgrwt>
<rscale>  0 0.54514328E+03</rscale>
<asrwt>0</asrwt>
<pdfrwt beam="1">  1        2 0.24474787E+00 0.69329468E+03</pdfrwt>
<pdfrwt beam="2">  1       -2 0.32290020E-01 0.69329468E+03</pdfrwt>
<totfact> 0.10326396E+02</totfact>
</mgrwt>
</event>
<event>
 4    2  0.2930016E-007  0.6801079E+03  0.7818608E-02  0.1009263E+00
         -2   -1    0    0    0  501 -0.00000000000E+00  0.00000000000E+00  0.13350581669E+04  0.13350581670E+04  0.25500000000E-02 0.  1.
          2   -1    0    0  501    0  0.00000000000E+00 -0.00000000000E+00 -0.18807423408E+03  0.18807423410E+03  0.25500000000E-02 0. -1.
    8880023    1    1    2    0    0 -0.11161768865E+03  0.12758530225E+03  0.52075778747E+03  0.85658356116E+03  0.65864270000E+03 0. -1.
    8880022    1    1    2    0    0  0.11161768865E+03 -0.12758530225E+03  0.62622614540E+03  0.66654883989E+03  0.15294330000E+03 0.  0.
<mgrwt>
<rscale>  0 0.51768718E+03</rscale>
<asrwt>0</asrwt>
<pdfrwt beam="1">  1        2 0.28934497E-01 0.68010788E+03</pdfrwt>
<pdfrwt beam="2">  1       -2 0.20539357E+00 0.68010788E+03</pdfrwt>
<totfact> 0.23263549E+01</totfact>
</mgrwt>
</event>
<event>
 4    2  0.2930016E-007  0.6822849E+03  0.7818608E-02  0.1008060E+00
          2   -1    0    0  501    0  0.00000000000E+00  0.00000000000E+00  0.10575679894E+04  0.10575679894E+04  0.25500000000E-02 0. -1.
         -2   -1    0    0    0  501 -0.00000000000E+00 -0.00000000000E+00 -0.24865142560E+03  0.24865142561E+03  0.25500000000E-02 0.  1.
    8880023    1    1    2    0    0 -0.85669937548E+02  0.15608690123E+03  0.82543987486E+03  0.10709172014E+04  0.65864270000E+03 0.  0.
    8880022    1    1    2    0    0  0.85669937548E+02 -0.15608690123E+03 -0.16523311033E+02  0.23530221367E+03  0.15294330000E+03 0.  0.
<mgrwt>
<rscale>  0 0.52253148E+03</rscale>
<asrwt>0</asrwt>
<pdfrwt beam="1">  1        2 0.16270277E+00 0.68228489E+03</pdfrwt>
<pdfrwt beam="2">  1       -2 0.38254065E-01 0.68228489E+03</pdfrwt>
<totfact> 0.15190395E+02</totfact>
</mgrwt>
</event>
<event>
 4    2  0.2930016E-007  0.7321784E+03  0.7818608E-02  0.9883346E-01
         -2   -1    0    0    0  501 -0.00000000000E+00  0.00000000000E+00  0.22006127844E+03  0.22006127846E+03  0.25500000000E-02 0.  1.
          2   -1    0    0  501    0  0.00000000000E+00 -0.00000000000E+00 -0.48726149946E+04  0.48726149946E+04  0.25500000000E-02 0. -1.
    8880023    1    1    2    0    0  0.96182072139E+02 -0.30499827094E+03 -0.46801808767E+04  0.47371065200E+04  0.65864270000E+03 0.  0.
    8880022    1    1    2    0    0 -0.96182072139E+02  0.30499827094E+03  0.27627160606E+02  0.35556975306E+03  0.15294330000E+03 0.  0.
<mgrwt>
<rscale>  0 0.61075234E+03</rscale>
<asrwt>0</asrwt>
<pdfrwt beam="1">  1        2 0.74963299E+00 0.73217835E+03</pdfrwt>
<pdfrwt beam="2">  1       -2 0.33855585E-01 0.73217835E+03</pdfrwt>
<totfact> 0.46979446E-01</totfact>
</mgrwt>
</event>
<event>
 4    2  0.2930016E-007  0.1109556E+04  0.7818608E-02  0.9250490E-01
          2   -1    0    0  501    0  0.00000000000E+00  0.00000000000E+00  0.85783106624E+03  0.85783106625E+03  0.25500000000E-02 0. -1.
         -2   -1    0    0    0  501 -0.00000000000E+00 -0.00000000000E+00 -0.12483499815E+04  0.12483499815E+04  0.25500000000E-02 0.  1.
    8880023    1    1    2    0    0 -0.76092738047E+03 -0.46722003397E+03 -0.45218930607E+03  0.11981612635E+04  0.65864270000E+03 0.  1.
    8880022    1    1    2    0    0  0.76092738047E+03  0.46722003397E+03  0.61670390826E+02  0.90801978427E+03  0.15294330000E+03 0.  0.
<mgrwt>
<rscale>  0 0.10547143E+04</rscale>
<asrwt>0</asrwt>
<pdfrwt beam="1">  1        2 0.13197401E+00 0.11095563E+04</pdfrwt>
<pdfrwt beam="2">  1       -2 0.19205384E+00 0.11095563E+04</pdfrwt>
<totfact> 0.46214948E+00</totfact>
</mgrwt>
</event>
<event>
 4    2  0.2930016E-007  0.7416375E+03  0.7818608E-02  0.9855203E-01
          2   -1    0    0  501    0  0.00000000000E+00  0.00000000000E+00  0.31167661517E+03  0.31167661518E+03  0.25500000000E-02 0. -1.
         -2   -1    0    0    0  501 -0.00000000000E+00 -0.00000000000E+00 -0.11184742095E+04  0.11184742095E+04  0.25500000000E-02 0.  1.
    8880023    1    1    2    0    0  0.68292881619E+02 -0.33399412318E+03 -0.29886140051E+03  0.79959010435E+03  0.65864270000E+03 0. -1.
    8880022    1    1    2    0    0 -0.68292881619E+02  0.33399412318E+03 -0.50793619380E+03  0.63056072030E+03  0.15294330000E+03 0.  0.
<mgrwt>
<rscale>  0 0.62482359E+03</rscale>
<asrwt>0</asrwt>
<pdfrwt beam="1">  1        2 0.47950249E-01 0.74163751E+03</pdfrwt>
<pdfrwt beam="2">  1       -2 0.17207295E+00 0.74163751E+03</pdfrwt>
<totfact> 0.21993135E+01</totfact>
</mgrwt>
</event>
<event>
 4    2  0.2930016E-007  0.7265235E+03  0.7818608E-02  0.9901101E-01
          2   -1    0    0  501    0  0.00000000000E+00  0.00000000000E+00  0.42721046094E+04  0.42721046094E+04  0.25500000000E-02 0. -1.
         -2   -1    0    0    0  501 -0.00000000000E+00 -0.00000000000E+00 -0.74372967930E+02  0.74372967973E+02  0.25500000000E-02 0.  1.
    8880023    1    1    2    0    0  0.30609604650E+03  0.18204922070E+02  0.21287937222E+04  0.22493552691E+04  0.65864270000E+03 0. -1.
    8880022    1    1    2    0    0 -0.30609604650E+03 -0.18204922070E+02  0.20689379194E+04  0.20971223083E+04  0.15294330000E+03 0.  0.
<mgrwt>
<rscale>  0 0.60207976E+03</rscale>
<asrwt>0</asrwt>
<pdfrwt beam="1">  1        2 0.65724695E+00 0.72652351E+03</pdfrwt>
<pdfrwt beam="2">  1       -2 0.11441994E-01 0.72652351E+03</pdfrwt>
<totfact> 0.12412089E+01</totfact>
</mgrwt>
</event>
<event>
 4    2  0.2930016E-007  0.7547234E+03  0.7818608E-02  0.9818965E-01
          2   -1    0    0  501    0  0.00000000000E+00  0.00000000000E+00  0.81699094455E+03  0.81699094455E+03  0.25500000000E-02 0. -1.
         -2   -1    0    0    0  501 -0.00000000000E+00 -0.00000000000E+00 -0.59792036202E+03  0.59792036203E+03  0.25500000000E-02 0.  1.
    8880023    1    1    2    0    0 -0.25639760251E+03  0.26468381664E+03  0.51884003013E+03  0.91586158151E+03  0.65864270000E+03 0.  0.
    8880022    1    1    2    0    0  0.25639760251E+03 -0.26468381664E+03 -0.29976944760E+03  0.49904972507E+03  0.15294330000E+03 0.  0.
<mgrwt>
<rscale>  0 0.64354656E+03</rscale>
<asrwt>0</asrwt>
<pdfrwt beam="1">  1        2 0.12569091E+00 0.75472343E+03</pdfrwt>
<pdfrwt beam="2">  1       -2 0.91987748E-01 0.75472343E+03</pdfrwt>
<totfact> 0.34110694E+01</totfact>
</mgrwt>
</event>
<event>
 4    2  0.2930016E-007  0.8643152E+03  0.7818608E-02  0.9585933E-01
          2   -1    0    0  501    0  0.00000000000E+00  0.00000000000E+00  0.26283926633E+04  0.26283926633E+04  0.25500000000E-02 0. -1.
         -2   -1    0    0    0  501 -0.00000000000E+00 -0.00000000000E+00 -0.35402745625E+03  0.35402745626E+03  0.25500000000E-02 0.  1.
    8880023    1    1    2    0    0 -0.48050978815E+03 -0.28695118132E+03  0.22402803252E+04  0.24012281813E+04  0.65864270000E+03 0. -1.
    8880022    1    1    2    0    0  0.48050978815E+03  0.28695118132E+03  0.34084881908E+02  0.58119193831E+03  0.15294330000E+03 0.  0.
<mgrwt>
<rscale>  0 0.78234262E+03</rscale>
<asrwt>0</asrwt>
<pdfrwt beam="1">  1        2 0.40436810E+00 0.86431525E+03</pdfrwt>
<pdfrwt beam="2">  1       -2 0.54465763E-01 0.86431525E+03</pdfrwt>
<totfact> 0.96008437E+00</totfact>
</mgrwt>
</event>
<event>
 4    2  0.2930016E-007  0.7640260E+03  0.7818608E-02  0.9794794E-01
         -2   -1    0    0    0  501 -0.00000000000E+00  0.00000000000E+00  0.69115990012E+03  0.69115990012E+03  0.25500000000E-02 0.  1.
          2   -1    0    0  501    0  0.00000000000E+00 -0.00000000000E+00 -0.15078409451E+04  0.15078409451E+04  0.25500000000E-02 0. -1.
    8880023    1    1    2    0    0  0.38653875356E+03  0.22656321009E+02 -0.13325850115E+04  0.15360724384E+04  0.65864270000E+03 0. -1.
    8880022    1    1    2    0    0 -0.38653875356E+03 -0.22656321009E+02  0.51590396652E+03  0.66292840682E+03  0.15294330000E+03 0.  0.
<mgrwt>
<rscale>  0 0.65642680E+03</rscale>
<asrwt>0</asrwt>
<pdfrwt beam="1">  1        2 0.23197553E+00 0.76402600E+03</pdfrwt>
<pdfrwt beam="2">  1       -2 0.10633229E+00 0.76402600E+03</pdfrwt>
<totfact> 0.91661153E+00</totfact>
</mgrwt>
</event>
<event>
 4    2  0.2930016E-007  0.7359199E+03  0.7818608E-02  0.9871996E-01
         -2   -1    0    0    0  501 -0.00000000000E+00  0.00000000000E+00  0.20543798530E+03  0.20543798532E+03  0.25500000000E-02 0.  1.
          2   -1    0    0  501    0  0.00000000000E+00 -0.00000000000E+00 -0.15903450205E+04  0.15903450205E+04  0.25500000000E-02 0. -1.
    8880023    1    1    2    0    0  0.15249341331E+03  0.29071222914E+03 -0.11459183077E+04  0.13618762115E+04  0.65864270000E+03 0.  0.
    8880022    1    1    2    0    0 -0.15249341331E+03 -0.29071222914E+03 -0.23898872751E+03  0.43390679433E+03  0.15294330000E+03 0.  0.
<mgrwt>
<rscale>  0 0.61637904E+03</rscale>
<asrwt>0</asrwt>
<pdfrwt beam="1">  1        2 0.24466846E+00 0.73591986E+03</pdfrwt>
<pdfrwt beam="2">  1       -2 0.31605845E-01 0.73591986E+03</pdfrwt>
<totfact> 0.10711955E+02</totfact>
</mgrwt>
</event>
<event>
 4    2  0.2930016E-007  0.7222300E+03  0.7818608E-02  0.9915111E-01
         -2   -1    0    0    0  501 -0.00000000000E+00  0.00000000000E+00  0.80098330871E+03  0.80098330871E+03  0.25500000000E-02 0.  1.
          2   -1    0    0  501    0  0.00000000000E+00 -0.00000000000E+00 -0.51807025104E+03  0.51807025104E+03  0.25500000000E-02 0. -1.
    8880023    1    1    2    0    0 -0.20945975824E+03 -0.20960114214E+03 -0.18398977071E+03  0.74529757218E+03  0.65864270000E+03 0. -1.
    8880022    1    1    2    0    0  0.20945975824E+03  0.20960114214E+03  0.46690282839E+03  0.57375598758E+03  0.15294330000E+03 0.  0.
<mgrwt>
<rscale>  0 0.59534489E+03</rscale>
<asrwt>0</asrwt>
<pdfrwt beam="1">  1        2 0.79703116E-01 0.72223004E+03</pdfrwt>
<pdfrwt beam="2">  1       -2 0.12322820E+00 0.72223004E+03</pdfrwt>
<totfact> 0.29788986E+01</totfact>
</mgrwt>
</event>
<event>
 4    2  0.2930016E-007  0.7381729E+03  0.7818608E-02  0.9865301E-01
          2   -1    0    0  501    0  0.00000000000E+00  0.00000000000E+00  0.64984072813E+03  0.64984072814E+03  0.25500000000E-02 0. -1.
         -2   -1    0    0    0  501 -0.00000000000E+00 -0.00000000000E+00 -0.85944615098E+03  0.85944615098E+03  0.25500000000E-02 0.  1.
    8880023    1    1    2    0    0  0.13330200845E+03  0.30548267701E+03  0.36822083949E+03  0.82491568315E+03  0.65864270000E+03 0. -1.
    8880022    1    1    2    0    0 -0.13330200845E+03 -0.30548267701E+03 -0.57782626234E+03  0.68437119597E+03  0.15294330000E+03 0.  0.
<mgrwt>
<rscale>  0 0.61972798E+03</rscale>
<asrwt>0</asrwt>
<pdfrwt beam="1">  1        2 0.99975496E-01 0.73817295E+03</pdfrwt>
<pdfrwt beam="2">  1       -2 0.13222249E+00 0.73817295E+03</pdfrwt>
<totfact> 0.18989313E+01</totfact>
</mgrwt>
</event>
<event>
 4    2  0.2930016E-007  0.7333546E+03  0.7818608E-02  0.9879745E-01
          2   -1    0    0  501    0  0.00000000000E+00  0.00000000000E+00  0.19569569030E+04  0.19569569030E+04  0.25500000000E-02 0. -1.
         -2   -1    0    0    0  501 -0.00000000000E+00 -0.00000000000E+00 -0.25418848435E+03  0.25418848436E+03  0.25500000000E-02 0.  1.
    8880023    1    1    2    0    0  0.27832947285E+02  0.32128515693E+03  0.17030413047E+04  0.18542272560E+04  0.65864270000E+03 0.  0.
    8880022    1    1    2    0    0 -0.27832947285E+02 -0.32128515693E+03 -0.27288608072E+00  0.35691813137E+03  0.15294330000E+03 0.  0.
<mgrwt>
<rscale>  0 0.61253041E+03</rscale>
<asrwt>0</asrwt>
<pdfrwt beam="1">  1        2 0.30107029E+00 0.73335464E+03</pdfrwt>
<pdfrwt beam="2">  1       -2 0.39105921E-01 0.73335464E+03</pdfrwt>
<totfact> 0.45029381E+01</totfact>
</mgrwt>
</event>
<event>
 4    2  0.2930016E-007  0.8858662E+03  0.7818608E-02  0.9549113E-01
          2   -1    0    0  501    0  0.00000000000E+00  0.00000000000E+00  0.23576932831E+04  0.23576932831E+04  0.25500000000E-02 0. -1.
         -2   -1    0    0    0  501 -0.00000000000E+00 -0.00000000000E+00 -0.26425708219E+03  0.26425708220E+03  0.25500000000E-02 0.  1.
    8880023    1    1    2    0    0 -0.59189597472E+03  0.24656063912E+02  0.16272293009E+04  0.18527369404E+04  0.65864270000E+03 0.  0.
    8880022    1    1    2    0    0  0.59189597472E+03 -0.24656063912E+02  0.46620689996E+03  0.76921342485E+03  0.15294330000E+03 0.  0.
<mgrwt>
<rscale>  0 0.80757794E+03</rscale>
<asrwt>0</asrwt>
<pdfrwt beam="1">  1        2 0.36272203E+00 0.88586623E+03</pdfrwt>
<pdfrwt beam="2">  1       -2 0.40654937E-01 0.88586623E+03</pdfrwt>
<totfact> 0.24624383E+01</totfact>
</mgrwt>
</event>
<event>
 4    2  0.2930016E-007  0.8561675E+03  0.7818608E-02  0.9600417E-01
         -2   -1    0    0    0  501 -0.00000000000E+00  0.00000000000E+00  0.52639332526E+03  0.52639332526E+03  0.25500000000E-02 0.  1.
          2   -1    0    0  501    0  0.00000000000E+00 -0.00000000000E+00 -0.27206004439E+04  0.27206004439E+04  0.25500000000E-02 0. -1.
    8880023    1    1    2    0    0 -0.10892915676E+03 -0.53604760312E+03 -0.24710247248E+04  0.26151455009E+04  0.65864270000E+03 0. -1.
    8880022    1    1    2    0    0  0.10892915676E+03  0.53604760312E+03  0.27681760617E+03  0.63184826826E+03  0.15294330000E+03 0.  0.
<mgrwt>
<rscale>  0 0.77268560E+03</rscale>
<asrwt>0</asrwt>
<pdfrwt beam="1">  1        2 0.41855391E+00 0.85616751E+03</pdfrwt>
<pdfrwt beam="2">  1       -2 0.80983590E-01 0.85616751E+03</pdfrwt>
<totfact> 0.36005787E+00</totfact>
</mgrwt>
</event>
<event>
 4    2  0.2930016E-007  0.1432459E+04  0.7818608E-02  0.8958863E-01
          2   -1    0    0  501    0  0.00000000000E+00  0.00000000000E+00  0.26463657648E+04  0.26463657648E+04  0.25500000000E-02 0. -1.
         -2   -1    0    0    0  501 -0.00000000000E+00 -0.00000000000E+00 -0.10561085300E+04  0.10561085300E+04  0.25500000000E-02 0.  1.
    8880023    1    1    2    0    0 -0.81376377386E+03 -0.97771068675E+03 -0.25605737344E+03  0.14551650255E+04  0.65864270000E+03 0.  0.
    8880022    1    1    2    0    0  0.81376377386E+03  0.97771068675E+03  0.18463146082E+04  0.22473092694E+04  0.15294330000E+03 0.  0.
<mgrwt>
<rscale>  0 0.13930527E+04</rscale>
<asrwt>0</asrwt>
<pdfrwt beam="1">  1        2 0.40713318E+00 0.14324594E+04</pdfrwt>
<pdfrwt beam="2">  1       -2 0.16247824E+00 0.14324594E+04</pdfrwt>
<totfact> 0.65632333E-01</totfact>
</mgrwt>
</event>
<event>
 4    2  0.2930016E-007  0.7770699E+03  0.7818608E-02  0.9762765E-01
          2   -1    0    0  501    0  0.00000000000E+00  0.00000000000E+00  0.24795306229E+04  0.24795306229E+04  0.25500000000E-02 0. -1.
         -2   -1    0    0    0  501 -0.00000000000E+00 -0.00000000000E+00 -0.23835859676E+03  0.23835859678E+03  0.25500000000E-02 0.  1.
    8880023    1    1    2    0    0 -0.14844734389E+03 -0.38469578130E+03  0.21255656180E+04  0.22631541840E+04  0.65864270000E+03 0.  0.
    8880022    1    1    2    0    0  0.14844734389E+03  0.38469578130E+03  0.11560640819E+03  0.45473503570E+03  0.15294330000E+03 0.  0.
<mgrwt>
<rscale>  0 0.67399628E+03</rscale>
<asrwt>0</asrwt>
<pdfrwt beam="1">  1        2 0.38146624E+00 0.77706992E+03</pdfrwt>
<pdfrwt beam="2">  1       -2 0.36670554E-01 0.77706992E+03</pdfrwt>
<totfact> 0.26050885E+01</totfact>
</mgrwt>
</event>
<event>
 4    2  0.2930016E-007  0.8083082E+03  0.7818608E-02  0.9693112E-01
         -2   -1    0    0    0  501 -0.00000000000E+00  0.00000000000E+00  0.34370150501E+03  0.34370150502E+03  0.25500000000E-02 0.  1.
          2   -1    0    0  501    0  0.00000000000E+00 -0.00000000000E+00 -0.28698473434E+04  0.28698473434E+04  0.25500000000E-02 0. -1.
    8880023    1    1    2    0    0 -0.25532328652E+03  0.39288933302E+03 -0.25930707351E+04  0.27161329224E+04  0.65864270000E+03 0. -1.
    8880022    1    1    2    0    0  0.25532328652E+03 -0.39288933302E+03  0.66924896721E+02  0.49741592602E+03  0.15294330000E+03 0.  0.
<mgrwt>
<rscale>  0 0.71428405E+03</rscale>
<asrwt>0</asrwt>
<pdfrwt beam="1">  1        2 0.44151496E+00 0.80830824E+03</pdfrwt>
<pdfrwt beam="2">  1       -2 0.52877156E-01 0.80830824E+03</pdfrwt>
<totfact> 0.74242803E+00</totfact>
</mgrwt>
</event>
<event>
 4    2  0.2930016E-007  0.7200425E+03  0.7818608E-02  0.9922442E-01
         -2   -1    0    0    0  501 -0.00000000000E+00  0.00000000000E+00  0.91436995668E+03  0.91436995668E+03  0.25500000000E-02 0.  1.
          2   -1    0    0  501    0  0.00000000000E+00 -0.00000000000E+00 -0.94000242482E+03  0.94000242483E+03  0.25500000000E-02 0. -1.
    8880023    1    1    2    0    0 -0.20886219151E+03  0.20255251569E+03 -0.76175058845E+03  0.10482008881E+04  0.65864270000E+03 0. -1.
    8880022    1    1    2    0    0  0.20886219151E+03 -0.20255251569E+03  0.73611812030E+03  0.80617149336E+03  0.15294330000E+03 0.  0.
<mgrwt>
<rscale>  0 0.59185859E+03</rscale>
<asrwt>0</asrwt>
<pdfrwt beam="1">  1        2 0.14461576E+00 0.72004246E+03</pdfrwt>
<pdfrwt beam="2">  1       -2 0.14067230E+00 0.72004246E+03</pdfrwt>
<totfact> 0.99809163E+00</totfact>
</mgrwt>
</event>
<event>
 4    2  0.2930016E-007  0.9991352E+03  0.7818608E-02  0.9382690E-01
          2   -1    0    0  501    0  0.00000000000E+00  0.00000000000E+00  0.27428950709E+04  0.27428950709E+04  0.25500000000E-02 0. -1.
         -2   -1    0    0    0  501 -0.00000000000E+00 -0.00000000000E+00 -0.37479208971E+03  0.37479208972E+03  0.25500000000E-02 0.  1.
    8880023    1    1    2    0    0  0.67614736546E+03  0.32754485068E+03  0.54092608632E+03  0.11361655364E+04  0.65864270000E+03 0.  0.
    8880022    1    1    2    0    0 -0.67614736546E+03 -0.32754485068E+03  0.18271768949E+04  0.19815216242E+04  0.15294330000E+03 0.  0.
<mgrwt>
<rscale>  0 0.93514022E+03</rscale>
<asrwt>0</asrwt>
<pdfrwt beam="1">  1        2 0.42198386E+00 0.99913517E+03</pdfrwt>
<pdfrwt beam="2">  1       -2 0.57660321E-01 0.99913517E+03</pdfrwt>
<totfact> 0.71700326E+00</totfact>
</mgrwt>
</event>
<event>
 4    2  0.2930016E-007  0.1019033E+04  0.7818608E-02  0.9357070E-01
         -2   -1    0    0    0  501 -0.00000000000E+00  0.00000000000E+00  0.12052408364E+04  0.12052408364E+04  0.25500000000E-02 0.  1.
          2   -1    0    0  501    0  0.00000000000E+00 -0.00000000000E+00 -0.69186283918E+03  0.69186283919E+03  0.25500000000E-02 0. -1.
    8880023    1    1    2    0    0  0.15561733834E+03 -0.76184067575E+03  0.16862416277E+03  0.10328902583E+04  0.65864270000E+03 0.  0.
    8880022    1    1    2    0    0 -0.15561733834E+03  0.76184067575E+03  0.34475383448E+03  0.86421341729E+03  0.15294330000E+03 0. -1.
<mgrwt>
<rscale>  0 0.95694496E+03</rscale>
<asrwt>0</asrwt>
<pdfrwt beam="1">  1        2 0.10644044E+00 0.10190330E+04</pdfrwt>
<pdfrwt beam="2">  1       -2 0.18542166E+00 0.10190330E+04</pdfrwt>
<totfact> 0.68608418E+00</totfact>
</mgrwt>
</event>
<event>
 4    2  0.2930016E-007  0.7932743E+03  0.7818608E-02  0.9725532E-01
          2   -1    0    0  501    0  0.00000000000E+00  0.00000000000E+00  0.13212242160E+04  0.13212242160E+04  0.25500000000E-02 0. -1.
         -2   -1    0    0    0  501 -0.00000000000E+00 -0.00000000000E+00 -0.36104982309E+03  0.36104982310E+03  0.25500000000E-02 0.  1.
    8880023    1    1    2    0    0 -0.18221189271E+02  0.44174864180E+03  0.91692241022E+03  0.12124482615E+04  0.65864270000E+03 0.  0.
    8880022    1    1    2    0    0  0.18221189271E+02 -0.44174864180E+03  0.43251982727E+02  0.46982577760E+03  0.15294330000E+03 0.  0.
<mgrwt>
<rscale>  0 0.69516788E+03</rscale>
<asrwt>0</asrwt>
<pdfrwt beam="1">  1        2 0.20326526E+00 0.79327428E+03</pdfrwt>
<pdfrwt beam="2">  1       -2 0.55546127E-01 0.79327428E+03</pdfrwt>
<totfact> 0.49670973E+01</totfact>
</mgrwt>
</event>
<event>
 4    2  0.2930016E-007  0.1137724E+04  0.7818608E-02  0.9220174E-01
         -2   -1    0    0    0  501 -0.00000000000E+00  0.00000000000E+00  0.11621811259E+04  0.11621811259E+04  0.25500000000E-02 0.  1.
          2   -1    0    0  501    0  0.00000000000E+00 -0.00000000000E+00 -0.12900421843E+04  0.12900421843E+04  0.25500000000E-02 0. -1.
    8880023    1    1    2    0    0 -0.60873850861E+03 -0.70003006743E+03 -0.71500194424E+03  0.13437420339E+04  0.65864270000E+03 0.  0.
    8880022    1    1    2    0    0  0.60873850861E+03  0.70003006743E+03  0.58714088581E+03  0.11084812763E+04  0.15294330000E+03 0.  0.
<mgrwt>
<rscale>  0 0.10847605E+04</rscale>
<asrwt>0</asrwt>
<pdfrwt beam="1">  1        2 0.19846803E+00 0.11377235E+04</pdfrwt>
<pdfrwt beam="2">  1       -2 0.17879710E+00 0.11377235E+04</pdfrwt>
<totfact> 0.30256227E+00</totfact>
</mgrwt>
</event>
<event>
 4    2  0.2930016E-007  0.8117099E+03  0.7818608E-02  0.9686026E-01
          2   -1    0    0  501    0  0.00000000000E+00  0.00000000000E+00  0.12934930958E+04  0.12934930958E+04  0.25500000000E-02 0. -1.
         -2   -1    0    0    0  501 -0.00000000000E+00 -0.00000000000E+00 -0.60157022706E+03  0.60157022707E+03  0.25500000000E-02 0.  1.
    8880023    1    1    2    0    0 -0.46790689552E+03 -0.78267799736E+02  0.10160656359E+04  0.13004854071E+04  0.65864270000E+03 0.  0.
    8880022    1    1    2    0    0  0.46790689552E+03  0.78267799736E+02 -0.32414276719E+03  0.59457791575E+03  0.15294330000E+03 0.  0.
<mgrwt>
<rscale>  0 0.71854910E+03</rscale>
<asrwt>0</asrwt>
<pdfrwt beam="1">  1        2 0.19899893E+00 0.81170987E+03</pdfrwt>
<pdfrwt beam="2">  1       -2 0.92549267E-01 0.81170987E+03</pdfrwt>
<totfact> 0.16743328E+01</totfact>
</mgrwt>
</event>
<event>
 4    2  0.2930016E-007  0.8929861E+03  0.7818608E-02  0.9537386E-01
          2   -1    0    0  501    0  0.00000000000E+00  0.00000000000E+00  0.73231231463E+03  0.73231231463E+03  0.25500000000E-02 0. -1.
         -2   -1    0    0    0  501 -0.00000000000E+00 -0.00000000000E+00 -0.82259175529E+03  0.82259175530E+03  0.25500000000E-02 0.  1.
    8880023    1    1    2    0    0 -0.34987999972E+03 -0.49111904817E+03 -0.21940921635E+03  0.91954583581E+03  0.65864270000E+03 0.  1.
    8880022    1    1    2    0    0  0.34987999972E+03  0.49111904817E+03  0.12912977568E+03  0.63535823412E+03  0.15294330000E+03 0.  0.
<mgrwt>
<rscale>  0 0.81582718E+03</rscale>
<asrwt>0</asrwt>
<pdfrwt beam="1">  1        2 0.11266343E+00 0.89298608E+03</pdfrwt>
<pdfrwt beam="2">  1       -2 0.12655258E+00 0.89298608E+03</pdfrwt>
<totfact> 0.18004338E+01</totfact>
</mgrwt>
</event>
<event>
 4    2  0.2930016E-007  0.6662837E+03  0.7818608E-02  0.1018480E+00
          2   -1    0    0  501    0  0.00000000000E+00  0.00000000000E+00  0.22329502543E+04  0.22329502543E+04  0.25500000000E-02 0. -1.
         -2   -1    0    0    0  501 -0.00000000000E+00 -0.00000000000E+00 -0.19781649675E+03  0.19781649676E+03  0.25500000000E-02 0.  1.
    8880023    1    1    2    0    0  0.94413811085E+02 -0.34782074217E+02  0.21248712428E+04  0.22268838688E+04  0.65864270000E+03 0. -1.
    8880022    1    1    2    0    0 -0.94413811085E+02  0.34782074217E+02 -0.89737485238E+02  0.20388288227E+03  0.15294330000E+03 0.  0.
<mgrwt>
<rscale>  0 0.48239185E+03</rscale>
<asrwt>0</asrwt>
<pdfrwt beam="1">  1        2 0.34353081E+00 0.66628370E+03</pdfrwt>
<pdfrwt beam="2">  1       -2 0.30433307E-01 0.66628370E+03</pdfrwt>
<totfact> 0.51654477E+01</totfact>
</mgrwt>
</event>
<event>
 4    2  0.2930016E-007  0.7293438E+03  0.7818608E-02  0.9892152E-01
          2   -1    0    0  501    0  0.00000000000E+00  0.00000000000E+00  0.20653316858E+04  0.20653316858E+04  0.25500000000E-02 0. -1.
         -2   -1    0    0    0  501 -0.00000000000E+00 -0.00000000000E+00 -0.22626664647E+03  0.22626664648E+03  0.25500000000E-02 0.  1.
    8880023    1    1    2    0    0  0.29396569329E+03 -0.10824190199E+03  0.17983578199E+04  0.19406270103E+04  0.65864270000E+03 0.  0.
    8880022    1    1    2    0    0 -0.29396569329E+03  0.10824190199E+03  0.40707219434E+02  0.35097132205E+03  0.15294330000E+03 0.  0.
<mgrwt>
<rscale>  0 0.60643167E+03</rscale>
<asrwt>0</asrwt>
<pdfrwt beam="1">  1        2 0.31774334E+00 0.72934378E+03</pdfrwt>
<pdfrwt beam="2">  1       -2 0.34810253E-01 0.72934378E+03</pdfrwt>
<totfact> 0.49167088E+01</totfact>
</mgrwt>
</event>
<event>
 4    2  0.2930016E-007  0.7661022E+03  0.7818608E-02  0.9789558E-01
         -2   -1    0    0    0  501 -0.00000000000E+00  0.00000000000E+00  0.12443416845E+04  0.12443416845E+04  0.25500000000E-02 0.  1.
          2   -1    0    0  501    0  0.00000000000E+00 -0.00000000000E+00 -0.79254926656E+03  0.79254926657E+03  0.25500000000E-02 0. -1.
    8880023    1    1    2    0    0 -0.34486041471E+03  0.18486137882E+03 -0.55496752734E+03  0.94599238775E+03  0.65864270000E+03 0. -1.
    8880022    1    1    2    0    0  0.34486041471E+03 -0.18486137882E+03  0.10067599453E+04  0.10908985633E+04  0.15294330000E+03 0.  0.
<mgrwt>
<rscale>  0 0.65925938E+03</rscale>
<asrwt>0</asrwt>
<pdfrwt beam="1">  1        2 0.12193066E+00 0.76610224E+03</pdfrwt>
<pdfrwt beam="2">  1       -2 0.19143718E+00 0.76610224E+03</pdfrwt>
<totfact> 0.53849332E+00</totfact>
</mgrwt>
</event>
<event>
 4    2  0.2930016E-007  0.7287414E+03  0.7818608E-02  0.9894047E-01
         -2   -1    0    0    0  501 -0.00000000000E+00  0.00000000000E+00  0.76268629843E+03  0.76268629844E+03  0.25500000000E-02 0.  1.
          2   -1    0    0  501    0  0.00000000000E+00 -0.00000000000E+00 -0.10766573566E+04  0.10766573566E+04  0.25500000000E-02 0. -1.
    8880023    1    1    2    0    0  0.29564618143E+03  0.99233075029E+02 -0.90004251618E+03  0.11580762518E+04  0.65864270000E+03 0. -1.
    8880022    1    1    2    0    0 -0.29564618143E+03 -0.99233075029E+02  0.58607145803E+03  0.68126740323E+03  0.15294330000E+03 0.  0.
<mgrwt>
<rscale>  0 0.60550676E+03</rscale>
<asrwt>0</asrwt>
<pdfrwt beam="1">  1        2 0.16563959E+00 0.72874143E+03</pdfrwt>
<pdfrwt beam="2">  1       -2 0.11733635E+00 0.72874143E+03</pdfrwt>
<totfact> 0.12902026E+01</totfact>
</mgrwt>
</event>
<event>
 4    2  0.2930016E-007  0.6956243E+03  0.7818608E-02  0.1001586E+00
         -2   -1    0    0    0  501 -0.00000000000E+00  0.00000000000E+00  0.23873005373E+04  0.23873005373E+04  0.25500000000E-02 0.  1.
          2   -1    0    0  501    0  0.00000000000E+00 -0.00000000000E+00 -0.16816837814E+03  0.16816837816E+03  0.25500000000E-02 0. -1.
    8880023    1    1    2    0    0  0.35305996888E+02 -0.22098978656E+03  0.61471258125E+03  0.92831285836E+03  0.65864270000E+03 0. -1.
    8880022    1    1    2    0    0 -0.35305996888E+02  0.22098978656E+03  0.16044195779E+04  0.16271560571E+04  0.15294330000E+03 0.  0.
<mgrwt>
<rscale>  0 0.54960195E+03</rscale>
<asrwt>0</asrwt>
<pdfrwt beam="1">  1        2 0.25872058E-01 0.69562433E+03</pdfrwt>
<pdfrwt beam="2">  1       -2 0.36727701E+00 0.69562433E+03</pdfrwt>
<totfact> 0.27078865E+00</totfact>
</mgrwt>
</event>
<event>
 4    2  0.2930016E-007  0.7885180E+03  0.7818608E-02  0.9736196E-01
          2   -1    0    0  501    0  0.00000000000E+00  0.00000000000E+00  0.28782519740E+04  0.28782519740E+04  0.25500000000E-02 0. -1.
         -2   -1    0    0    0  501 -0.00000000000E+00 -0.00000000000E+00 -0.28740246534E+03  0.28740246535E+03  0.25500000000E-02 0.  1.
    8880023    1    1    2    0    0 -0.25077380190E+03 -0.35364236691E+03  0.25884918794E+04  0.27059288312E+04  0.65864270000E+03 0. -1.
    8880022    1    1    2    0    0  0.25077380190E+03  0.35364236691E+03  0.23576292688E+01  0.45972560819E+03  0.15294330000E+03 0.  0.
<mgrwt>
<rscale>  0 0.68902020E+03</rscale>
<asrwt>0</asrwt>
<pdfrwt beam="1">  1        2 0.44280798E+00 0.78851800E+03</pdfrwt>
<pdfrwt beam="2">  1       -2 0.44215766E-01 0.78851800E+03</pdfrwt>
<totfact> 0.10575984E+01</totfact>
</mgrwt>
</event>
<event>
 4    2  0.2930016E-007  0.8283686E+03  0.7818608E-02  0.9652515E-01
         -2   -1    0    0    0  501 -0.00000000000E+00  0.00000000000E+00  0.61092984179E+03  0.61092984179E+03  0.25500000000E-02 0.  1.
          2   -1    0    0  501    0  0.00000000000E+00 -0.00000000000E+00 -0.13807393487E+04  0.13807393487E+04  0.25500000000E-02 0. -1.
    8880023    1    1    2    0    0 -0.46657362115E+03 -0.18626151743E+03 -0.10957242665E+04  0.13736106331E+04  0.65864270000E+03 0.  0.
    8880022    1    1    2    0    0  0.46657362115E+03  0.18626151743E+03  0.32591475961E+03  0.61805855740E+03  0.15294330000E+03 0.  0.
<mgrwt>
<rscale>  0 0.73915797E+03</rscale>
<asrwt>0</asrwt>
<pdfrwt beam="1">  1        2 0.21242144E+00 0.82836858E+03</pdfrwt>
<pdfrwt beam="2">  1       -2 0.93989207E-01 0.82836858E+03</pdfrwt>
<totfact> 0.14366177E+01</totfact>
</mgrwt>
</event>
<event>
 4    2  0.2930016E-007  0.6976134E+03  0.7818608E-02  0.1000725E+00
         -2   -1    0    0    0  501 -0.00000000000E+00  0.00000000000E+00  0.87928785955E+03  0.87928785955E+03  0.25500000000E-02 0.  1.
          2   -1    0    0  501    0  0.00000000000E+00 -0.00000000000E+00 -0.84481902550E+03  0.84481902550E+03  0.25500000000E-02 0. -1.
    8880023    1    1    2    0    0  0.51568743571E+02  0.22404223680E+03 -0.67012875594E+03  0.96733500660E+03  0.65864270000E+03 0. -1.
    8880022    1    1    2    0    0 -0.51568743571E+02 -0.22404223680E+03  0.70459758999E+03  0.75677187846E+03  0.15294330000E+03 0.  0.
<mgrwt>
<rscale>  0 0.55333505E+03</rscale>
<asrwt>0</asrwt>
<pdfrwt beam="1">  1        2 0.12997216E+00 0.69761341E+03</pdfrwt>
<pdfrwt beam="2">  1       -2 0.13527505E+00 0.69761341E+03</pdfrwt>
<totfact> 0.12834113E+01</totfact>
</mgrwt>
</event>
<event>
 4    2  0.2930016E-007  0.6854034E+03  0.7818608E-02  0.1006419E+00
         -2   -1    0    0    0  501 -0.00000000000E+00  0.00000000000E+00  0.69059210617E+03  0.69059210618E+03  0.25500000000E-02 0.  1.
          2   -1    0    0  501    0  0.00000000000E+00 -0.00000000000E+00 -0.51528553396E+03  0.51528553396E+03  0.25500000000E-02 0. -1.
    8880023    1    1    2    0    0  0.16908932043E+02  0.18889601176E+03 -0.23846716349E+03  0.72570270054E+03  0.65864270000E+03 0. -1.
    8880022    1    1    2    0    0 -0.16908932043E+02 -0.18889601176E+03  0.41377373571E+03  0.48017493960E+03  0.15294330000E+03 0.  0.
<mgrwt>
<rscale>  0 0.52923159E+03</rscale>
<asrwt>0</asrwt>
<pdfrwt beam="1">  1        2 0.79274697E-01 0.68540340E+03</pdfrwt>
<pdfrwt beam="2">  1       -2 0.10624494E+00 0.68540340E+03</pdfrwt>
<totfact> 0.43192771E+01</totfact>
</mgrwt>
</event>
<event>
 4    2  0.2930016E-007  0.6618533E+03  0.7818608E-02  0.1022333E+00
          2   -1    0    0  501    0  0.00000000000E+00  0.00000000000E+00  0.26090783047E+04  0.26090783047E+04  0.25500000000E-02 0. -1.
         -2   -1    0    0    0  501 -0.00000000000E+00 -0.00000000000E+00 -0.68467222628E+03  0.68467222629E+03  0.25500000000E-02 0.  1.
    8880023    1    1    2    0    0 -0.53106067173E+02  0.37673372976E+02  0.25561800030E+04  0.26404745693E+04  0.65864270000E+03 0. -1.
    8880022    1    1    2    0    0  0.53106067173E+02 -0.37673372976E+02 -0.63177392452E+03  0.65327596169E+03  0.15294330000E+03 0.  0.
<mgrwt>
<rscale>  0 0.46853953E+03</rscale>
<asrwt>0</asrwt>
<pdfrwt beam="1">  1        2 0.40139666E+00 0.66185326E+03</pdfrwt>
<pdfrwt beam="2">  1       -2 0.10533419E+00 0.66185326E+03</pdfrwt>
<totfact> 0.23548991E+00</totfact>
</mgrwt>
</event>
<event>
 4    2  0.2930016E-007  0.9168997E+03  0.7818608E-02  0.9499429E-01
         -2   -1    0    0    0  501 -0.00000000000E+00  0.00000000000E+00  0.60063372047E+03  0.60063372047E+03  0.25500000000E-02 0.  1.
          2   -1    0    0  501    0  0.00000000000E+00 -0.00000000000E+00 -0.23130642148E+04  0.23130642148E+04  0.25500000000E-02 0. -1.
    8880023    1    1    2    0    0  0.42219569858E+03 -0.47816899777E+03 -0.19979450943E+04  0.21982924292E+04  0.65864270000E+03 0. -1.
    8880022    1    1    2    0    0 -0.42219569858E+03  0.47816899777E+03  0.28551459993E+03  0.71540550607E+03  0.15294330000E+03 0.  0.
<mgrwt>
<rscale>  0 0.84325917E+03</rscale>
<asrwt>0</asrwt>
<pdfrwt beam="1">  1        2 0.35585603E+00 0.91689967E+03</pdfrwt>
<pdfrwt beam="2">  1       -2 0.92405189E-01 0.91689967E+03</pdfrwt>
<totfact> 0.45073759E+00</totfact>
</mgrwt>
</event>
<event>
 4    2  0.2930016E-007  0.1553550E+04  0.7818608E-02  0.8872720E-01
          2   -1    0    0  501    0  0.00000000000E+00  0.00000000000E+00  0.31681870660E+04  0.31681870660E+04  0.25500000000E-02 0. -1.
         -2   -1    0    0    0  501 -0.00000000000E+00 -0.00000000000E+00 -0.12436145319E+04  0.12436145319E+04  0.25500000000E-02 0.  1.
    8880023    1    1    2    0    0  0.14042220737E+04  0.88697350662E+02  0.24508982566E+04  0.29017958789E+04  0.65864270000E+03 0.  0.
    8880022    1    1    2    0    0 -0.14042220737E+04 -0.88697350662E+02 -0.52632572256E+03  0.15100057190E+04  0.15294330000E+03 0.  0.
<mgrwt>
<rscale>  0 0.15177725E+04</rscale>
<asrwt>0</asrwt>
<pdfrwt beam="1">  1        2 0.48741339E+00 0.15535498E+04</pdfrwt>
<pdfrwt beam="2">  1       -2 0.19132531E+00 0.15535498E+04</pdfrwt>
<totfact> 0.19383097E-01</totfact>
</mgrwt>
</event>
<event>
 4    2  0.2930016E-007  0.1019968E+04  0.7818608E-02  0.9355888E-01
          2   -1    0    0  501    0  0.00000000000E+00  0.00000000000E+00  0.16187921924E+04  0.16187921924E+04  0.25500000000E-02 0. -1.
         -2   -1    0    0    0  501 -0.00000000000E+00 -0.00000000000E+00 -0.66671672341E+03  0.66671672342E+03  0.25500000000E-02 0.  1.
    8880023    1    1    2    0    0 -0.74830040201E+02  0.77519311424E+03  0.10755653832E+04  0.14822870839E+04  0.65864270000E+03 0. -1.
    8880022    1    1    2    0    0  0.74830040201E+02 -0.77519311424E+03 -0.12348991427E+03  0.80322183188E+03  0.15294330000E+03 0.  0.
<mgrwt>
<rscale>  0 0.95796602E+03</rscale>
<asrwt>0</asrwt>
<pdfrwt beam="1">  1        2 0.24904495E+00 0.10199677E+04</pdfrwt>
<pdfrwt beam="2">  1       -2 0.10257180E+00 0.10199677E+04</pdfrwt>
<totfact> 0.84130178E+00</totfact>
</mgrwt>
</event>
<event>
 4    2  0.2930016E-007  0.1036659E+04  0.7818608E-02  0.9335094E-01
          2   -1    0    0  501    0  0.00000000000E+00  0.00000000000E+00  0.39410099400E+04  0.39410099400E+04  0.25500000000E-02 0. -1.
         -2   -1    0    0    0  501 -0.00000000000E+00 -0.00000000000E+00 -0.27372538504E+03  0.27372538505E+03  0.25500000000E-02 0.  1.
    8880023    1    1    2    0    0  0.30782239571E+02  0.79993956040E+03  0.29576946496E+04  0.31341057246E+04  0.65864270000E+03 0.  0.
    8880022    1    1    2    0    0 -0.30782239571E+02 -0.79993956040E+03  0.70958990543E+03  0.10806296005E+04  0.15294330000E+03 0.  0.
<mgrwt>
<rscale>  0 0.97615245E+03</rscale>
<asrwt>0</asrwt>
<pdfrwt beam="1">  1        2 0.60630915E+00 0.10366586E+04</pdfrwt>
<pdfrwt beam="2">  1       -2 0.42111603E-01 0.10366586E+04</pdfrwt>
<totfact> 0.21326813E+00</totfact>
</mgrwt>
</event>
<event>
 4    2  0.2930016E-007  0.7922116E+03  0.7818608E-02  0.9727896E-01
         -2   -1    0    0    0  501 -0.00000000000E+00  0.00000000000E+00  0.44391300285E+03  0.44391300286E+03  0.25500000000E-02 0.  1.
          2   -1    0    0  501    0  0.00000000000E+00 -0.00000000000E+00 -0.18807275643E+04  0.18807275643E+04  0.25500000000E-02 0. -1.
    8880023    1    1    2    0    0  0.27719906842E+03  0.34197911259E+03 -0.16360884378E+04  0.18177966387E+04  0.65864270000E+03 0. -1.
    8880022    1    1    2    0    0 -0.27719906842E+03 -0.34197911259E+03  0.19927387639E+03  0.50684392845E+03  0.15294330000E+03 0.  0.
<mgrwt>
<rscale>  0 0.69379882E+03</rscale>
<asrwt>0</asrwt>
<pdfrwt beam="1">  1        2 0.28934270E+00 0.79221162E+03</pdfrwt>
<pdfrwt beam="2">  1       -2 0.68294309E-01 0.79221162E+03</pdfrwt>
<totfact> 0.15665801E+01</totfact>
</mgrwt>
</event>
<event>
 4    2  0.2930016E-007  0.6733431E+03  0.7818608E-02  0.1013372E+00
          2   -1    0    0  501    0  0.00000000000E+00  0.00000000000E+00  0.13265773337E+04  0.13265773337E+04  0.25500000000E-02 0. -1.
         -2   -1    0    0    0  501 -0.00000000000E+00 -0.00000000000E+00 -0.57215178507E+03  0.57215178508E+03  0.25500000000E-02 0.  1.
    8880023    1    1    2    0    0  0.71964493318E+02  0.12000757471E+03  0.12175445146E+04  0.13913322959E+04  0.65864270000E+03 0.  0.
    8880022    1    1    2    0    0 -0.71964493318E+02 -0.12000757471E+03 -0.46311896594E+03  0.50739682292E+03  0.15294330000E+03 0.  1.
<mgrwt>
<rscale>  0 0.50156353E+03</rscale>
<asrwt>0</asrwt>
<pdfrwt beam="1">  1        2 0.20408882E+00 0.67334309E+03</pdfrwt>
<pdfrwt beam="2">  1       -2 0.88023353E-01 0.67334309E+03</pdfrwt>
<totfact> 0.18293268E+01</totfact>
</mgrwt>
</event>
<event>
 4    2  0.2930016E-007  0.8771935E+03  0.7818608E-02  0.9563682E-01
          2   -1    0    0  501    0  0.00000000000E+00  0.00000000000E+00  0.40026019527E+04  0.40026019527E+04  0.25500000000E-02 0. -1.
         -2   -1    0    0    0  501 -0.00000000000E+00 -0.00000000000E+00 -0.54288286523E+03  0.54288286523E+03  0.25500000000E-02 0.  1.
    8880023    1    1    2    0    0  0.47505386044E+03  0.33163538415E+03  0.37700009059E+04  0.38707073301E+04  0.65864270000E+03 0.  0.
    8880022    1    1    2    0    0 -0.47505386044E+03 -0.33163538415E+03 -0.31028181839E+03  0.67477748790E+03  0.15294330000E+03 0.  0.
<mgrwt>
<rscale>  0 0.79747282E+03</rscale>
<asrwt>0</asrwt>
<pdfrwt beam="1">  1        2 0.61578490E+00 0.87719348E+03</pdfrwt>
<pdfrwt beam="2">  1       -2 0.83520443E-01 0.87719348E+03</pdfrwt>
<totfact> 0.46106242E-01</totfact>
</mgrwt>
</event>
<event>
 4    2  0.2930016E-007  0.8010893E+03  0.7818608E-02  0.9708446E-01
          2   -1    0    0  501    0  0.00000000000E+00  0.00000000000E+00  0.12282474798E+04  0.12282474798E+04  0.25500000000E-02 0. -1.
         -2   -1    0    0    0  501 -0.00000000000E+00 -0.00000000000E+00 -0.50834295034E+03  0.50834295035E+03  0.25500000000E-02 0.  1.
    8880023    1    1    2    0    0 -0.31758476627E+03 -0.32722129021E+03  0.91627124521E+03  0.12170854767E+04  0.65864270000E+03 0. -1.
    8880022    1    1    2    0    0  0.31758476627E+03  0.32722129021E+03 -0.19636671579E+03  0.51950495341E+03  0.15294330000E+03 0.  0.
<mgrwt>
<rscale>  0 0.70516157E+03</rscale>
<asrwt>0</asrwt>
<pdfrwt beam="1">  1        2 0.18896115E+00 0.80108930E+03</pdfrwt>
<pdfrwt beam="2">  1       -2 0.78206608E-01 0.80108930E+03</pdfrwt>
<totfact> 0.26867976E+01</totfact>
</mgrwt>
</event>
<event>
 4    2  0.2930016E-007  0.8734038E+03  0.7818608E-02  0.9570151E-01
         -2   -1    0    0    0  501 -0.00000000000E+00  0.00000000000E+00  0.38241509994E+03  0.38241509995E+03  0.25500000000E-02 0.  1.
          2   -1    0    0  501    0  0.00000000000E+00 -0.00000000000E+00 -0.22016748607E+04  0.22016748607E+04  0.25500000000E-02 0. -1.
    8880023    1    1    2    0    0  0.55223302661E+03 -0.15512163558E+03 -0.17876478969E+04  0.19896027863E+04  0.65864270000E+03 0. -1.
    8880022    1    1    2    0    0 -0.55223302661E+03  0.15512163558E+03 -0.31611863796E+02  0.59448717433E+03  0.15294330000E+03 0.  0.
<mgrwt>
<rscale>  0 0.79303658E+03</rscale>
<asrwt>0</asrwt>
<pdfrwt beam="1">  1        2 0.33871920E+00 0.87340383E+03</pdfrwt>
<pdfrwt beam="2">  1       -2 0.58833094E-01 0.87340383E+03</pdfrwt>
<totfact> 0.14215438E+01</totfact>
</mgrwt>
</event>
<event>
 4    2  0.2930016E-007  0.9173425E+03  0.7818608E-02  0.9498746E-01
          2   -1    0    0  501    0  0.00000000000E+00  0.00000000000E+00  0.19329605591E+04  0.19329605591E+04  0.25500000000E-02 0. -1.
         -2   -1    0    0    0  501 -0.00000000000E+00 -0.00000000000E+00 -0.54782367788E+03  0.54782367789E+03  0.25500000000E-02 0.  1.
    8880023    1    1    2    0    0  0.63693998147E+03  0.44883630243E+02  0.15524466029E+04  0.18032214899E+04  0.65864270000E+03 0. -1.
    8880022    1    1    2    0    0 -0.63693998147E+03 -0.44883630243E+02 -0.16730972174E+03  0.67756274710E+03  0.15294330000E+03 0.  0.
<mgrwt>
<rscale>  0 0.84376350E+03</rscale>
<asrwt>0</asrwt>
<pdfrwt beam="1">  1        2 0.29737854E+00 0.91734251E+03</pdfrwt>
<pdfrwt beam="2">  1       -2 0.84280567E-01 0.91734251E+03</pdfrwt>
<totfact> 0.90385887E+00</totfact>
</mgrwt>
</event>
<event>
 4    2  0.2930016E-007  0.1062513E+04  0.7818608E-02  0.9303988E-01
          2   -1    0    0  501    0  0.00000000000E+00  0.00000000000E+00  0.15803429726E+04  0.15803429726E+04  0.25500000000E-02 0. -1.
         -2   -1    0    0    0  501 -0.00000000000E+00 -0.00000000000E+00 -0.76747426371E+03  0.76747426371E+03  0.25500000000E-02 0.  1.
    8880023    1    1    2    0    0 -0.34383583116E+02 -0.83303164886E+03  0.10225308299E+04  0.14746197690E+04  0.65864270000E+03 0.  0.
    8880022    1    1    2    0    0  0.34383583116E+02  0.83303164886E+03 -0.20966212106E+03  0.87319746725E+03  0.15294330000E+03 0.  0.
<mgrwt>
<rscale>  0 0.10041654E+04</rscale>
<asrwt>0</asrwt>
<pdfrwt beam="1">  1        2 0.24312969E+00 0.10625131E+04</pdfrwt>
<pdfrwt beam="2">  1       -2 0.11807296E+00 0.10625131E+04</pdfrwt>
<totfact> 0.62476604E+00</totfact>
</mgrwt>
</event>
<event>
 4    2  0.2930016E-007  0.8986286E+03  0.7818608E-02  0.9528237E-01
          2   -1    0    0  501    0  0.00000000000E+00  0.00000000000E+00  0.60281364942E+03  0.60281364943E+03  0.25500000000E-02 0. -1.
         -2   -1    0    0    0  501 -0.00000000000E+00 -0.00000000000E+00 -0.17373001829E+04  0.17373001829E+04  0.25500000000E-02 0.  1.
    8880023    1    1    2    0    0 -0.55453357359E+03 -0.25732391016E+03  0.14840880362E+03  0.91080099815E+03  0.65864270000E+03 0.  0.
    8880022    1    1    2    0    0  0.55453357359E+03  0.25732391016E+03 -0.12828953371E+04  0.14293128342E+04  0.15294330000E+03 0.  0.
<mgrwt>
<rscale>  0 0.82233668E+03</rscale>
<asrwt>0</asrwt>
<pdfrwt beam="1">  1        2 0.92740562E-01 0.89862856E+03</pdfrwt>
<pdfrwt beam="2">  1       -2 0.26727695E+00 0.89862856E+03</pdfrwt>
<totfact> 0.25164325E+00</totfact>
</mgrwt>
</event>
<event>
 4    2  0.2930016E-007  0.8942573E+03  0.7818608E-02  0.9535314E-01
          2   -1    0    0  501    0  0.00000000000E+00  0.00000000000E+00  0.59316796663E+03  0.59316796664E+03  0.25500000000E-02 0. -1.
         -2   -1    0    0    0  501 -0.00000000000E+00 -0.00000000000E+00 -0.10155670470E+04  0.10155670470E+04  0.25500000000E-02 0.  1.
    8880023    1    1    2    0    0  0.59355533443E+03 -0.11652464448E+03 -0.82031989622E+02  0.89801190493E+03  0.65864270000E+03 0.  0.
    8880022    1    1    2    0    0 -0.59355533443E+03  0.11652464448E+03 -0.34036709077E+03  0.71072310874E+03  0.15294330000E+03 0. -1.
<mgrwt>
<rscale>  0 0.81729586E+03</rscale>
<asrwt>0</asrwt>
<pdfrwt beam="1">  1        2 0.91256610E-01 0.89425731E+03</pdfrwt>
<pdfrwt beam="2">  1       -2 0.15624108E+00 0.89425731E+03</pdfrwt>
<totfact> 0.13534213E+01</totfact>
</mgrwt>
</event>
<event>
 4    2  0.2930016E-007  0.6860267E+03  0.7818608E-02  0.1006101E+00
         -2   -1    0    0    0  501 -0.00000000000E+00  0.00000000000E+00  0.31141858295E+03  0.31141858296E+03  0.25500000000E-02 0.  1.
          2   -1    0    0  501    0  0.00000000000E+00 -0.00000000000E+00 -0.11294824022E+04  0.11294824022E+04  0.25500000000E-02 0. -1.
    8880023    1    1    2    0    0 -0.16669871173E+03 -0.95046919040E+02 -0.94252558347E+03  0.11657560032E+04  0.65864270000E+03 0. -1.
    8880022    1    1    2    0    0  0.16669871173E+03  0.95046919040E+02  0.12446176422E+03  0.27514498193E+03  0.15294330000E+03 0.  0.
<mgrwt>
<rscale>  0 0.53053979E+03</rscale>
<asrwt>0</asrwt>
<pdfrwt beam="1">  1        2 0.17376652E+00 0.68602666E+03</pdfrwt>
<pdfrwt beam="2">  1       -2 0.47910552E-01 0.68602666E+03</pdfrwt>
<totfact> 0.88025875E+01</totfact>
</mgrwt>
</event>
<event>
 4    2  0.2930016E-007  0.7739005E+03  0.7818608E-02  0.9770365E-01
         -2   -1    0    0    0  501 -0.00000000000E+00  0.00000000000E+00  0.52721282600E+03  0.52721282601E+03  0.25500000000E-02 0.  1.
          2   -1    0    0  501    0  0.00000000000E+00 -0.00000000000E+00 -0.92821197048E+03  0.92821197048E+03  0.25500000000E-02 0. -1.
    8880023    1    1    2    0    0 -0.31990105089E+03 -0.25054954168E+03  0.11353832918E+03  0.78218470558E+03  0.65864270000E+03 0.  1.
    8880022    1    1    2    0    0  0.31990105089E+03  0.25054954168E+03 -0.51453747365E+03  0.67324009091E+03  0.15294330000E+03 0. -1.
<mgrwt>
<rscale>  0 0.66977470E+03</rscale>
<asrwt>0</asrwt>
<pdfrwt beam="1">  1        2 0.14280184E+00 0.77390049E+03</pdfrwt>
<pdfrwt beam="2">  1       -2 0.81109665E-01 0.77390049E+03</pdfrwt>
<totfact> 0.38101067E+01</totfact>
</mgrwt>
</event>
<event>
 4    2  0.2930016E-007  0.8586934E+03  0.7818608E-02  0.9595892E-01
          2   -1    0    0  501    0  0.00000000000E+00  0.00000000000E+00  0.49567772371E+03  0.49567772372E+03  0.25500000000E-02 0. -1.
         -2   -1    0    0    0  501 -0.00000000000E+00 -0.00000000000E+00 -0.13799641709E+04  0.13799641709E+04  0.25500000000E-02 0.  1.
    8880023    1    1    2    0    0 -0.26720556129E+03 -0.48181471466E+03 -0.44713042948E+02  0.85985678675E+03  0.65864270000E+03 0.  0.
    8880022    1    1    2    0    0  0.26720556129E+03  0.48181471466E+03 -0.83957340423E+03  0.10157851079E+04  0.15294330000E+03 0.  0.
<mgrwt>
<rscale>  0 0.77568686E+03</rscale>
<asrwt>0</asrwt>
<pdfrwt beam="1">  1        2 0.76258112E-01 0.85869345E+03</pdfrwt>
<pdfrwt beam="2">  1       -2 0.21230218E+00 0.85869345E+03</pdfrwt>
<totfact> 0.69494017E+00</totfact>
</mgrwt>
</event>
<event>
 4    2  0.2930016E-007  0.8047911E+03  0.7818608E-02  0.9700531E-01
          2   -1    0    0  501    0  0.00000000000E+00  0.00000000000E+00  0.19338103933E+04  0.19338103933E+04  0.25500000000E-02 0. -1.
         -2   -1    0    0    0  501 -0.00000000000E+00 -0.00000000000E+00 -0.28739021902E+03  0.28739021903E+03  0.25500000000E-02 0.  1.
    8880023    1    1    2    0    0 -0.36730317656E+03 -0.28101057920E+03  0.15169011050E+04  0.17171714351E+04  0.65864270000E+03 0.  0.
    8880022    1    1    2    0    0  0.36730317656E+03  0.28101057920E+03  0.12951906931E+03  0.50402917719E+03  0.15294330000E+03 0.  0.
<mgrwt>
<rscale>  0 0.70985197E+03</rscale>
<asrwt>0</asrwt>
<pdfrwt beam="1">  1        2 0.29750928E+00 0.80479114E+03</pdfrwt>
<pdfrwt beam="2">  1       -2 0.44213882E-01 0.80479114E+03</pdfrwt>
<totfact> 0.36111807E+01</totfact>
</mgrwt>
</event>
<event>
 4    2  0.2930016E-007  0.6649872E+03  0.7818608E-02  0.1019544E+00
          2   -1    0    0  501    0  0.00000000000E+00  0.00000000000E+00  0.70636777155E+03  0.70636777155E+03  0.25500000000E-02 0. -1.
         -2   -1    0    0    0  501 -0.00000000000E+00 -0.00000000000E+00 -0.11541404990E+04  0.11541404990E+04  0.25500000000E-02 0.  1.
    8880023    1    1    2    0    0  0.76895526652E+02  0.49847857222E+02  0.54009115531E+03  0.85668336811E+03  0.65864270000E+03 0. -1.
    8880022    1    1    2    0    0 -0.76895526652E+02 -0.49847857222E+02 -0.98786388279E+03  0.10038249025E+04  0.15294330000E+03 0.  0.
<mgrwt>
<rscale>  0 0.47851462E+03</rscale>
<asrwt>0</asrwt>
<pdfrwt beam="1">  1        2 0.10867196E+00 0.66498717E+03</pdfrwt>
<pdfrwt beam="2">  1       -2 0.17756008E+00 0.66498717E+03</pdfrwt>
<totfact> 0.78564548E+00</totfact>
</mgrwt>
</event>
<event>
 4    2  0.2930016E-007  0.9511668E+03  0.7818608E-02  0.9448437E-01
          2   -1    0    0  501    0  0.00000000000E+00  0.00000000000E+00  0.31236928647E+04  0.31236928647E+04  0.25500000000E-02 0. -1.
         -2   -1    0    0    0  501 -0.00000000000E+00 -0.00000000000E+00 -0.69270921341E+03  0.69270921341E+03  0.25500000000E-02 0.  1.
    8880023    1    1    2    0    0  0.31810738134E+03 -0.60804259561E+03  0.28454817343E+04  0.30002474249E+04  0.65864270000E+03 0. -1.
    8880022    1    1    2    0    0 -0.31810738134E+03  0.60804259561E+03 -0.41449808300E+03  0.81615465321E+03  0.15294330000E+03 0.  0.
<mgrwt>
<rscale>  0 0.88194462E+03</rscale>
<asrwt>0</asrwt>
<pdfrwt beam="1">  1        2 0.48056813E+00 0.95116682E+03</pdfrwt>
<pdfrwt beam="2">  1       -2 0.10657065E+00 0.95116682E+03</pdfrwt>
<totfact> 0.10624158E+00</totfact>
</mgrwt>
</event>
<event>
 4    2  0.2930016E-007  0.1120175E+04  0.7818608E-02  0.9238920E-01
         -2   -1    0    0    0  501 -0.00000000000E+00  0.00000000000E+00  0.23817637036E+04  0.23817637036E+04  0.25500000000E-02 0.  1.
          2   -1    0    0  501    0  0.00000000000E+00 -0.00000000000E+00 -0.65112477587E+03  0.65112477587E+03  0.25500000000E-02 0. -1.
    8880023    1    1    2    0    0  0.34654648839E+03 -0.83718965844E+03  0.54628567826E+02  0.11215058981E+04  0.65864270000E+03 0.  0.
    8880022    1    1    2    0    0 -0.34654648839E+03  0.83718965844E+03  0.16760103600E+04  0.19113825814E+04  0.15294330000E+03 0.  0.
<mgrwt>
<rscale>  0 0.10660586E+04</rscale>
<asrwt>0</asrwt>
<pdfrwt beam="1">  1        2 0.10017304E+00 0.11201746E+04</pdfrwt>
<pdfrwt beam="2">  1       -2 0.36642519E+00 0.11201746E+04</pdfrwt>
<totfact> 0.54840038E-01</totfact>
</mgrwt>
</event>
<event>
 4    2  0.2930016E-007  0.6710410E+03  0.7818608E-02  0.1014927E+00
         -2   -1    0    0    0  501 -0.00000000000E+00  0.00000000000E+00  0.19127441932E+03  0.19127441933E+03  0.25500000000E-02 0.  1.
          2   -1    0    0  501    0  0.00000000000E+00 -0.00000000000E+00 -0.18146167754E+04  0.18146167754E+04  0.25500000000E-02 0. -1.
    8880023    1    1    2    0    0  0.28538533566E+02 -0.12518527498E+03 -0.16709009465E+04  0.18006126681E+04  0.65864270000E+03 0. -1.
    8880022    1    1    2    0    0 -0.28538533566E+02  0.12518527498E+03  0.47558590465E+02  0.20527852667E+03  0.15294330000E+03 0.  0.
<mgrwt>
<rscale>  0 0.49562444E+03</rscale>
<asrwt>0</asrwt>
<pdfrwt beam="1">  1        2 0.27917180E+00 0.67104099E+03</pdfrwt>
<pdfrwt beam="2">  1       -2 0.29426835E-01 0.67104099E+03</pdfrwt>
<totfact> 0.92876369E+01</totfact>
</mgrwt>
</event>
<event>
 4    2  0.2930016E-007  0.1029961E+04  0.7818608E-02  0.9343368E-01
          2   -1    0    0  501    0  0.00000000000E+00  0.00000000000E+00  0.10051701135E+04  0.10051701135E+04  0.25500000000E-02 0. -1.
         -2   -1    0    0    0  501 -0.00000000000E+00 -0.00000000000E+00 -0.18436671462E+04  0.18436671462E+04  0.25500000000E-02 0.  1.
    8880023    1    1    2    0    0  0.42455443377E+02 -0.79070058766E+03  0.60559730267E+03  0.11948088480E+04  0.65864270000E+03 0.  0.
    8880022    1    1    2    0    0 -0.42455443377E+02  0.79070058766E+03 -0.14440943354E+04  0.16540284117E+04  0.15294330000E+03 0.  0.
<mgrwt>
<rscale>  0 0.96886518E+03</rscale>
<asrwt>0</asrwt>
<pdfrwt beam="1">  1        2 0.15464156E+00 0.10299612E+04</pdfrwt>
<pdfrwt beam="2">  1       -2 0.28364110E+00 0.10299612E+04</pdfrwt>
<totfact> 0.99749069E-01</totfact>
</mgrwt>
</event>
<event>
 4    2  0.2930016E-007  0.7241061E+03  0.7818608E-02  0.9908930E-01
          2   -1    0    0  501    0  0.00000000000E+00  0.00000000000E+00  0.87974804467E+03  0.87974804467E+03  0.25500000000E-02 0. -1.
         -2   -1    0    0    0  501 -0.00000000000E+00 -0.00000000000E+00 -0.46719465188E+03  0.46719465189E+03  0.25500000000E-02 0.  1.
    8880023    1    1    2    0    0  0.13026830608E+03  0.27120029589E+03  0.61787140935E+03  0.95189007601E+03  0.65864270000E+03 0. -1.
    8880022    1    1    2    0    0 -0.13026830608E+03 -0.27120029589E+03 -0.20531801656E+03  0.39505262055E+03  0.15294330000E+03 0.  0.
<mgrwt>
<rscale>  0 0.59830468E+03</rscale>
<asrwt>0</asrwt>
<pdfrwt beam="1">  1        2 0.13534585E+00 0.72410610E+03</pdfrwt>
<pdfrwt beam="2">  1       -2 0.71876101E-01 0.72410610E+03</pdfrwt>
<totfact> 0.53966307E+01</totfact>
</mgrwt>
</event>
<event>
 4    2  0.2930016E-007  0.8190084E+03  0.7818608E-02  0.9671109E-01
         -2   -1    0    0    0  501 -0.00000000000E+00  0.00000000000E+00  0.43546529437E+03  0.43546529438E+03  0.25500000000E-02 0.  1.
          2   -1    0    0  501    0  0.00000000000E+00 -0.00000000000E+00 -0.17960165513E+04  0.17960165513E+04  0.25500000000E-02 0. -1.
    8880023    1    1    2    0    0  0.47528162923E+03  0.10522342185E+03 -0.14942696987E+04  0.17040002154E+04  0.65864270000E+03 0. -1.
    8880022    1    1    2    0    0 -0.47528162923E+03 -0.10522342185E+03  0.13371844172E+03  0.52748163026E+03  0.15294330000E+03 0.  0.
<mgrwt>
<rscale>  0 0.72763282E+03</rscale>
<asrwt>0</asrwt>
<pdfrwt beam="1">  1        2 0.27631024E+00 0.81900843E+03</pdfrwt>
<pdfrwt beam="2">  1       -2 0.66994662E-01 0.81900843E+03</pdfrwt>
<totfact> 0.18107398E+01</totfact>
</mgrwt>
</event>
<event>
 4    2  0.2930016E-007  0.9000080E+03  0.7818608E-02  0.9526019E-01
          2   -1    0    0  501    0  0.00000000000E+00  0.00000000000E+00  0.27481974005E+04  0.27481974005E+04  0.25500000000E-02 0. -1.
         -2   -1    0    0    0  501 -0.00000000000E+00 -0.00000000000E+00 -0.39686450710E+03  0.39686450711E+03  0.25500000000E-02 0.  1.
    8880023    1    1    2    0    0  0.25879325850E+03 -0.55608473932E+03  0.23462050249E+04  0.25129051739E+04  0.65864270000E+03 0. -1.
    8880022    1    1    2    0    0 -0.25879325850E+03  0.55608473932E+03  0.51278685306E+01  0.63215673373E+03  0.15294330000E+03 0.  0.
<mgrwt>
<rscale>  0 0.82392446E+03</rscale>
<asrwt>0</asrwt>
<pdfrwt beam="1">  1        2 0.42279959E+00 0.90000800E+03</pdfrwt>
<pdfrwt beam="2">  1       -2 0.61056079E-01 0.90000800E+03</pdfrwt>
<totfact> 0.63958169E+00</totfact>
</mgrwt>
</event>
<event>
 4    2  0.2930016E-007  0.9230410E+03  0.7818608E-02  0.9490012E-01
          2   -1    0    0  501    0  0.00000000000E+00  0.00000000000E+00  0.11880022066E+04  0.11880022066E+04  0.25500000000E-02 0. -1.
         -2   -1    0    0    0  501 -0.00000000000E+00 -0.00000000000E+00 -0.89082043599E+03  0.89082043599E+03  0.25500000000E-02 0.  1.
    8880023    1    1    2    0    0 -0.58432902400E+03 -0.27704528979E+03  0.81892527987E+03  0.12339543432E+04  0.65864270000E+03 0. -1.
    8880022    1    1    2    0    0  0.58432902400E+03  0.27704528979E+03 -0.52174350924E+03  0.84486829940E+03  0.15294330000E+03 0.  0.
<mgrwt>
<rscale>  0 0.85024224E+03</rscale>
<asrwt>0</asrwt>
<pdfrwt beam="1">  1        2 0.18276957E+00 0.92304101E+03</pdfrwt>
<pdfrwt beam="2">  1       -2 0.13704930E+00 0.92304101E+03</pdfrwt>
<totfact> 0.73062586E+00</totfact>
</mgrwt>
</event>
<event>
 4    2  0.2930016E-007  0.8060696E+03  0.7818608E-02  0.9697823E-01
         -2   -1    0    0    0  501 -0.00000000000E+00  0.00000000000E+00  0.93727860316E+03  0.93727860316E+03  0.25500000000E-02 0.  1.
          2   -1    0    0  501    0  0.00000000000E+00 -0.00000000000E+00 -0.56378441379E+03  0.56378441380E+03  0.25500000000E-02 0. -1.
    8880023    1    1    2    0    0  0.40969753938E+03  0.21928486260E+03 -0.10964506009E+03  0.81349257539E+03  0.65864270000E+03 0.  0.
    8880022    1    1    2    0    0 -0.40969753938E+03 -0.21928486260E+03  0.48313924946E+03  0.68757044158E+03  0.15294330000E+03 0.  0.
<mgrwt>
<rscale>  0 0.71146565E+03</rscale>
<asrwt>0</asrwt>
<pdfrwt beam="1">  1        2 0.86736064E-01 0.80606956E+03</pdfrwt>
<pdfrwt beam="2">  1       -2 0.14419671E+00 0.80606956E+03</pdfrwt>
<totfact> 0.17928401E+01</totfact>
</mgrwt>
</event>
<event>
 4    2  0.2930016E-007  0.6825866E+03  0.7818608E-02  0.1007897E+00
          2   -1    0    0  501    0  0.00000000000E+00  0.00000000000E+00  0.90624736012E+03  0.90624736013E+03  0.25500000000E-02 0. -1.
         -2   -1    0    0    0  501 -0.00000000000E+00 -0.00000000000E+00 -0.56925755647E+03  0.56925755647E+03  0.25500000000E-02 0.  1.
    8880023    1    1    2    0    0  0.17920457441E+03  0.19001846349E+00  0.74121512184E+03  0.10076330576E+04  0.65864270000E+03 0.  0.
    8880022    1    1    2    0    0 -0.17920457441E+03 -0.19001846349E+00 -0.40422531818E+03  0.46787185903E+03  0.15294330000E+03 0.  0.
<mgrwt>
<rscale>  0 0.52319164E+03</rscale>
<asrwt>0</asrwt>
<pdfrwt beam="1">  1        2 0.13942267E+00 0.68258664E+03</pdfrwt>
<pdfrwt beam="2">  1       -2 0.87578086E-01 0.68258664E+03</pdfrwt>
<totfact> 0.33382361E+01</totfact>
</mgrwt>
</event>
<event>
 4    2  0.2930016E-007  0.9164288E+03  0.7818608E-02  0.9500157E-01
          2   -1    0    0  501    0  0.00000000000E+00  0.00000000000E+00  0.21357740419E+04  0.21357740419E+04  0.25500000000E-02 0. -1.
         -2   -1    0    0    0  501 -0.00000000000E+00 -0.00000000000E+00 -0.50198547214E+03  0.50198547214E+03  0.25500000000E-02 0.  1.
    8880023    1    1    2    0    0  0.60811645302E+03 -0.19033092206E+03  0.17469724001E+04  0.19727529631E+04  0.65864270000E+03 0.  0.
    8880022    1    1    2    0    0 -0.60811645302E+03  0.19033092206E+03 -0.11318383037E+03  0.66500655094E+03  0.15294330000E+03 0.  0.
<mgrwt>
<rscale>  0 0.84272274E+03</rscale>
<asrwt>0</asrwt>
<pdfrwt beam="1">  1        2 0.32858062E+00 0.91642877E+03</pdfrwt>
<pdfrwt beam="2">  1       -2 0.77228534E-01 0.91642877E+03</pdfrwt>
<totfact> 0.85171500E+00</totfact>
</mgrwt>
</event>
<event>
 4    2  0.2930016E-007  0.1284721E+04  0.7818608E-02  0.9078868E-01
          2   -1    0    0  501    0  0.00000000000E+00  0.00000000000E+00  0.25287693014E+04  0.25287693014E+04  0.25500000000E-02 0. -1.
         -2   -1    0    0    0  501 -0.00000000000E+00 -0.00000000000E+00 -0.80645516697E+03  0.80645516697E+03  0.25500000000E-02 0.  1.
    8880023    1    1    2    0    0  0.10975711208E+04  0.10970074426E+03  0.18084201197E+04  0.22183079485E+04  0.65864270000E+03 0.  0.
    8880022    1    1    2    0    0 -0.10975711208E+04 -0.10970074426E+03 -0.86105985338E+02  0.11169165199E+04  0.15294330000E+03 0.  0.
<mgrwt>
<rscale>  0 0.12396186E+04</rscale>
<asrwt>0</asrwt>
<pdfrwt beam="1">  1        2 0.38904143E+00 0.12847205E+04</pdfrwt>
<pdfrwt beam="2">  1       -2 0.12407003E+00 0.12847205E+04</pdfrwt>
<totfact> 0.15886838E+00</totfact>
</mgrwt>
</event>
<event>
 4    2  0.2930016E-007  0.8426235E+03  0.7818608E-02  0.9625253E-01
          2   -1    0    0  501    0  0.00000000000E+00  0.00000000000E+00  0.42339220708E+04  0.42339220708E+04  0.25500000000E-02 0. -1.
         -2   -1    0    0    0  501 -0.00000000000E+00 -0.00000000000E+00 -0.15323261837E+03  0.15323261839E+03  0.25500000000E-02 0.  1.
    8880023    1    1    2    0    0 -0.15457623233E+03 -0.50230498252E+03  0.12730114666E+04  0.15266212718E+04  0.65864270000E+03 0.  0.
    8880022    1    1    2    0    0  0.15457623233E+03  0.50230498252E+03  0.28076779858E+04  0.28605334174E+04  0.15294330000E+03 0.  0.
<mgrwt>
<rscale>  0 0.75647072E+03</rscale>
<asrwt>0</asrwt>
<pdfrwt beam="1">  1        2 0.65137260E+00 0.84262347E+03</pdfrwt>
<pdfrwt beam="2">  1       -2 0.23574250E-01 0.84262347E+03</pdfrwt>
<totfact> 0.37898021E+00</totfact>
</mgrwt>
</event>
<event>
 4    2  0.2930016E-007  0.8070957E+03  0.7818608E-02  0.9695658E-01
         -2   -1    0    0    0  501 -0.00000000000E+00  0.00000000000E+00  0.20033867194E+04  0.20033867194E+04  0.25500000000E-02 0.  1.
          2   -1    0    0  501    0  0.00000000000E+00 -0.00000000000E+00 -0.70818191118E+03  0.70818191118E+03  0.25500000000E-02 0. -1.
    8880023    1    1    2    0    0  0.44565843614E+03 -0.13777482020E+03 -0.43236155953E+03  0.91560912359E+03  0.65864270000E+03 0. -1.
    8880022    1    1    2    0    0 -0.44565843614E+03  0.13777482020E+03  0.17275663678E+04  0.17959595070E+04  0.15294330000E+03 0.  0.
<mgrwt>
<rscale>  0 0.71275873E+03</rscale>
<asrwt>0</asrwt>
<pdfrwt beam="1">  1        2 0.10895106E+00 0.80709575E+03</pdfrwt>
<pdfrwt beam="2">  1       -2 0.30821334E+00 0.80709575E+03</pdfrwt>
<totfact> 0.11828613E+00</totfact>
</mgrwt>
</event>
<event>
 4    2  0.2930016E-007  0.6816241E+03  0.7818608E-02  0.1008420E+00
         -2   -1    0    0    0  501 -0.00000000000E+00  0.00000000000E+00  0.18730191407E+03  0.18730191409E+03  0.25500000000E-02 0.  1.
          2   -1    0    0  501    0  0.00000000000E+00 -0.00000000000E+00 -0.27509660527E+04  0.27509660527E+04  0.25500000000E-02 0. -1.
    8880023    1    1    2    0    0  0.65817844432E+02 -0.16269350594E+03 -0.26128835748E+04  0.27003281184E+04  0.65864270000E+03 0. -1.
    8880022    1    1    2    0    0 -0.65817844432E+02  0.16269350594E+03  0.49219436165E+02  0.23793984835E+03  0.15294330000E+03 0.  0.
<mgrwt>
<rscale>  0 0.52107640E+03</rscale>
<asrwt>0</asrwt>
<pdfrwt beam="1">  1        2 0.42322552E+00 0.68162407E+03</pdfrwt>
<pdfrwt beam="2">  1       -2 0.28815681E-01 0.68162407E+03</pdfrwt>
<totfact> 0.29036758E+01</totfact>
</mgrwt>
</event>
<event>
 4    2  0.2930016E-007  0.7530013E+03  0.7818608E-02  0.9823575E-01
          2   -1    0    0  501    0  0.00000000000E+00  0.00000000000E+00  0.44285952704E+04  0.44285952704E+04  0.25500000000E-02 0. -1.
         -2   -1    0    0    0  501 -0.00000000000E+00 -0.00000000000E+00 -0.39967383941E+03  0.39967383942E+03  0.25500000000E-02 0.  1.
    8880023    1    1    2    0    0  0.31206699816E+03  0.18924836986E+03  0.42890895620E+04  0.43546871568E+04  0.65864270000E+03 0. -1.
    8880022    1    1    2    0    0 -0.31206699816E+03 -0.18924836986E+03 -0.26016813097E+03  0.47358195302E+03  0.15294330000E+03 0.  0.
<mgrwt>
<rscale>  0 0.64112562E+03</rscale>
<asrwt>0</asrwt>
<pdfrwt beam="1">  1        2 0.68132235E+00 0.75300130E+03</pdfrwt>
<pdfrwt beam="2">  1       -2 0.61488283E-01 0.75300130E+03</pdfrwt>
<totfact> 0.40345333E-01</totfact>
</mgrwt>
</event>
<event>
 4    2  0.2930016E-007  0.1283627E+04  0.7818608E-02  0.9079830E-01
          2   -1    0    0  501    0  0.00000000000E+00  0.00000000000E+00  0.19577135620E+04  0.19577135620E+04  0.25500000000E-02 0. -1.
         -2   -1    0    0    0  501 -0.00000000000E+00 -0.00000000000E+00 -0.92553644504E+03  0.92553644504E+03  0.25500000000E-02 0.  1.
    8880023    1    1    2    0    0 -0.75181850869E+03 -0.80539233793E+03  0.12013755737E+04  0.17581243879E+04  0.65864270000E+03 0.  0.
    8880022    1    1    2    0    0  0.75181850869E+03  0.80539233793E+03 -0.16919845677E+03  0.11251256191E+04  0.15294330000E+03 0.  0.
<mgrwt>
<rscale>  0 0.12384760E+04</rscale>
<asrwt>0</asrwt>
<pdfrwt beam="1">  1        2 0.30118670E+00 0.12836269E+04</pdfrwt>
<pdfrwt beam="2">  1       -2 0.14239022E+00 0.12836269E+04</pdfrwt>
<totfact> 0.23393604E+00</totfact>
</mgrwt>
</event>
<event>
 4    2  0.2930016E-007  0.7372671E+03  0.7818608E-02  0.9867980E-01
          2   -1    0    0  501    0  0.00000000000E+00  0.00000000000E+00  0.36714715077E+03  0.36714715078E+03  0.25500000000E-02 0. -1.
         -2   -1    0    0    0  501 -0.00000000000E+00 -0.00000000000E+00 -0.84575141092E+03  0.84575141093E+03  0.25500000000E-02 0.  1.
    8880023    1    1    2    0    0 -0.31664311139E+03  0.97415212916E+02 -0.23361494083E+03  0.77339429177E+03  0.65864270000E+03 0.  0.
    8880022    1    1    2    0    0  0.31664311139E+03 -0.97415212916E+02 -0.24498931932E+03  0.43950426994E+03  0.15294330000E+03 0.  0.
<mgrwt>
<rscale>  0 0.61838499E+03</rscale>
<asrwt>0</asrwt>
<pdfrwt beam="1">  1        2 0.56484177E-01 0.73726711E+03</pdfrwt>
<pdfrwt beam="2">  1       -2 0.13011560E+00 0.73726711E+03</pdfrwt>
<totfact> 0.38416859E+01</totfact>
</mgrwt>
</event>
<event>
 4    2  0.2930016E-007  0.7245264E+03  0.7818608E-02  0.9907557E-01
         -2   -1    0    0    0  501 -0.00000000000E+00  0.00000000000E+00  0.54776094589E+03  0.54776094590E+03  0.25500000000E-02 0.  1.
          2   -1    0    0  501    0  0.00000000000E+00 -0.00000000000E+00 -0.73814206819E+03  0.73814206819E+03  0.25500000000E-02 0. -1.
    8880023    1    1    2    0    0  0.18710431807E+03  0.23689726249E+03 -0.45566994779E+03  0.85590516204E+03  0.65864270000E+03 0. -1.
    8880022    1    1    2    0    0 -0.18710431807E+03 -0.23689726249E+03  0.26528882550E+03  0.42999785205E+03  0.15294330000E+03 0.  0.
<mgrwt>
<rscale>  0 0.59896416E+03</rscale>
<asrwt>0</asrwt>
<pdfrwt beam="1">  1        2 0.11356032E+00 0.72452643E+03</pdfrwt>
<pdfrwt beam="2">  1       -2 0.84270914E-01 0.72452643E+03</pdfrwt>
<totfact> 0.47759272E+01</totfact>
</mgrwt>
</event>
<event>
 4    2  0.2930016E-007  0.6790408E+03  0.7818608E-02  0.1009871E+00
          2   -1    0    0  501    0  0.00000000000E+00  0.00000000000E+00  0.89785341470E+03  0.89785341471E+03  0.25500000000E-02 0. -1.
         -2   -1    0    0    0  501 -0.00000000000E+00 -0.00000000000E+00 -0.30549349378E+03  0.30549349379E+03  0.25500000000E-02 0.  1.
    8880023    1    1    2    0    0  0.40809239831E+02  0.16006516128E+03  0.68073165078E+03  0.96150508919E+03  0.65864270000E+03 0. -1.
    8880022    1    1    2    0    0 -0.40809239831E+02 -0.16006516128E+03 -0.88371729852E+02  0.24184181930E+03  0.15294330000E+03 0.  0.
<mgrwt>
<rscale>  0 0.51525741E+03</rscale>
<asrwt>0</asrwt>
<pdfrwt beam="1">  1        2 0.13813129E+00 0.67904084E+03</pdfrwt>
<pdfrwt beam="2">  1       -2 0.46999000E-01 0.67904084E+03</pdfrwt>
<totfact> 0.12837048E+02</totfact>
</mgrwt>
</event>
<event>
 4    2  0.2930016E-007  0.6823131E+03  0.7818608E-02  0.1008044E+00
         -2   -1    0    0    0  501 -0.00000000000E+00  0.00000000000E+00  0.55989267195E+03  0.55989267196E+03  0.25500000000E-02 0.  1.
          2   -1    0    0  501    0  0.00000000000E+00 -0.00000000000E+00 -0.69626285028E+03  0.69626285029E+03  0.25500000000E-02 0. -1.
    8880023    1    1    2    0    0  0.42547343618E+01 -0.17810917784E+03 -0.48407963279E+03  0.83659086724E+03  0.65864270000E+03 0. -1.
    8880022    1    1    2    0    0 -0.42547343618E+01  0.17810917784E+03  0.34770945447E+03  0.41956465501E+03  0.15294330000E+03 0.  0.
<mgrwt>
<rscale>  0 0.52259336E+03</rscale>
<asrwt>0</asrwt>
<pdfrwt beam="1">  1        2 0.10711736E+00 0.68231312E+03</pdfrwt>
<pdfrwt beam="2">  1       -2 0.86137334E-01 0.68231312E+03</pdfrwt>
<totfact> 0.49103982E+01</totfact>
</mgrwt>
</event>
<event>
 4    2  0.2930016E-007  0.1035622E+04  0.7818608E-02  0.9336369E-01
         -2   -1    0    0    0  501 -0.00000000000E+00  0.00000000000E+00  0.56459017510E+03  0.56459017510E+03  0.25500000000E-02 0.  1.
          2   -1    0    0  501    0  0.00000000000E+00 -0.00000000000E+00 -0.21409473960E+04  0.21409473960E+04  0.25500000000E-02 0. -1.
    8880023    1    1    2    0    0  0.79734221998E+03 -0.54288886112E+02 -0.15831809448E+04  0.18918176469E+04  0.65864270000E+03 0. -1.
    8880022    1    1    2    0    0 -0.79734221998E+03  0.54288886112E+02  0.68237238194E+01  0.81371992426E+03  0.15294330000E+03 0.  0.
<mgrwt>
<rscale>  0 0.97502499E+03</rscale>
<asrwt>0</asrwt>
<pdfrwt beam="1">  1        2 0.32937652E+00 0.10356216E+04</pdfrwt>
<pdfrwt beam="2">  1       -2 0.86860028E-01 0.10356216E+04</pdfrwt>
<totfact> 0.63871891E+00</totfact>
</mgrwt>
</event>
<event>
 4    2  0.2930016E-007  0.1196412E+04  0.7818608E-02  0.9160618E-01
          2   -1    0    0  501    0  0.00000000000E+00  0.00000000000E+00  0.21077008478E+04  0.21077008478E+04  0.25500000000E-02 0. -1.
         -2   -1    0    0    0  501 -0.00000000000E+00 -0.00000000000E+00 -0.85046337988E+03  0.85046337989E+03  0.25500000000E-02 0.  1.
    8880023    1    1    2    0    0 -0.15880994994E+03 -0.98608902877E+03 -0.17106894061E+03  0.12085805565E+04  0.65864270000E+03 0.  0.
    8880022    1    1    2    0    0  0.15880994994E+03  0.98608902877E+03  0.14283064086E+04  0.17495836712E+04  0.15294330000E+03 0.  0.
<mgrwt>
<rscale>  0 0.11469329E+04</rscale>
<asrwt>0</asrwt>
<pdfrwt beam="1">  1        2 0.32426166E+00 0.11964123E+04</pdfrwt>
<pdfrwt beam="2">  1       -2 0.13084052E+00 0.11964123E+04</pdfrwt>
<totfact> 0.24265822E+00</totfact>
</mgrwt>
</event>
<event>
 4    2  0.2930016E-007  0.8979848E+03  0.7818608E-02  0.9529274E-01
          2   -1    0    0  501    0  0.00000000000E+00  0.00000000000E+00  0.12372971789E+04  0.12372971789E+04  0.25500000000E-02 0. -1.
         -2   -1    0    0    0  501 -0.00000000000E+00 -0.00000000000E+00 -0.61682531301E+03  0.61682531301E+03  0.25500000000E-02 0.  1.
    8880023    1    1    2    0    0 -0.73955708760E+02  0.60588533503E+03  0.79691169575E+03  0.12006019087E+04  0.65864270000E+03 0.  0.
    8880022    1    1    2    0    0  0.73955708760E+02 -0.60588533503E+03 -0.17643982989E+03  0.65352058319E+03  0.15294330000E+03 0.  0.
<mgrwt>
<rscale>  0 0.82159521E+03</rscale>
<asrwt>0</asrwt>
<pdfrwt beam="1">  1        2 0.19035341E+00 0.89798480E+03</pdfrwt>
<pdfrwt beam="2">  1       -2 0.94896203E-01 0.89798480E+03</pdfrwt>
<totfact> 0.16882229E+01</totfact>
</mgrwt>
</event>
<event>
 4    2  0.2930016E-007  0.6750401E+03  0.7818608E-02  0.1012281E+00
          2   -1    0    0  501    0  0.00000000000E+00  0.00000000000E+00  0.99893056390E+03  0.99893056391E+03  0.25500000000E-02 0. -1.
         -2   -1    0    0    0  501 -0.00000000000E+00 -0.00000000000E+00 -0.22271247515E+03  0.22271247516E+03  0.25500000000E-02 0.  1.
    8880023    1    1    2    0    0  0.13153772517E+03  0.67577626551E+02  0.74713186219E+03  0.10069186335E+04  0.65864270000E+03 0. -1.
    8880022    1    1    2    0    0 -0.13153772517E+03 -0.67577626551E+02  0.29086226568E+02  0.21472440556E+03  0.15294330000E+03 0.  0.
<mgrwt>
<rscale>  0 0.50578060E+03</rscale>
<asrwt>0</asrwt>
<pdfrwt beam="1">  1        2 0.15368163E+00 0.67504008E+03</pdfrwt>
<pdfrwt beam="2">  1       -2 0.34263457E-01 0.67504008E+03</pdfrwt>
<totfact> 0.20423164E+02</totfact>
</mgrwt>
</event>
<event>
 4    2  0.2930016E-007  0.8990267E+03  0.7818608E-02  0.9527596E-01
          2   -1    0    0  501    0  0.00000000000E+00  0.00000000000E+00  0.30351574510E+04  0.30351574510E+04  0.25500000000E-02 0. -1.
         -2   -1    0    0    0  501 -0.00000000000E+00 -0.00000000000E+00 -0.19848904257E+03  0.19848904259E+03  0.25500000000E-02 0.  1.
    8880023    1    1    2    0    0 -0.66856252390E+02 -0.60825087062E+03  0.13892518667E+04  0.16547718379E+04  0.65864270000E+03 0.  1.
    8880022    1    1    2    0    0  0.66856252390E+02  0.60825087062E+03  0.14474165417E+04  0.15788746557E+04  0.15294330000E+03 0.  0.
<mgrwt>
<rscale>  0 0.82279515E+03</rscale>
<asrwt>0</asrwt>
<pdfrwt beam="1">  1        2 0.46694733E+00 0.89902674E+03</pdfrwt>
<pdfrwt beam="2">  1       -2 0.30536774E-01 0.89902674E+03</pdfrwt>
<totfact> 0.17019022E+01</totfact>
</mgrwt>
</event>
<event>
 4    2  0.2930016E-007  0.7981169E+03  0.7818608E-02  0.9714883E-01
          2   -1    0    0  501    0  0.00000000000E+00  0.00000000000E+00  0.18405822809E+04  0.18405822809E+04  0.25500000000E-02 0. -1.
         -2   -1    0    0    0  501 -0.00000000000E+00 -0.00000000000E+00 -0.36236113806E+03  0.36236113807E+03  0.25500000000E-02 0.  1.
    8880023    1    1    2    0    0 -0.20489021158E+03  0.40149764868E+03  0.15284725179E+04  0.17243024111E+04  0.65864270000E+03 0. -1.
    8880022    1    1    2    0    0  0.20489021158E+03 -0.40149764868E+03 -0.50251375060E+02  0.47864100787E+03  0.15294330000E+03 0.  0.
<mgrwt>
<rscale>  0 0.70137561E+03</rscale>
<asrwt>0</asrwt>
<pdfrwt beam="1">  1        2 0.28316651E+00 0.79811689E+03</pdfrwt>
<pdfrwt beam="2">  1       -2 0.55747866E-01 0.79811689E+03</pdfrwt>
<totfact> 0.25353021E+01</totfact>
</mgrwt>
</event>
<event>
 4    2  0.2930016E-007  0.8551683E+03  0.7818608E-02  0.9602217E-01
          2   -1    0    0  501    0  0.00000000000E+00  0.00000000000E+00  0.88748838141E+03  0.88748838142E+03  0.25500000000E-02 0. -1.
         -2   -1    0    0    0  501 -0.00000000000E+00 -0.00000000000E+00 -0.10440605675E+04  0.10440605675E+04  0.25500000000E-02 0.  1.
    8880023    1    1    2    0    0 -0.33097119604E+03 -0.43354435508E+03  0.55691914978E+03  0.10205252501E+04  0.65864270000E+03 0. -1.
    8880022    1    1    2    0    0  0.33097119604E+03  0.43354435508E+03 -0.71349133586E+03  0.91102369881E+03  0.15294330000E+03 0.  0.
<mgrwt>
<rscale>  0 0.77149648E+03</rscale>
<asrwt>0</asrwt>
<pdfrwt beam="1">  1        2 0.13653667E+00 0.85516831E+03</pdfrwt>
<pdfrwt beam="2">  1       -2 0.16062470E+00 0.85516831E+03</pdfrwt>
<totfact> 0.74951176E+00</totfact>
</mgrwt>
</event>
<event>
 4    2  0.2930016E-007  0.9607456E+03  0.7818608E-02  0.9434819E-01
          2   -1    0    0  501    0  0.00000000000E+00  0.00000000000E+00  0.75474225908E+03  0.75474225908E+03  0.25500000000E-02 0. -1.
         -2   -1    0    0    0  501 -0.00000000000E+00 -0.00000000000E+00 -0.12663402619E+04  0.12663402619E+04  0.25500000000E-02 0.  1.
    8880023    1    1    2    0    0  0.20404725950E+03  0.66901908441E+03  0.23248849445E+03  0.98847505064E+03  0.65864270000E+03 0. -1.
    8880022    1    1    2    0    0 -0.20404725950E+03 -0.66901908441E+03 -0.74408649730E+03  0.10326074704E+04  0.15294330000E+03 0.  0.
<mgrwt>
<rscale>  0 0.89264760E+03</rscale>
<asrwt>0</asrwt>
<pdfrwt beam="1">  1        2 0.11611419E+00 0.96074556E+03</pdfrwt>
<pdfrwt beam="2">  1       -2 0.19482158E+00 0.96074556E+03</pdfrwt>
<totfact> 0.53347506E+00</totfact>
</mgrwt>
</event>
<event>
 4    2  0.2930016E-007  0.7197276E+03  0.7818608E-02  0.9923509E-01
          2   -1    0    0  501    0  0.00000000000E+00  0.00000000000E+00  0.11667007596E+04  0.11667007596E+04  0.25500000000E-02 0. -1.
         -2   -1    0    0    0  501 -0.00000000000E+00 -0.00000000000E+00 -0.45125741062E+03  0.45125741062E+03  0.25500000000E-02 0.  1.
    8880023    1    1    2    0    0  0.29008095548E+03 -0.71156866158E+01  0.96639674069E+03  0.12049607713E+04  0.65864270000E+03 0. -1.
    8880022    1    1    2    0    0 -0.29008095548E+03  0.71156866158E+01 -0.25095339167E+03  0.41299739894E+03  0.15294330000E+03 0.  0.
<mgrwt>
<rscale>  0 0.59135357E+03</rscale>
<asrwt>0</asrwt>
<pdfrwt beam="1">  1        2 0.17949242E+00 0.71972759E+03</pdfrwt>
<pdfrwt beam="2">  1       -2 0.69424217E-01 0.71972759E+03</pdfrwt>
<totfact> 0.38328949E+01</totfact>
</mgrwt>
</event>
<event>
 4    2  0.2930016E-007  0.7102810E+03  0.7818608E-02  0.9956959E-01
         -2   -1    0    0    0  501 -0.00000000000E+00  0.00000000000E+00  0.67964725503E+03  0.67964725504E+03  0.25500000000E-02 0.  1.
          2   -1    0    0  501    0  0.00000000000E+00 -0.00000000000E+00 -0.27943508787E+04  0.27943508787E+04  0.25500000000E-02 0. -1.
    8880023    1    1    2    0    0 -0.62263192633E+02  0.25848051736E+03 -0.27115042682E+04  0.28029902757E+04  0.65864270000E+03 0. -1.
    8880022    1    1    2    0    0  0.62263192633E+02 -0.25848051736E+03  0.59680064461E+03  0.67100785795E+03  0.15294330000E+03 0.  0.
<mgrwt>
<rscale>  0 0.57578470E+03</rscale>
<asrwt>0</asrwt>
<pdfrwt beam="1">  1        2 0.42990013E+00 0.71028099E+03</pdfrwt>
<pdfrwt beam="2">  1       -2 0.10456112E+00 0.71028099E+03</pdfrwt>
<totfact> 0.18505561E+00</totfact>
</mgrwt>
</event>
<event>
 4    2  0.2930016E-007  0.7766585E+03  0.7818608E-02  0.9763746E-01
          2   -1    0    0  501    0  0.00000000000E+00  0.00000000000E+00  0.17310223811E+04  0.17310223811E+04  0.25500000000E-02 0. -1.
         -2   -1    0    0    0  501 -0.00000000000E+00 -0.00000000000E+00 -0.42827142137E+03  0.42827142138E+03  0.25500000000E-02 0.  1.
    8880023    1    1    2    0    0  0.35442414387E+03  0.20921692594E+03  0.14913265620E+04  0.16814438191E+04  0.65864270000E+03 0.  0.
    8880022    1    1    2    0    0 -0.35442414387E+03 -0.20921692594E+03 -0.18857560228E+03  0.47784998341E+03  0.15294330000E+03 0.  0.
<mgrwt>
<rscale>  0 0.67344987E+03</rscale>
<asrwt>0</asrwt>
<pdfrwt beam="1">  1        2 0.26631113E+00 0.77665848E+03</pdfrwt>
<pdfrwt beam="2">  1       -2 0.65887911E-01 0.77665848E+03</pdfrwt>
<totfact> 0.20479120E+01</totfact>
</mgrwt>
</event>
<event>
 4    2  0.2930016E-007  0.6662413E+03  0.7818608E-02  0.1018514E+00
         -2   -1    0    0    0  501 -0.00000000000E+00  0.00000000000E+00  0.59388632743E+03  0.59388632743E+03  0.25500000000E-02 0.  1.
          2   -1    0    0  501    0  0.00000000000E+00 -0.00000000000E+00 -0.72652290000E+03  0.72652290000E+03  0.25500000000E-02 0. -1.
    8880023    1    1    2    0    0 -0.76486657826E+02  0.64939328932E+02 -0.55050886952E+03  0.86425548708E+03  0.65864270000E+03 0. -1.
    8880022    1    1    2    0    0  0.76486657826E+02 -0.64939328932E+02  0.41787229695E+03  0.45615374035E+03  0.15294330000E+03 0.  0.
<mgrwt>
<rscale>  0 0.48226725E+03</rscale>
<asrwt>0</asrwt>
<pdfrwt beam="1">  1        2 0.11177275E+00 0.66624135E+03</pdfrwt>
<pdfrwt beam="2">  1       -2 0.91367127E-01 0.66624135E+03</pdfrwt>
<totfact> 0.40697540E+01</totfact>
</mgrwt>
</event>
<event>
 4    2  0.2930016E-007  0.9341282E+03  0.7818608E-02  0.9473328E-01
          2   -1    0    0  501    0  0.00000000000E+00  0.00000000000E+00  0.26072463685E+04  0.26072463685E+04  0.25500000000E-02 0. -1.
         -2   -1    0    0    0  501 -0.00000000000E+00 -0.00000000000E+00 -0.60470979707E+03  0.60470979707E+03  0.25500000000E-02 0.  1.
    8880023    1    1    2    0    0  0.35227387282E+03  0.56097098161E+03  0.22904916157E+04  0.24736506163E+04  0.65864270000E+03 0.  0.
    8880022    1    1    2    0    0 -0.35227387282E+03 -0.56097098161E+03 -0.28795504420E+03  0.73830554934E+03  0.15294330000E+03 0.  0.
<mgrwt>
<rscale>  0 0.86279160E+03</rscale>
<asrwt>0</asrwt>
<pdfrwt beam="1">  1        2 0.40111482E+00 0.93412822E+03</pdfrwt>
<pdfrwt beam="2">  1       -2 0.93032277E-01 0.93412822E+03</pdfrwt>
<totfact> 0.30115115E+00</totfact>
</mgrwt>
</event>
<event>
 4    2  0.2930016E-007  0.6921353E+03  0.7818608E-02  0.1003154E+00
         -2   -1    0    0    0  501 -0.00000000000E+00  0.00000000000E+00  0.48745967034E+03  0.48745967035E+03  0.25500000000E-02 0.  1.
          2   -1    0    0  501    0  0.00000000000E+00 -0.00000000000E+00 -0.59137201475E+03  0.59137201476E+03  0.25500000000E-02 0. -1.
    8880023    1    1    2    0    0 -0.34159550286E+02 -0.20993842868E+03 -0.29722090455E+03  0.75325393532E+03  0.65864270000E+03 0. -1.
    8880022    1    1    2    0    0  0.34159550286E+02  0.20993842868E+03  0.19330856015E+03  0.32557774978E+03  0.15294330000E+03 0. -1.
<mgrwt>
<rscale>  0 0.54288719E+03</rscale>
<asrwt>0</asrwt>
<pdfrwt beam="1">  1        2 0.90980310E-01 0.69213526E+03</pdfrwt>
<pdfrwt beam="2">  1       -2 0.74993795E-01 0.69213526E+03</pdfrwt>
<totfact> 0.81855026E+01</totfact>
</mgrwt>
</event>
<event>
 4    2  0.2930016E-007  0.8276708E+03  0.7818608E-02  0.9653881E-01
         -2   -1    0    0    0  501 -0.00000000000E+00  0.00000000000E+00  0.21094465654E+03  0.21094465656E+03  0.25500000000E-02 0.  1.
          2   -1    0    0  501    0  0.00000000000E+00 -0.00000000000E+00 -0.36998807287E+04  0.36998807287E+04  0.25500000000E-02 0. -1.
    8880023    1    1    2    0    0 -0.40494892759E+03  0.29537281451E+03 -0.73325402995E+03  0.11057578452E+04  0.65864270000E+03 0.  1.
    8880022    1    1    2    0    0  0.40494892759E+03 -0.29537281451E+03 -0.27556820422E+04  0.28050675401E+04  0.15294330000E+03 0.  0.
<mgrwt>
<rscale>  0 0.73830332E+03</rscale>
<asrwt>0</asrwt>
<pdfrwt beam="1">  1        2 0.56921237E+00 0.82767079E+03</pdfrwt>
<pdfrwt beam="2">  1       -2 0.32453027E-01 0.82767079E+03</pdfrwt>
<totfact> 0.55465948E+00</totfact>
</mgrwt>
</event>
<event>
 4    2  0.2930016E-007  0.6961037E+03  0.7818608E-02  0.1001377E+00
         -2   -1    0    0    0  501 -0.00000000000E+00  0.00000000000E+00  0.12635211624E+03  0.12635211626E+03  0.25500000000E-02 0.  1.
          2   -1    0    0  501    0  0.00000000000E+00 -0.00000000000E+00 -0.33420101403E+04  0.33420101403E+04  0.25500000000E-02 0. -1.
    8880023    1    1    2    0    0  0.18917920191E+03 -0.12231653831E+03 -0.30918576325E+04  0.31692497427E+04  0.65864270000E+03 0. -1.
    8880022    1    1    2    0    0 -0.18917920191E+03  0.12231653831E+03 -0.12380039163E+03  0.29911251388E+03  0.15294330000E+03 0.  0.
<mgrwt>
<rscale>  0 0.55050758E+03</rscale>
<asrwt>0</asrwt>
<pdfrwt beam="1">  1        2 0.51415534E+00 0.69610366E+03</pdfrwt>
<pdfrwt beam="2">  1       -2 0.19438790E-01 0.69610366E+03</pdfrwt>
<totfact> 0.25287913E+01</totfact>
</mgrwt>
</event>
<event>
 4    2  0.2930016E-007  0.7905037E+03  0.7818608E-02  0.9731718E-01
         -2   -1    0    0    0  501 -0.00000000000E+00  0.00000000000E+00  0.34893891297E+03  0.34893891298E+03  0.25500000000E-02 0.  1.
          2   -1    0    0  501    0  0.00000000000E+00 -0.00000000000E+00 -0.14006681607E+04  0.14006681607E+04  0.25500000000E-02 0. -1.
    8880023    1    1    2    0    0 -0.41399234637E+03  0.14034325200E+03 -0.10129085006E+04  0.12848656459E+04  0.65864270000E+03 0. -1.
    8880022    1    1    2    0    0  0.41399234637E+03 -0.14034325200E+03 -0.38820747127E+02  0.46474142774E+03  0.15294330000E+03 0.  0.
<mgrwt>
<rscale>  0 0.69159311E+03</rscale>
<asrwt>0</asrwt>
<pdfrwt beam="1">  1        2 0.21548741E+00 0.79050370E+03</pdfrwt>
<pdfrwt beam="2">  1       -2 0.53682910E-01 0.79050370E+03</pdfrwt>
<totfact> 0.48042204E+01</totfact>
</mgrwt>
</event>
<event>
 4    2  0.2930016E-007  0.8835903E+03  0.7818608E-02  0.9552905E-01
         -2   -1    0    0    0  501 -0.00000000000E+00  0.00000000000E+00  0.39612745059E+03  0.39612745060E+03  0.25500000000E-02 0.  1.
          2   -1    0    0  501    0  0.00000000000E+00 -0.00000000000E+00 -0.22046145412E+04  0.22046145412E+04  0.25500000000E-02 0. -1.
    8880023    1    1    2    0    0 -0.79583076825E+02  0.58359937316E+03 -0.17850385245E+04  0.19917566203E+04  0.65864270000E+03 0. -1.
    8880022    1    1    2    0    0  0.79583076825E+02 -0.58359937316E+03 -0.23448566184E+02  0.60898537153E+03  0.15294330000E+03 0.  0.
<mgrwt>
<rscale>  0 0.80493237E+03</rscale>
<asrwt>0</asrwt>
<pdfrwt beam="1">  1        2 0.33917146E+00 0.88359035E+03</pdfrwt>
<pdfrwt beam="2">  1       -2 0.60942686E-01 0.88359035E+03</pdfrwt>
<totfact> 0.13128000E+01</totfact>
</mgrwt>
</event>
<event>
 4    2  0.2930016E-007  0.6631531E+03  0.7818608E-02  0.1021136E+00
         -2   -1    0    0    0  501 -0.00000000000E+00  0.00000000000E+00  0.18052276151E+03  0.18052276153E+03  0.25500000000E-02 0.  1.
          2   -1    0    0  501    0  0.00000000000E+00 -0.00000000000E+00 -0.25361784839E+04  0.25361784839E+04  0.25500000000E-02 0. -1.
    8880023    1    1    2    0    0  0.73183879707E+02  0.24615860055E+02 -0.24380212885E+04  0.25266024282E+04  0.65864270000E+03 0. -1.
    8880022    1    1    2    0    0 -0.73183879707E+02 -0.24615860055E+02  0.82365566099E+02  0.19009881722E+03  0.15294330000E+03 0.  0.
<mgrwt>
<rscale>  0 0.47278946E+03</rscale>
<asrwt>0</asrwt>
<pdfrwt beam="1">  1        2 0.39018128E+00 0.66315309E+03</pdfrwt>
<pdfrwt beam="2">  1       -2 0.27772734E-01 0.66315309E+03</pdfrwt>
<totfact> 0.41429392E+01</totfact>
</mgrwt>
</event>
<event>
 4    2  0.2930016E-007  0.7541326E+03  0.7818608E-02  0.9820541E-01
          2   -1    0    0  501    0  0.00000000000E+00  0.00000000000E+00  0.17425105752E+04  0.17425105752E+04  0.25500000000E-02 0. -1.
         -2   -1    0    0    0  501 -0.00000000000E+00 -0.00000000000E+00 -0.55603018852E+03  0.55603018853E+03  0.25500000000E-02 0.  1.
    8880023    1    1    2    0    0  0.68452804222E+02 -0.36086012199E+03  0.15726281589E+04  0.17440972870E+04  0.65864270000E+03 0. -1.
    8880022    1    1    2    0    0 -0.68452804222E+02  0.36086012199E+03 -0.38614777214E+03  0.55444347682E+03  0.15294330000E+03 0.  0.
<mgrwt>
<rscale>  0 0.64271738E+03</rscale>
<asrwt>0</asrwt>
<pdfrwt beam="1">  1        2 0.26807855E+00 0.75413263E+03</pdfrwt>
<pdfrwt beam="2">  1       -2 0.85543106E-01 0.75413263E+03</pdfrwt>
<totfact> 0.11346339E+01</totfact>
</mgrwt>
</event>
<event>
 4    2  0.2930016E-007  0.7197836E+03  0.7818608E-02  0.9923319E-01
         -2   -1    0    0    0  501 -0.00000000000E+00  0.00000000000E+00  0.47029438244E+03  0.47029438244E+03  0.25500000000E-02 0.  1.
          2   -1    0    0  501    0  0.00000000000E+00 -0.00000000000E+00 -0.65045218697E+03  0.65045218698E+03  0.25500000000E-02 0. -1.
    8880023    1    1    2    0    0  0.20611282510E+03 -0.20443994614E+03 -0.28812541324E+03  0.77530938874E+03  0.65864270000E+03 0.  0.
    8880022    1    1    2    0    0 -0.20611282510E+03  0.20443994614E+03  0.10796760871E+03  0.34543718068E+03  0.15294330000E+03 0.  0.
<mgrwt>
<rscale>  0 0.59144342E+03</rscale>
<asrwt>0</asrwt>
<pdfrwt beam="1">  1        2 0.10006957E+00 0.71978357E+03</pdfrwt>
<pdfrwt beam="2">  1       -2 0.72352982E-01 0.71978357E+03</pdfrwt>
<totfact> 0.78759133E+01</totfact>
</mgrwt>
</event>
<event>
 4    2  0.2930016E-007  0.7148014E+03  0.7818608E-02  0.9940585E-01
         -2   -1    0    0    0  501 -0.00000000000E+00  0.00000000000E+00  0.14656092201E+04  0.14656092201E+04  0.25500000000E-02 0.  1.
          2   -1    0    0  501    0  0.00000000000E+00 -0.00000000000E+00 -0.31311112200E+03  0.31311112201E+03  0.25500000000E-02 0. -1.
    8880023    1    1    2    0    0 -0.10432950972E+03 -0.25738339018E+03  0.15414612376E+03  0.73123326639E+03  0.65864270000E+03 0.  0.
    8880022    1    1    2    0    0  0.10432950972E+03  0.25738339018E+03  0.99835197435E+03  0.10474870757E+04  0.15294330000E+03 0.  0.
<mgrwt>
<rscale>  0 0.58334028E+03</rscale>
<asrwt>0</asrwt>
<pdfrwt beam="1">  1        2 0.48170942E-01 0.71480141E+03</pdfrwt>
<pdfrwt beam="2">  1       -2 0.22547834E+00 0.71480141E+03</pdfrwt>
<totfact> 0.98016446E+00</totfact>
</mgrwt>
</event>
<event>
 4    2  0.2930016E-007  0.1273322E+04  0.7818608E-02  0.9088948E-01
          2   -1    0    0  501    0  0.00000000000E+00  0.00000000000E+00  0.14992967565E+04  0.14992967565E+04  0.25500000000E-02 0. -1.
         -2   -1    0    0    0  501 -0.00000000000E+00 -0.00000000000E+00 -0.24281608472E+04  0.24281608472E+04  0.25500000000E-02 0.  1.
    8880023    1    1    2    0    0 -0.49821259195E+03  0.96918607741E+03 -0.20135069709E+04  0.23823429576E+04  0.65864270000E+03 0.  1.
    8880022    1    1    2    0    0  0.49821259195E+03 -0.96918607741E+03  0.10846428802E+04  0.15451146462E+04  0.15294330000E+03 0.  0.
<mgrwt>
<rscale>  0 0.12277032E+04</rscale>
<asrwt>0</asrwt>
<pdfrwt beam="1">  1        2 0.23066104E+00 0.12733215E+04</pdfrwt>
<pdfrwt beam="2">  1       -2 0.37356321E+00 0.12733215E+04</pdfrwt>
<totfact> 0.13592413E-01</totfact>
</mgrwt>
</event>
<event>
 4    2  0.2930016E-007  0.6881972E+03  0.7818608E-02  0.1005021E+00
         -2   -1    0    0    0  501 -0.00000000000E+00  0.00000000000E+00  0.58993395057E+03  0.58993395058E+03  0.25500000000E-02 0.  1.
          2   -1    0    0  501    0  0.00000000000E+00 -0.00000000000E+00 -0.16393806445E+04  0.16393806445E+04  0.25500000000E-02 0. -1.
    8880023    1    1    2    0    0  0.19405374132E+03 -0.46349927411E+02 -0.15351834815E+04  0.16823803667E+04  0.65864270000E+03 0. -1.
    8880022    1    1    2    0    0 -0.19405374132E+03  0.46349927411E+02  0.48573678758E+03  0.54693422832E+03  0.15294330000E+03 0.  0.
<mgrwt>
<rscale>  0 0.53502192E+03</rscale>
<asrwt>0</asrwt>
<pdfrwt beam="1">  1        2 0.25221240E+00 0.68819719E+03</pdfrwt>
<pdfrwt beam="2">  1       -2 0.90759070E-01 0.68819719E+03</pdfrwt>
<totfact> 0.11387856E+01</totfact>
</mgrwt>
</event>
<event>
 4    2  0.2930016E-007  0.7042389E+03  0.7818608E-02  0.9980051E-01
         -2   -1    0    0    0  501 -0.00000000000E+00  0.00000000000E+00  0.22362455385E+03  0.22362455386E+03  0.25500000000E-02 0.  1.
          2   -1    0    0  501    0  0.00000000000E+00 -0.00000000000E+00 -0.25270636745E+04  0.25270636745E+04  0.25500000000E-02 0. -1.
    8880023    1    1    2    0    0  0.24918754380E+03  0.69176619993E+01 -0.23511546339E+04  0.24543595101E+04  0.65864270000E+03 0. -1.
    8880022    1    1    2    0    0 -0.24918754380E+03 -0.69176619993E+01  0.47715513274E+02  0.29632871824E+03  0.15294330000E+03 0.  0.
<mgrwt>
<rscale>  0 0.56533691E+03</rscale>
<asrwt>0</asrwt>
<pdfrwt beam="1">  1        2 0.38877901E+00 0.70423895E+03</pdfrwt>
<pdfrwt beam="2">  1       -2 0.34403779E-01 0.70423895E+03</pdfrwt>
<totfact> 0.27954391E+01</totfact>
</mgrwt>
</event>
<event>
 4    2  0.2930016E-007  0.1238537E+04  0.7818608E-02  0.9120542E-01
          2   -1    0    0  501    0  0.00000000000E+00  0.00000000000E+00  0.13427855441E+04  0.13427855441E+04  0.25500000000E-02 0. -1.
         -2   -1    0    0    0  501 -0.00000000000E+00 -0.00000000000E+00 -0.14314395125E+04  0.14314395125E+04  0.25500000000E-02 0.  1.
    8880023    1    1    2    0    0 -0.34706174283E+03  0.98980450525E+03  0.72754179690E+03  0.14364164036E+04  0.65864270000E+03 0.  1.
    8880022    1    1    2    0    0  0.34706174283E+03 -0.98980450525E+03 -0.81619576524E+03  0.13378086530E+04  0.15294330000E+03 0.  0.
<mgrwt>
<rscale>  0 0.11912591E+04</rscale>
<asrwt>0</asrwt>
<pdfrwt beam="1">  1        2 0.20658239E+00 0.12385375E+04</pdfrwt>
<pdfrwt beam="2">  1       -2 0.22022146E+00 0.12385375E+04</pdfrwt>
<totfact> 0.14866873E+00</totfact>
</mgrwt>
</event>
<event>
 4    2  0.2930016E-007  0.6929729E+03  0.7818608E-02  0.1002770E+00
         -2   -1    0    0    0  501 -0.00000000000E+00  0.00000000000E+00  0.30301401713E+03  0.30301401714E+03  0.25500000000E-02 0.  1.
          2   -1    0    0  501    0  0.00000000000E+00 -0.00000000000E+00 -0.12037161253E+04  0.12037161253E+04  0.25500000000E-02 0. -1.
    8880023    1    1    2    0    0 -0.21166184286E+03  0.40006563091E+02 -0.10066354503E+04  0.12220991764E+04  0.65864270000E+03 0.  0.
    8880022    1    1    2    0    0  0.21166184286E+03 -0.40006563091E+02  0.10593334219E+03  0.28463096601E+03  0.15294330000E+03 0.  0.
<mgrwt>
<rscale>  0 0.54451972E+03</rscale>
<asrwt>0</asrwt>
<pdfrwt beam="1">  1        2 0.18518709E+00 0.69297292E+03</pdfrwt>
<pdfrwt beam="2">  1       -2 0.46617542E-01 0.69297292E+03</pdfrwt>
<totfact> 0.83937661E+01</totfact>
</mgrwt>
</event>
<event>
 4    2  0.2930016E-007  0.7232221E+03  0.7818608E-02  0.9911831E-01
         -2   -1    0    0    0  501 -0.00000000000E+00  0.00000000000E+00  0.46812034430E+03  0.46812034431E+03  0.25500000000E-02 0.  1.
          2   -1    0    0  501    0  0.00000000000E+00 -0.00000000000E+00 -0.12836000035E+04  0.12836000035E+04  0.25500000000E-02 0. -1.
    8880023    1    1    2    0    0 -0.67043440283E+02 -0.29111017761E+03 -0.10968140385E+04  0.13137926776E+04  0.65864270000E+03 0. -1.
    8880022    1    1    2    0    0  0.67043440283E+02  0.29111017761E+03  0.28133437926E+03  0.43792767025E+03  0.15294330000E+03 0.  0.
<mgrwt>
<rscale>  0 0.59691335E+03</rscale>
<asrwt>0</asrwt>
<pdfrwt beam="1">  1        2 0.19747692E+00 0.72322207E+03</pdfrwt>
<pdfrwt beam="2">  1       -2 0.72018515E-01 0.72322207E+03</pdfrwt>
<totfact> 0.30191661E+01</totfact>
</mgrwt>
</event>
<event>
 4    2  0.2930016E-007  0.1037329E+04  0.7818608E-02  0.9334271E-01
         -2   -1    0    0    0  501 -0.00000000000E+00  0.00000000000E+00  0.46950756336E+03  0.46950756337E+03  0.25500000000E-02 0.  1.
          2   -1    0    0  501    0  0.00000000000E+00 -0.00000000000E+00 -0.33759948926E+04  0.33759948926E+04  0.25500000000E-02 0. -1.
    8880023    1    1    2    0    0 -0.80093643387E+03 -0.27241478900E+02 -0.28439719093E+04  0.30272475446E+04  0.65864270000E+03 0. -1.
    8880022    1    1    2    0    0  0.80093643387E+03  0.27241478900E+02 -0.62515419986E+02  0.81825491139E+03  0.15294330000E+03 0.  0.
<mgrwt>
<rscale>  0 0.97688118E+03</rscale>
<asrwt>0</asrwt>
<pdfrwt beam="1">  1        2 0.51938381E+00 0.10373290E+04</pdfrwt>
<pdfrwt beam="2">  1       -2 0.72231935E-01 0.10373290E+04</pdfrwt>
<totfact> 0.17622776E+00</totfact>
</mgrwt>
</event>
<event>
 4    2  0.2930016E-007  0.7112088E+03  0.7818608E-02  0.9953539E-01
          2   -1    0    0  501    0  0.00000000000E+00  0.00000000000E+00  0.19172681580E+03  0.19172681582E+03  0.25500000000E-02 0. -1.
         -2   -1    0    0    0  501 -0.00000000000E+00 -0.00000000000E+00 -0.15325321284E+04  0.15325321284E+04  0.25500000000E-02 0.  1.
    8880023    1    1    2    0    0 -0.26830521153E+03  0.44810141895E+01 -0.63343385385E+03  0.95239509632E+03  0.65864270000E+03 0.  0.
    8880022    1    1    2    0    0  0.26830521153E+03 -0.44810141895E+01 -0.70737145872E+03  0.77186384787E+03  0.15294330000E+03 0.  0.
<mgrwt>
<rscale>  0 0.57735252E+03</rscale>
<asrwt>0</asrwt>
<pdfrwt beam="1">  1        2 0.29496434E-01 0.71120881E+03</pdfrwt>
<pdfrwt beam="2">  1       -2 0.23577417E+00 0.71120881E+03</pdfrwt>
<totfact> 0.14658393E+01</totfact>
</mgrwt>
</event>
<event>
 4    2  0.2930016E-007  0.6727933E+03  0.7818608E-02  0.1013735E+00
         -2   -1    0    0    0  501 -0.00000000000E+00  0.00000000000E+00  0.61213684261E+03  0.61213684261E+03  0.25500000000E-02 0.  1.
          2   -1    0    0  501    0  0.00000000000E+00 -0.00000000000E+00 -0.48360859121E+03  0.48360859122E+03  0.25500000000E-02 0. -1.
    8880023    1    1    2    0    0  0.30137363327E+02  0.13391163089E+03 -0.20557440911E+03  0.70349955899E+03  0.65864270000E+03 0. -1.
    8880022    1    1    2    0    0 -0.30137363327E+02 -0.13391163089E+03  0.33410266051E+03  0.39224587484E+03  0.15294330000E+03 0.  0.
<mgrwt>
<rscale>  0 0.50016897E+03</rscale>
<asrwt>0</asrwt>
<pdfrwt beam="1">  1        2 0.74401322E-01 0.67279328E+03</pdfrwt>
<pdfrwt beam="2">  1       -2 0.94174899E-01 0.67279328E+03</pdfrwt>
<totfact> 0.61894799E+01</totfact>
</mgrwt>
</event>
<event>
 4    2  0.2930016E-007  0.7230820E+03  0.7818608E-02  0.9912292E-01
         -2   -1    0    0    0  501 -0.00000000000E+00  0.00000000000E+00  0.51022700768E+03  0.51022700769E+03  0.25500000000E-02 0.  1.
          2   -1    0    0  501    0  0.00000000000E+00 -0.00000000000E+00 -0.20945989302E+04  0.20945989302E+04  0.25500000000E-02 0. -1.
    8880023    1    1    2    0    0  0.27215657052E+03  0.12234432327E+03 -0.19672215676E+04  0.20959027255E+04  0.65864270000E+03 0. -1.
    8880022    1    1    2    0    0 -0.27215657052E+03 -0.12234432327E+03  0.38284964513E+03  0.50892321238E+03  0.15294330000E+03 0.  0.
<mgrwt>
<rscale>  0 0.59669230E+03</rscale>
<asrwt>0</asrwt>
<pdfrwt beam="1">  1        2 0.32224599E+00 0.72308197E+03</pdfrwt>
<pdfrwt beam="2">  1       -2 0.78496464E-01 0.72308197E+03</pdfrwt>
<totfact> 0.88962226E+00</totfact>
</mgrwt>
</event>
<event>
 4    2  0.2930016E-007  0.9086827E+03  0.7818608E-02  0.9512234E-01
         -2   -1    0    0    0  501 -0.00000000000E+00  0.00000000000E+00  0.57317425966E+03  0.57317425967E+03  0.25500000000E-02 0.  1.
          2   -1    0    0  501    0  0.00000000000E+00 -0.00000000000E+00 -0.26346190927E+04  0.26346190927E+04  0.25500000000E-02 0. -1.
    8880023    1    1    2    0    0  0.55115021914E+03  0.29686279525E+03 -0.23366086369E+04  0.25070788204E+04  0.65864270000E+03 0. -1.
    8880022    1    1    2    0    0 -0.55115021914E+03 -0.29686279525E+03  0.27516380392E+03  0.70071453194E+03  0.15294330000E+03 0.  0.
<mgrwt>
<rscale>  0 0.83387812E+03</rscale>
<asrwt>0</asrwt>
<pdfrwt beam="1">  1        2 0.40532601E+00 0.90868272E+03</pdfrwt>
<pdfrwt beam="2">  1       -2 0.88180657E-01 0.90868272E+03</pdfrwt>
<totfact> 0.33001600E+00</totfact>
</mgrwt>
</event>
<event>
 4    2  0.2930016E-007  0.7172734E+03  0.7818608E-02  0.9931922E-01
         -2   -1    0    0    0  501 -0.00000000000E+00  0.00000000000E+00  0.33611545775E+03  0.33611545776E+03  0.25500000000E-02 0.  1.
          2   -1    0    0  501    0  0.00000000000E+00 -0.00000000000E+00 -0.21683764194E+04  0.21683764194E+04  0.25500000000E-02 0. -1.
    8880023    1    1    2    0    0  0.22005885756E+03 -0.17956902107E+03 -0.20114260060E+04  0.21354895734E+04  0.65864270000E+03 0. -1.
    8880022    1    1    2    0    0 -0.22005885756E+03  0.17956902107E+03  0.17916504430E+03  0.36900230383E+03  0.15294330000E+03 0.  1.
<mgrwt>
<rscale>  0 0.58738841E+03</rscale>
<asrwt>0</asrwt>
<pdfrwt beam="1">  1        2 0.33359636E+00 0.71727341E+03</pdfrwt>
<pdfrwt beam="2">  1       -2 0.51710072E-01 0.71727341E+03</pdfrwt>
<totfact> 0.19815542E+01</totfact>
</mgrwt>
</event>
<event>
 4    2  0.2930016E-007  0.7704305E+03  0.7818608E-02  0.9778816E-01
          2   -1    0    0  501    0  0.00000000000E+00  0.00000000000E+00  0.33773244807E+04  0.33773244807E+04  0.25500000000E-02 0. -1.
         -2   -1    0    0    0  501 -0.00000000000E+00 -0.00000000000E+00 -0.18664220987E+03  0.18664220989E+03  0.25500000000E-02 0.  1.
    8880023    1    1    2    0    0  0.11848255969E+03  0.38172620022E+03  0.29966088982E+04  0.30940633645E+04  0.65864270000E+03 0. -1.
    8880022    1    1    2    0    0 -0.11848255969E+03 -0.38172620022E+03  0.19407337273E+03  0.46990332612E+03  0.15294330000E+03 0.  0.
<mgrwt>
<rscale>  0 0.66511907E+03</rscale>
<asrwt>0</asrwt>
<pdfrwt beam="1">  1        2 0.51958831E+00 0.77043054E+03</pdfrwt>
<pdfrwt beam="2">  1       -2 0.28714190E-01 0.77043054E+03</pdfrwt>
<totfact> 0.11762081E+01</totfact>
</mgrwt>
</event>
<event>
 4    2  0.2930016E-007  0.8230635E+03  0.7818608E-02  0.9662982E-01
         -2   -1    0    0    0  501 -0.00000000000E+00  0.00000000000E+00  0.30831206162E+03  0.30831206163E+03  0.25500000000E-02 0.  1.
          2   -1    0    0  501    0  0.00000000000E+00 -0.00000000000E+00 -0.39906015852E+04  0.39906015852E+04  0.25500000000E-02 0. -1.
    8880023    1    1    2    0    0 -0.15518266455E+03  0.46855280075E+03 -0.36914532762E+04  0.37820974185E+04  0.65864270000E+03 0.  0.
    8880022    1    1    2    0    0  0.15518266455E+03 -0.46855280075E+03  0.91637526256E+01  0.51681622831E+03  0.15294330000E+03 0.  0.
<mgrwt>
<rscale>  0 0.73264230E+03</rscale>
<asrwt>0</asrwt>
<pdfrwt beam="1">  1        2 0.61393867E+00 0.82306354E+03</pdfrwt>
<pdfrwt beam="2">  1       -2 0.47432628E-01 0.82306354E+03</pdfrwt>
<totfact> 0.16012352E+00</totfact>
</mgrwt>
</event>
<event>
 4    2  0.2930016E-007  0.6864417E+03  0.7818608E-02  0.1005892E+00
          2   -1    0    0  501    0  0.00000000000E+00  0.00000000000E+00  0.11372974486E+04  0.11372974486E+04  0.25500000000E-02 0. -1.
         -2   -1    0    0    0  501 -0.00000000000E+00 -0.00000000000E+00 -0.44940636919E+03  0.44940636919E+03  0.25500000000E-02 0.  1.
    8880023    1    1    2    0    0 -0.43620402102E+02 -0.18838583556E+03  0.98501879341E+03  0.12006099251E+04  0.65864270000E+03 0. -1.
    8880022    1    1    2    0    0  0.43620402102E+02  0.18838583556E+03 -0.29712771403E+03  0.38609389270E+03  0.15294330000E+03 0.  0.
<mgrwt>
<rscale>  0 0.53140550E+03</rscale>
<asrwt>0</asrwt>
<pdfrwt beam="1">  1        2 0.17496884E+00 0.68644167E+03</pdfrwt>
<pdfrwt beam="2">  1       -2 0.69139442E-01 0.68644167E+03</pdfrwt>
<totfact> 0.40415160E+01</totfact>
</mgrwt>
</event>
<event>
 4    2  0.2930016E-007  0.9739902E+03  0.7818608E-02  0.9416407E-01
          2   -1    0    0  501    0  0.00000000000E+00  0.00000000000E+00  0.35231933334E+04  0.35231933334E+04  0.25500000000E-02 0. -1.
         -2   -1    0    0    0  501 -0.00000000000E+00 -0.00000000000E+00 -0.22285183043E+03  0.22285183045E+03  0.25500000000E-02 0.  1.
    8880023    1    1    2    0    0  0.12668891807E+03 -0.70625534285E+03  0.23620508279E+04  0.25549835638E+04  0.65864270000E+03 0.  0.
    8880022    1    1    2    0    0 -0.12668891807E+03  0.70625534285E+03  0.93829067509E+03  0.11910616001E+04  0.15294330000E+03 0.  0.
<mgrwt>
<rscale>  0 0.90737700E+03</rscale>
<asrwt>0</asrwt>
<pdfrwt beam="1">  1        2 0.54202971E+00 0.97399019E+03</pdfrwt>
<pdfrwt beam="2">  1       -2 0.34284899E-01 0.97399019E+03</pdfrwt>
<totfact> 0.64990898E+00</totfact>
</mgrwt>
</event>
<event>
 4    2  0.2930016E-007  0.7033954E+03  0.7818608E-02  0.9983397E-01
          2   -1    0    0  501    0  0.00000000000E+00  0.00000000000E+00  0.15374438086E+04  0.15374438086E+04  0.25500000000E-02 0. -1.
         -2   -1    0    0    0  501 -0.00000000000E+00 -0.00000000000E+00 -0.29693100905E+03  0.29693100906E+03  0.25500000000E-02 0.  1.
    8880023    1    1    2    0    0 -0.24687194208E+03 -0.30310850541E+01  0.13514021126E+04  0.15235001869E+04  0.65864270000E+03 0.  0.
    8880022    1    1    2    0    0  0.24687194208E+03  0.30310850541E+01 -0.11088931308E+03  0.31087463073E+03  0.15294330000E+03 0.  0.
<mgrwt>
<rscale>  0 0.56384289E+03</rscale>
<asrwt>0</asrwt>
<pdfrwt beam="1">  1        2 0.23652981E+00 0.70339544E+03</pdfrwt>
<pdfrwt beam="2">  1       -2 0.45681694E-01 0.70339544E+03</pdfrwt>
<totfact> 0.56418833E+01</totfact>
</mgrwt>
</event>
<event>
 4    2  0.2930016E-007  0.6997077E+03  0.7818608E-02  0.9998416E-01
          2   -1    0    0  501    0  0.00000000000E+00  0.00000000000E+00  0.13576099752E+04  0.13576099752E+04  0.25500000000E-02 0. -1.
         -2   -1    0    0    0  501 -0.00000000000E+00 -0.00000000000E+00 -0.50779036576E+03  0.50779036576E+03  0.25500000000E-02 0.  1.
    8880023    1    1    2    0    0  0.68645739496E+02  0.22598324844E+03  0.12163957313E+04  0.14032852338E+04  0.65864270000E+03 0. -1.
    8880022    1    1    2    0    0 -0.68645739496E+02 -0.22598324844E+03 -0.36657612184E+03  0.46211510714E+03  0.15294330000E+03 0.  0.
<mgrwt>
<rscale>  0 0.55719750E+03</rscale>
<asrwt>0</asrwt>
<pdfrwt beam="1">  1        2 0.20886307E+00 0.69970770E+03</pdfrwt>
<pdfrwt beam="2">  1       -2 0.78121595E-01 0.69970770E+03</pdfrwt>
<totfact> 0.22930937E+01</totfact>
</mgrwt>
</event>
<event>
 4    2  0.2930016E-007  0.8982242E+03  0.7818608E-02  0.9528888E-01
          2   -1    0    0  501    0  0.00000000000E+00  0.00000000000E+00  0.16583508573E+04  0.16583508573E+04  0.25500000000E-02 0. -1.
         -2   -1    0    0    0  501 -0.00000000000E+00 -0.00000000000E+00 -0.59106603968E+03  0.59106603969E+03  0.25500000000E-02 0.  1.
    8880023    1    1    2    0    0 -0.86815325551E+02 -0.60453253791E+03  0.12983410551E+04  0.15787641343E+04  0.65864270000E+03 0. -1.
    8880022    1    1    2    0    0  0.86815325551E+02  0.60453253791E+03 -0.23105623752E+03  0.67065276265E+03  0.15294330000E+03 0.  0.
<mgrwt>
<rscale>  0 0.82187097E+03</rscale>
<asrwt>0</asrwt>
<pdfrwt beam="1">  1        2 0.25513090E+00 0.89822419E+03</pdfrwt>
<pdfrwt beam="2">  1       -2 0.90933238E-01 0.89822419E+03</pdfrwt>
<totfact> 0.10766734E+01</totfact>
</mgrwt>
</event>
<event>
 4    2  0.2930016E-007  0.8973346E+03  0.7818608E-02  0.9530324E-01
         -2   -1    0    0    0  501 -0.00000000000E+00  0.00000000000E+00  0.47096762349E+03  0.47096762350E+03  0.25500000000E-02 0.  1.
          2   -1    0    0  501    0  0.00000000000E+00 -0.00000000000E+00 -0.14005846443E+04  0.14005846443E+04  0.25500000000E-02 0. -1.
    8880023    1    1    2    0    0 -0.13898360309E+03  0.59336558333E+03 -0.22033177598E+03  0.92398888261E+03  0.65864270000E+03 0.  1.
    8880022    1    1    2    0    0  0.13898360309E+03 -0.59336558333E+03 -0.70928524481E+03  0.94756338518E+03  0.15294330000E+03 0.  0.
<mgrwt>
<rscale>  0 0.82084600E+03</rscale>
<asrwt>0</asrwt>
<pdfrwt beam="1">  1        2 0.21547456E+00 0.89733459E+03</pdfrwt>
<pdfrwt beam="2">  1       -2 0.72456558E-01 0.89733459E+03</pdfrwt>
<totfact> 0.25078180E+01</totfact>
</mgrwt>
</event>
<event>
 4    2  0.2930016E-007  0.8338207E+03  0.7818608E-02  0.9641944E-01
         -2   -1    0    0    0  501 -0.00000000000E+00  0.00000000000E+00  0.69780340980E+03  0.69780340980E+03  0.25500000000E-02 0.  1.
          2   -1    0    0  501    0  0.00000000000E+00 -0.00000000000E+00 -0.16932409612E+04  0.16932409612E+04  0.25500000000E-02 0. -1.
    8880023    1    1    2    0    0 -0.25983016725E+03  0.44038049419E+03 -0.14614076576E+04  0.16825484371E+04  0.65864270000E+03 0. -1.
    8880022    1    1    2    0    0  0.25983016725E+03 -0.44038049419E+03  0.46597010615E+03  0.70849593388E+03  0.15294330000E+03 0.  0.
<mgrwt>
<rscale>  0 0.74581188E+03</rscale>
<asrwt>0</asrwt>
<pdfrwt beam="1">  1        2 0.26049861E+00 0.83382067E+03</pdfrwt>
<pdfrwt beam="2">  1       -2 0.10735437E+00 0.83382067E+03</pdfrwt>
<totfact> 0.70089043E+00</totfact>
</mgrwt>
</event>
<event>
 4    2  0.2930016E-007  0.6697451E+03  0.7818608E-02  0.1015846E+00
          2   -1    0    0  501    0  0.00000000000E+00  0.00000000000E+00  0.63163981360E+03  0.63163981360E+03  0.25500000000E-02 0. -1.
         -2   -1    0    0    0  501 -0.00000000000E+00 -0.00000000000E+00 -0.56197595666E+03  0.56197595667E+03  0.25500000000E-02 0.  1.
    8880023    1    1    2    0    0  0.87540617492E+02  0.84172097288E+02  0.42140837734E+03  0.79129231541E+03  0.65864270000E+03 0. -1.
    8880022    1    1    2    0    0 -0.87540617492E+02 -0.84172097288E+02 -0.35174452041E+03  0.40232345485E+03  0.15294330000E+03 0.  0.
<mgrwt>
<rscale>  0 0.49215815E+03</rscale>
<asrwt>0</asrwt>
<pdfrwt beam="1">  1        2 0.97175355E-01 0.66974511E+03</pdfrwt>
<pdfrwt beam="2">  1       -2 0.86457840E-01 0.66974511E+03</pdfrwt>
<totfact> 0.54984519E+01</totfact>
</mgrwt>
</event>
<event>
 4    2  0.2930016E-007  0.6939250E+03  0.7818608E-02  0.1002340E+00
          2   -1    0    0  501    0  0.00000000000E+00  0.00000000000E+00  0.22790691673E+04  0.22790691673E+04  0.25500000000E-02 0. -1.
         -2   -1    0    0    0  501 -0.00000000000E+00 -0.00000000000E+00 -0.16396033288E+03  0.16396033290E+03  0.25500000000E-02 0.  1.
    8880023    1    1    2    0    0 -0.18405779126E+03 -0.11766241431E+03  0.20559175720E+04  0.21698684254E+04  0.65864270000E+03 0. -1.
    8880022    1    1    2    0    0  0.18405779126E+03  0.11766241431E+03  0.59191262464E+02  0.27316107488E+03  0.15294330000E+03 0.  0.
<mgrwt>
<rscale>  0 0.54635926E+03</rscale>
<asrwt>0</asrwt>
<pdfrwt beam="1">  1        2 0.35062602E+00 0.69392501E+03</pdfrwt>
<pdfrwt beam="2">  1       -2 0.25224667E-01 0.69392501E+03</pdfrwt>
<totfact> 0.68424706E+01</totfact>
</mgrwt>
</event>
<event>
 4    2  0.2930016E-007  0.6729564E+03  0.7818608E-02  0.1013627E+00
          2   -1    0    0  501    0  0.00000000000E+00  0.00000000000E+00  0.89867656681E+03  0.89867656682E+03  0.25500000000E-02 0. -1.
         -2   -1    0    0    0  501 -0.00000000000E+00 -0.00000000000E+00 -0.40274665782E+03  0.40274665783E+03  0.25500000000E-02 0.  1.
    8880023    1    1    2    0    0  0.77614722486E+01  0.13784012177E+03  0.72779573913E+03  0.99124012418E+03  0.65864270000E+03 0. -1.
    8880022    1    1    2    0    0 -0.77614722486E+01 -0.13784012177E+03 -0.23186583014E+03  0.31018310047E+03  0.15294330000E+03 0.  0.
<mgrwt>
<rscale>  0 0.50058428E+03</rscale>
<asrwt>0</asrwt>
<pdfrwt beam="1">  1        2 0.13825793E+00 0.67295642E+03</pdfrwt>
<pdfrwt beam="2">  1       -2 0.61961024E-01 0.67295642E+03</pdfrwt>
<totfact> 0.72501066E+01</totfact>
</mgrwt>
</event>
<event>
 4    2  0.2930016E-007  0.6664147E+03  0.7818608E-02  0.1018375E+00
         -2   -1    0    0    0  501 -0.00000000000E+00  0.00000000000E+00  0.34923876465E+03  0.34923876466E+03  0.25500000000E-02 0.  1.
          2   -1    0    0  501    0  0.00000000000E+00 -0.00000000000E+00 -0.52300985705E+03  0.52300985706E+03  0.25500000000E-02 0. -1.
    8880023    1    1    2    0    0 -0.75218866275E+02  0.68121353313E+02 -0.97605763511E+02  0.67352467509E+03  0.65864270000E+03 0.  1.
    8880022    1    1    2    0    0  0.75218866275E+02 -0.68121353313E+02 -0.76165328891E+02  0.19872394662E+03  0.15294330000E+03 0. -1.
<mgrwt>
<rscale>  0 0.48277653E+03</rscale>
<asrwt>0</asrwt>
<pdfrwt beam="1">  1        2 0.80463055E-01 0.66641474E+03</pdfrwt>
<pdfrwt beam="2">  1       -2 0.53729040E-01 0.66641474E+03</pdfrwt>
<totfact> 0.19320611E+02</totfact>
</mgrwt>
</event>
<event>
 4    2  0.2930016E-007  0.6623352E+03  0.7818608E-02  0.1021882E+00
          2   -1    0    0  501    0  0.00000000000E+00  0.00000000000E+00  0.76485224661E+03  0.76485224662E+03  0.25500000000E-02 0. -1.
         -2   -1    0    0    0  501 -0.00000000000E+00 -0.00000000000E+00 -0.23535988964E+03  0.23535988965E+03  0.25500000000E-02 0.  1.
    8880023    1    1    2    0    0 -0.66492373362E+02  0.21363940016E+02  0.49915254655E+03  0.82936187797E+03  0.65864270000E+03 0. -1.
    8880022    1    1    2    0    0  0.66492373362E+02 -0.21363940016E+02  0.30339810428E+02  0.17085025830E+03  0.15294330000E+03 0.  0.
<mgrwt>
<rscale>  0 0.47013518E+03</rscale>
<asrwt>0</asrwt>
<pdfrwt beam="1">  1        2 0.11766958E+00 0.66233516E+03</pdfrwt>
<pdfrwt beam="2">  1       -2 0.36209214E-01 0.66233516E+03</pdfrwt>
<totfact> 0.26552354E+02</totfact>
</mgrwt>
</event>
<event>
 4    2  0.2930016E-007  0.7284956E+03  0.7818608E-02  0.9894823E-01
         -2   -1    0    0    0  501 -0.00000000000E+00  0.00000000000E+00  0.31626695051E+03  0.31626695052E+03  0.25500000000E-02 0.  1.
          2   -1    0    0  501    0  0.00000000000E+00 -0.00000000000E+00 -0.20272559679E+04  0.20272559679E+04  0.25500000000E-02 0. -1.
    8880023    1    1    2    0    0 -0.26759076197E+03  0.15903097252E+03 -0.18356917083E+04  0.19749607389E+04  0.65864270000E+03 0.  0.
    8880022    1    1    2    0    0  0.26759076197E+03 -0.15903097252E+03  0.12470269082E+03  0.36856217959E+03  0.15294330000E+03 0.  1.
<mgrwt>
<rscale>  0 0.60512862E+03</rscale>
<asrwt>0</asrwt>
<pdfrwt beam="1">  1        2 0.31188553E+00 0.72849562E+03</pdfrwt>
<pdfrwt beam="2">  1       -2 0.48656455E-01 0.72849562E+03</pdfrwt>
<totfact> 0.26752711E+01</totfact>
</mgrwt>
</event>
<event>
 4    2  0.2930016E-007  0.6627431E+03  0.7818608E-02  0.1021507E+00
          2   -1    0    0  501    0  0.00000000000E+00  0.00000000000E+00  0.15301261983E+04  0.15301261983E+04  0.25500000000E-02 0. -1.
         -2   -1    0    0    0  501 -0.00000000000E+00 -0.00000000000E+00 -0.21121614185E+03  0.21121614187E+03  0.25500000000E-02 0.  1.
    8880023    1    1    2    0    0  0.27600989496E+02  0.68237915500E+02  0.14031951600E+04  0.15518328168E+04  0.65864270000E+03 0. -1.
    8880022    1    1    2    0    0 -0.27600989496E+02 -0.68237915500E+02 -0.84285103646E+02  0.18950952336E+03  0.15294330000E+03 0.  0.
<mgrwt>
<rscale>  0 0.47146733E+03</rscale>
<asrwt>0</asrwt>
<pdfrwt beam="1">  1        2 0.23540404E+00 0.66274311E+03</pdfrwt>
<pdfrwt beam="2">  1       -2 0.32494790E-01 0.66274311E+03</pdfrwt>
<totfact> 0.11056497E+02</totfact>
</mgrwt>
</event>
<event>
 4    2  0.2930016E-007  0.8133797E+03  0.7818608E-02  0.9682580E-01
         -2   -1    0    0    0  501 -0.00000000000E+00  0.00000000000E+00  0.17984143470E+03  0.17984143472E+03  0.25500000000E-02 0.  1.
          2   -1    0    0  501    0  0.00000000000E+00 -0.00000000000E+00 -0.31465887778E+04  0.31465887778E+04  0.25500000000E-02 0. -1.
    8880023    1    1    2    0    0  0.23263967721E+03 -0.41671950921E+03 -0.25437067872E+04  0.26705862267E+04  0.65864270000E+03 0. -1.
    8880022    1    1    2    0    0 -0.23263967721E+03  0.41671950921E+03 -0.42304055587E+03  0.65584398579E+03  0.15294330000E+03 0.  0.
<mgrwt>
<rscale>  0 0.72063533E+03</rscale>
<asrwt>0</asrwt>
<pdfrwt beam="1">  1        2 0.48409054E+00 0.81337972E+03</pdfrwt>
<pdfrwt beam="2">  1       -2 0.27667915E-01 0.81337972E+03</pdfrwt>
<totfact> 0.17624934E+01</totfact>
</mgrwt>
</event>
<event>
 4    2  0.2930016E-007  0.8957070E+03  0.7818608E-02  0.9532959E-01
         -2   -1    0    0    0  501 -0.00000000000E+00  0.00000000000E+00  0.71869686961E+03  0.71869686962E+03  0.25500000000E-02 0.  1.
          2   -1    0    0  501    0  0.00000000000E+00 -0.00000000000E+00 -0.12141266940E+04  0.12141266940E+04  0.25500000000E-02 0. -1.
    8880023    1    1    2    0    0  0.27136177773E+03 -0.54299507005E+03 -0.83163556565E+03  0.12222556119E+04  0.65864270000E+03 0.  0.
    8880022    1    1    2    0    0 -0.27136177773E+03  0.54299507005E+03  0.33620574127E+03  0.71056795171E+03  0.15294330000E+03 0.  0.
<mgrwt>
<rscale>  0 0.81896923E+03</rscale>
<asrwt>0</asrwt>
<pdfrwt beam="1">  1        2 0.18678872E+00 0.89570702E+03</pdfrwt>
<pdfrwt beam="2">  1       -2 0.11056875E+00 0.89570702E+03</pdfrwt>
<totfact> 0.12094050E+01</totfact>
</mgrwt>
</event>
<event>
 4    2  0.2930016E-007  0.6923681E+03  0.7818608E-02  0.1003047E+00
          2   -1    0    0  501    0  0.00000000000E+00  0.00000000000E+00  0.71599728902E+03  0.71599728902E+03  0.25500000000E-02 0. -1.
         -2   -1    0    0    0  501 -0.00000000000E+00 -0.00000000000E+00 -0.13499930078E+04  0.13499930078E+04  0.25500000000E-02 0.  1.
    8880023    1    1    2    0    0 -0.21311498934E+03  0.12060116400E+02  0.53050863166E+03  0.87224598572E+03  0.65864270000E+03 0. -1.
    8880022    1    1    2    0    0  0.21311498934E+03 -0.12060116400E+02 -0.11645043505E+04  0.11937443111E+04  0.15294330000E+03 0.  0.
<mgrwt>
<rscale>  0 0.54334241E+03</rscale>
<asrwt>0</asrwt>
<pdfrwt beam="1">  1        2 0.11015343E+00 0.69236815E+03</pdfrwt>
<pdfrwt beam="2">  1       -2 0.20769123E+00 0.69236815E+03</pdfrwt>
<totfact> 0.48615492E+00</totfact>
</mgrwt>
</event>
<event>
 4    2  0.2930016E-007  0.6807939E+03  0.7818608E-02  0.1008878E+00
         -2   -1    0    0    0  501 -0.00000000000E+00  0.00000000000E+00  0.18518263444E+03  0.18518263446E+03  0.25500000000E-02 0.  1.
          2   -1    0    0  501    0  0.00000000000E+00 -0.00000000000E+00 -0.12905058648E+04  0.12905058648E+04  0.25500000000E-02 0. -1.
    8880023    1    1    2    0    0 -0.17186487311E+03  0.11516103375E+02 -0.10274471353E+04  0.12325290979E+04  0.65864270000E+03 0.  0.
    8880022    1    1    2    0    0  0.17186487311E+03 -0.11516103375E+02 -0.77876095075E+02  0.24315940131E+03  0.15294330000E+03 0.  0.
<mgrwt>
<rscale>  0 0.51922968E+03</rscale>
<asrwt>0</asrwt>
<pdfrwt beam="1">  1        2 0.19853936E+00 0.68079392E+03</pdfrwt>
<pdfrwt beam="2">  1       -2 0.28489637E-01 0.68079392E+03</pdfrwt>
<totfact> 0.19226439E+02</totfact>
</mgrwt>
</event>
<event>
 4    2  0.2930016E-007  0.7484938E+03  0.7818608E-02  0.9835862E-01
          2   -1    0    0  501    0  0.00000000000E+00  0.00000000000E+00  0.29038032244E+04  0.29038032244E+04  0.25500000000E-02 0. -1.
         -2   -1    0    0    0  501 -0.00000000000E+00 -0.00000000000E+00 -0.62365215176E+03  0.62365215177E+03  0.25500000000E-02 0.  1.
    8880023    1    1    2    0    0 -0.30909847241E+03 -0.17575821540E+03  0.27892421611E+04  0.28879257011E+04  0.65864270000E+03 0. -1.
    8880022    1    1    2    0    0  0.30909847241E+03  0.17575821540E+03 -0.50909108843E+03  0.63952967504E+03  0.15294330000E+03 0.  0.
<mgrwt>
<rscale>  0 0.63472998E+03</rscale>
<asrwt>0</asrwt>
<pdfrwt beam="1">  1        2 0.44673897E+00 0.74849384E+03</pdfrwt>
<pdfrwt beam="2">  1       -2 0.95946481E-01 0.74849384E+03</pdfrwt>
<totfact> 0.19368794E+00</totfact>
</mgrwt>
</event>
<event>
 4    2  0.2930016E-007  0.6674709E+03  0.7818608E-02  0.1017545E+00
          2   -1    0    0  501    0  0.00000000000E+00  0.00000000000E+00  0.11948842653E+04  0.11948842653E+04  0.25500000000E-02 0. -1.
         -2   -1    0    0    0  501 -0.00000000000E+00 -0.00000000000E+00 -0.19876895108E+03  0.19876895109E+03  0.25500000000E-02 0.  1.
    8880023    1    1    2    0    0 -0.96174533016E+02 -0.49574721793E+02  0.10045873473E+04  0.12061148944E+04  0.65864270000E+03 0. -1.
    8880022    1    1    2    0    0  0.96174533016E+02  0.49574721793E+02 -0.84720331400E+01  0.18753832196E+03  0.15294330000E+03 0.  0.
<mgrwt>
<rscale>  0 0.48583171E+03</rscale>
<asrwt>0</asrwt>
<pdfrwt beam="1">  1        2 0.18382835E+00 0.66747090E+03</pdfrwt>
<pdfrwt beam="2">  1       -2 0.30579839E-01 0.66747090E+03</pdfrwt>
<totfact> 0.19197515E+02</totfact>
</mgrwt>
</event>
<event>
 4    2  0.2930016E-007  0.6889533E+03  0.7818608E-02  0.1004654E+00
          2   -1    0    0  501    0  0.00000000000E+00  0.00000000000E+00  0.24398363090E+04  0.24398363090E+04  0.25500000000E-02 0. -1.
         -2   -1    0    0    0  501 -0.00000000000E+00 -0.00000000000E+00 -0.33670844702E+03  0.33670844703E+03  0.25500000000E-02 0.  1.
    8880023    1    1    2    0    0  0.76830488398E+02  0.18693202439E+03  0.23340881163E+04  0.24336441906E+04  0.65864270000E+03 0. -1.
    8880022    1    1    2    0    0 -0.76830488398E+02 -0.18693202439E+03 -0.23096025429E+03  0.34290056542E+03  0.15294330000E+03 0.  0.
<mgrwt>
<rscale>  0 0.53655778E+03</rscale>
<asrwt>0</asrwt>
<pdfrwt beam="1">  1        2 0.37535942E+00 0.68895335E+03</pdfrwt>
<pdfrwt beam="2">  1       -2 0.51801301E-01 0.68895335E+03</pdfrwt>
<totfact> 0.14022245E+01</totfact>
</mgrwt>
</event>
<event>
 4    2  0.2930016E-007  0.8431932E+03  0.7818608E-02  0.9624188E-01
         -2   -1    0    0    0  501 -0.00000000000E+00  0.00000000000E+00  0.24189444744E+03  0.24189444745E+03  0.25500000000E-02 0.  1.
          2   -1    0    0  501    0  0.00000000000E+00 -0.00000000000E+00 -0.35024050807E+04  0.35024050807E+04  0.25500000000E-02 0. -1.
    8880023    1    1    2    0    0 -0.29228119000E+03  0.43787691689E+03 -0.30376455760E+04  0.31525014417E+04  0.65864270000E+03 0. -1.
    8880022    1    1    2    0    0  0.29228119000E+03 -0.43787691689E+03 -0.22286505730E+03  0.59179808647E+03  0.15294330000E+03 0.  0.
<mgrwt>
<rscale>  0 0.75715711E+03</rscale>
<asrwt>0</asrwt>
<pdfrwt beam="1">  1        2 0.53883151E+00 0.84319315E+03</pdfrwt>
<pdfrwt beam="2">  1       -2 0.37214533E-01 0.84319315E+03</pdfrwt>
<totfact> 0.58644950E+00</totfact>
</mgrwt>
</event>
<event>
 4    2  0.2930016E-007  0.1496652E+04  0.7818608E-02  0.8912004E-01
         -2   -1    0    0    0  501 -0.00000000000E+00  0.00000000000E+00  0.16717508382E+04  0.16717508382E+04  0.25500000000E-02 0.  1.
          2   -1    0    0  501    0  0.00000000000E+00 -0.00000000000E+00 -0.16580404908E+04  0.16580404908E+04  0.25500000000E-02 0. -1.
    8880023    1    1    2    0    0 -0.75331940095E+03  0.11129540520E+04  0.86785481549E+03  0.17300690821E+04  0.65864270000E+03 0.  0.
    8880022    1    1    2    0    0  0.75331940095E+03 -0.11129540520E+04 -0.85414446812E+03  0.15997222469E+04  0.15294330000E+03 0.  0.
<mgrwt>
<rscale>  0 0.14592631E+04</rscale>
<asrwt>0</asrwt>
<pdfrwt beam="1">  1        2 0.25508315E+00 0.14966519E+04</pdfrwt>
<pdfrwt beam="2">  1       -2 0.25719244E+00 0.14966519E+04</pdfrwt>
<totfact> 0.56436088E-01</totfact>
</mgrwt>
</event>
<event>
 4    2  0.2930016E-007  0.7617440E+03  0.7818608E-02  0.9800613E-01
          2   -1    0    0  501    0  0.00000000000E+00  0.00000000000E+00  0.28212386666E+03  0.28212386668E+03  0.25500000000E-02 0. -1.
         -2   -1    0    0    0  501 -0.00000000000E+00 -0.00000000000E+00 -0.15234937627E+04  0.15234937627E+04  0.25500000000E-02 0.  1.
    8880023    1    1    2    0    0 -0.36961398046E+03  0.99142264155E+02 -0.38115857313E+03  0.85178386180E+03  0.65864270000E+03 0.  0.
    8880022    1    1    2    0    0  0.36961398046E+03 -0.99142264155E+02 -0.86021132287E+03  0.95383376754E+03  0.15294330000E+03 0.  0.
<mgrwt>
<rscale>  0 0.65329642E+03</rscale>
<asrwt>0</asrwt>
<pdfrwt beam="1">  1        2 0.43403673E-01 0.76174398E+03</pdfrwt>
<pdfrwt beam="2">  1       -2 0.23438365E+00 0.76174398E+03</pdfrwt>
<totfact> 0.96497326E+00</totfact>
</mgrwt>
</event>
<event>
 4    2  0.2930016E-007  0.6865872E+03  0.7818608E-02  0.1005819E+00
          2   -1    0    0  501    0  0.00000000000E+00  0.00000000000E+00  0.15285832745E+04  0.15285832745E+04  0.25500000000E-02 0. -1.
         -2   -1    0    0    0  501 -0.00000000000E+00 -0.00000000000E+00 -0.14858903737E+03  0.14858903740E+03  0.25500000000E-02 0.  1.
    8880023    1    1    2    0    0 -0.10617534493E+03 -0.16222982031E+03  0.11519234091E+04  0.13410180704E+04  0.65864270000E+03 0.  0.
    8880022    1    1    2    0    0  0.10617534493E+03  0.16222982031E+03  0.22807082806E+03  0.33615424152E+03  0.15294330000E+03 0.  0.
<mgrwt>
<rscale>  0 0.53170799E+03</rscale>
<asrwt>0</asrwt>
<pdfrwt beam="1">  1        2 0.23516665E+00 0.68658716E+03</pdfrwt>
<pdfrwt beam="2">  1       -2 0.22859852E-01 0.68658716E+03</pdfrwt>
<totfact> 0.21009302E+02</totfact>
</mgrwt>
</event>
<event>
 4    2  0.2930016E-007  0.1128645E+04  0.7818608E-02  0.9229814E-01
         -2   -1    0    0    0  501 -0.00000000000E+00  0.00000000000E+00  0.45877111797E+03  0.45877111798E+03  0.25500000000E-02 0.  1.
          2   -1    0    0  501    0  0.00000000000E+00 -0.00000000000E+00 -0.37707681554E+04  0.37707681554E+04  0.25500000000E-02 0. -1.
    8880023    1    1    2    0    0  0.69379065450E+03 -0.59890286857E+03 -0.30677330643E+04  0.32687652834E+04  0.65864270000E+03 0.  0.
    8880022    1    1    2    0    0 -0.69379065450E+03  0.59890286857E+03 -0.24426397321E+03  0.96077399001E+03  0.15294330000E+03 0.  0.
<mgrwt>
<rscale>  0 0.10750929E+04</rscale>
<asrwt>0</asrwt>
<pdfrwt beam="1">  1        2 0.58011816E+00 0.11286453E+04</pdfrwt>
<pdfrwt beam="2">  1       -2 0.70580174E-01 0.11286453E+04</pdfrwt>
<totfact> 0.96497697E-01</totfact>
</mgrwt>
</event>
<event>
 4    2  0.2930016E-007  0.1019920E+04  0.7818608E-02  0.9355948E-01
         -2   -1    0    0    0  501 -0.00000000000E+00  0.00000000000E+00  0.92322939038E+03  0.92322939039E+03  0.25500000000E-02 0.  1.
          2   -1    0    0  501    0  0.00000000000E+00 -0.00000000000E+00 -0.19259120361E+04  0.19259120361E+04  0.25500000000E-02 0. -1.
    8880023    1    1    2    0    0  0.68105452930E+03 -0.37761295416E+03 -0.15709896681E+04  0.18730311152E+04  0.65864270000E+03 0.  0.
    8880022    1    1    2    0    0 -0.68105452930E+03  0.37761295416E+03  0.56830702240E+03  0.97611031126E+03  0.15294330000E+03 0.  0.
<mgrwt>
<rscale>  0 0.95791404E+03</rscale>
<asrwt>0</asrwt>
<pdfrwt beam="1">  1        2 0.29629416E+00 0.10199201E+04</pdfrwt>
<pdfrwt beam="2">  1       -2 0.14203529E+00 0.10199201E+04</pdfrwt>
<totfact> 0.25267820E+00</totfact>
</mgrwt>
</event>
<event>
 4    2  0.2930016E-007  0.1050537E+04  0.7818608E-02  0.9318236E-01
         -2   -1    0    0    0  501 -0.00000000000E+00  0.00000000000E+00  0.64032521230E+03  0.64032521231E+03  0.25500000000E-02 0.  1.
          2   -1    0    0  501    0  0.00000000000E+00 -0.00000000000E+00 -0.16374703677E+04  0.16374703677E+04  0.25500000000E-02 0. -1.
    8880023    1    1    2    0    0 -0.77607164981E+03 -0.25986817052E+03 -0.10227926927E+03  0.10555045840E+04  0.65864270000E+03 0. -1.
    8880022    1    1    2    0    0  0.77607164981E+03  0.25986817052E+03 -0.89486588610E+03  0.12222909960E+04  0.15294330000E+03 0.  0.
<mgrwt>
<rscale>  0 0.99121251E+03</rscale>
<asrwt>0</asrwt>
<pdfrwt beam="1">  1        2 0.25191852E+00 0.10505374E+04</pdfrwt>
<pdfrwt beam="2">  1       -2 0.98511572E-01 0.10505374E+04</pdfrwt>
<totfact> 0.90170484E+00</totfact>
</mgrwt>
</event>
<event>
 4    2  0.2930016E-007  0.6626202E+03  0.7818608E-02  0.1021619E+00
         -2   -1    0    0    0  501 -0.00000000000E+00  0.00000000000E+00  0.31836356745E+03  0.31836356746E+03  0.25500000000E-02 0.  1.
          2   -1    0    0  501    0  0.00000000000E+00 -0.00000000000E+00 -0.12741161997E+04  0.12741161997E+04  0.25500000000E-02 0. -1.
    8880023    1    1    2    0    0 -0.71666110133E+02 -0.10921687973E+02 -0.11546769766E+04  0.13312942729E+04  0.65864270000E+03 0. -1.
    8880022    1    1    2    0    0  0.71666110133E+02  0.10921687973E+02  0.19892434433E+03  0.26118549423E+03  0.15294330000E+03 0.  0.
<mgrwt>
<rscale>  0 0.47106771E+03</rscale>
<asrwt>0</asrwt>
<pdfrwt beam="1">  1        2 0.19601787E+00 0.66262019E+03</pdfrwt>
<pdfrwt beam="2">  1       -2 0.48979011E-01 0.66262019E+03</pdfrwt>
<totfact> 0.69330873E+01</totfact>
</mgrwt>
</event>
<event>
 4    2  0.2930016E-007  0.8176555E+03  0.7818608E-02  0.9673846E-01
         -2   -1    0    0    0  501 -0.00000000000E+00  0.00000000000E+00  0.77544043707E+03  0.77544043707E+03  0.25500000000E-02 0.  1.
          2   -1    0    0  501    0  0.00000000000E+00 -0.00000000000E+00 -0.10475972267E+04  0.10475972267E+04  0.25500000000E-02 0. -1.
    8880023    1    1    2    0    0  0.47259721656E+03  0.10678107422E+03  0.45518155330E+03  0.93581556924E+03  0.65864270000E+03 0.  1.
    8880022    1    1    2    0    0 -0.47259721656E+03 -0.10678107422E+03 -0.72733834296E+03  0.88722209455E+03  0.15294330000E+03 0.  0.
<mgrwt>
<rscale>  0 0.72595568E+03</rscale>
<asrwt>0</asrwt>
<pdfrwt beam="1">  1        2 0.16116881E+00 0.81765551E+03</pdfrwt>
<pdfrwt beam="2">  1       -2 0.11929853E+00 0.81765551E+03</pdfrwt>
<totfact> 0.12782659E+01</totfact>
</mgrwt>
</event>
<event>
 4    2  0.2930016E-007  0.7933130E+03  0.7818608E-02  0.9725446E-01
          2   -1    0    0  501    0  0.00000000000E+00  0.00000000000E+00  0.17444141159E+04  0.17444141159E+04  0.25500000000E-02 0. -1.
         -2   -1    0    0    0  501 -0.00000000000E+00 -0.00000000000E+00 -0.32960213457E+03  0.32960213458E+03  0.25500000000E-02 0.  1.
    8880023    1    1    2    0    0 -0.18476789206E+03 -0.40174133632E+03  0.13960922635E+04  0.16057456491E+04  0.65864270000E+03 0. -1.
    8880022    1    1    2    0    0  0.18476789206E+03  0.40174133632E+03  0.18719717846E+02  0.46827060136E+03  0.15294330000E+03 0.  0.
<mgrwt>
<rscale>  0 0.69521769E+03</rscale>
<asrwt>0</asrwt>
<pdfrwt beam="1">  1        2 0.26837141E+00 0.79331298E+03</pdfrwt>
<pdfrwt beam="2">  1       -2 0.50708019E-01 0.79331298E+03</pdfrwt>
<totfact> 0.34811724E+01</totfact>
</mgrwt>
</event>
<event>
 4    2  0.2930016E-007  0.7006992E+03  0.7818608E-02  0.9994313E-01
         -2   -1    0    0    0  501 -0.00000000000E+00  0.00000000000E+00  0.58441142985E+03  0.58441142985E+03  0.25500000000E-02 0.  1.
          2   -1    0    0  501    0  0.00000000000E+00 -0.00000000000E+00 -0.42269214355E+03  0.42269214356E+03  0.25500000000E-02 0. -1.
    8880023    1    1    2    0    0  0.97067601304E+02  0.21851105321E+03  0.51387309188E+02  0.70258099989E+03  0.65864270000E+03 0. -1.
    8880022    1    1    2    0    0 -0.97067601304E+02 -0.21851105321E+03  0.11033197711E+03  0.30452257352E+03  0.15294330000E+03 0. -1.
<mgrwt>
<rscale>  0 0.55900312E+03</rscale>
<asrwt>0</asrwt>
<pdfrwt beam="1">  1        2 0.65029560E-01 0.70069923E+03</pdfrwt>
<pdfrwt beam="2">  1       -2 0.89909451E-01 0.70069923E+03</pdfrwt>
<totfact> 0.80206174E+01</totfact>
</mgrwt>
</event>
<event>
 4    2  0.2930016E-007  0.1130388E+04  0.7818608E-02  0.9227954E-01
          2   -1    0    0  501    0  0.00000000000E+00  0.00000000000E+00  0.39224670534E+04  0.39224670534E+04  0.25500000000E-02 0. -1.
         -2   -1    0    0    0  501 -0.00000000000E+00 -0.00000000000E+00 -0.33928842480E+03  0.33928842481E+03  0.25500000000E-02 0.  1.
    8880023    1    1    2    0    0  0.49797435895E+03  0.77200336961E+03  0.28827092708E+04  0.30964157684E+04  0.65864270000E+03 0. -1.
    8880022    1    1    2    0    0 -0.49797435895E+03 -0.77200336961E+03  0.70046935776E+03  0.11653397097E+04  0.15294330000E+03 0.  0.
<mgrwt>
<rscale>  0 0.10769503E+04</rscale>
<asrwt>0</asrwt>
<pdfrwt beam="1">  1        2 0.60345648E+00 0.11303884E+04</pdfrwt>
<pdfrwt beam="2">  1       -2 0.52198218E-01 0.11303884E+04</pdfrwt>
<totfact> 0.14073819E+00</totfact>
</mgrwt>
</event>
<event>
 4    2  0.2930016E-007  0.8080541E+03  0.7818608E-02  0.9693644E-01
          2   -1    0    0  501    0  0.00000000000E+00  0.00000000000E+00  0.10307028015E+04  0.10307028015E+04  0.25500000000E-02 0. -1.
         -2   -1    0    0    0  501 -0.00000000000E+00 -0.00000000000E+00 -0.51906842833E+03  0.51906842834E+03  0.25500000000E-02 0.  1.
    8880023    1    1    2    0    0 -0.14852648236E+03 -0.44393821674E+03  0.65132034504E+03  0.10378678405E+04  0.65864270000E+03 0. -1.
    8880022    1    1    2    0    0  0.14852648236E+03  0.44393821674E+03 -0.13968597188E+03  0.51190338932E+03  0.15294330000E+03 0.  0.
<mgrwt>
<rscale>  0 0.71396459E+03</rscale>
<asrwt>0</asrwt>
<pdfrwt beam="1">  1        2 0.15856966E+00 0.80805412E+03</pdfrwt>
<pdfrwt beam="2">  1       -2 0.79856681E-01 0.80805412E+03</pdfrwt>
<totfact> 0.33780140E+01</totfact>
</mgrwt>
</event>
<event>
 4    2  0.2930016E-007  0.8576295E+03  0.7818608E-02  0.9597794E-01
          2   -1    0    0  501    0  0.00000000000E+00  0.00000000000E+00  0.12901282349E+04  0.12901282349E+04  0.25500000000E-02 0. -1.
         -2   -1    0    0    0  501 -0.00000000000E+00 -0.00000000000E+00 -0.59488566221E+03  0.59488566221E+03  0.25500000000E-02 0.  1.
    8880023    1    1    2    0    0 -0.36421620315E+03  0.41117474682E+03  0.93296222453E+03  0.12672595763E+04  0.65864270000E+03 0. -1.
    8880022    1    1    2    0    0  0.36421620315E+03 -0.41117474682E+03 -0.23771965181E+03  0.61775432085E+03  0.15294330000E+03 0.  0.
<mgrwt>
<rscale>  0 0.77442351E+03</rscale>
<asrwt>0</asrwt>
<pdfrwt beam="1">  1        2 0.19848126E+00 0.85762948E+03</pdfrwt>
<pdfrwt beam="2">  1       -2 0.91520873E-01 0.85762948E+03</pdfrwt>
<totfact> 0.17176999E+01</totfact>
</mgrwt>
</event>
<event>
 4    2  0.2930016E-007  0.7147341E+03  0.7818608E-02  0.9940824E-01
          2   -1    0    0  501    0  0.00000000000E+00  0.00000000000E+00  0.14018510753E+04  0.14018510753E+04  0.25500000000E-02 0. -1.
         -2   -1    0    0    0  501 -0.00000000000E+00 -0.00000000000E+00 -0.37342112703E+03  0.37342112704E+03  0.25500000000E-02 0.  1.
    8880023    1    1    2    0    0 -0.27420941298E+02  0.27619317546E+03  0.12134607550E+04  0.14083081297E+04  0.65864270000E+03 0. -1.
    8880022    1    1    2    0    0  0.27420941298E+02 -0.27619317546E+03 -0.18503080665E+03  0.36696407265E+03  0.15294330000E+03 0.  0.
<mgrwt>
<rscale>  0 0.58322920E+03</rscale>
<asrwt>0</asrwt>
<pdfrwt beam="1">  1        2 0.21566939E+00 0.71473407E+03</pdfrwt>
<pdfrwt beam="2">  1       -2 0.57449405E-01 0.71473407E+03</pdfrwt>
<totfact> 0.41985483E+01</totfact>
</mgrwt>
</event>
<event>
 4    2  0.2930016E-007  0.8021016E+03  0.7818608E-02  0.9706270E-01
          2   -1    0    0  501    0  0.00000000000E+00  0.00000000000E+00  0.72477846682E+03  0.72477846682E+03  0.25500000000E-02 0. -1.
         -2   -1    0    0    0  501 -0.00000000000E+00 -0.00000000000E+00 -0.60933313241E+03  0.60933313241E+03  0.25500000000E-02 0.  1.
    8880023    1    1    2    0    0  0.41927416059E+03  0.18375504831E+03  0.23701936840E+03  0.83638814361E+03  0.65864270000E+03 0.  0.
    8880022    1    1    2    0    0 -0.41927416059E+03 -0.18375504831E+03 -0.12157403400E+03  0.49772345562E+03  0.15294330000E+03 0.  0.
<mgrwt>
<rscale>  0 0.70644685E+03</rscale>
<asrwt>0</asrwt>
<pdfrwt beam="1">  1        2 0.11150438E+00 0.80210158E+03</pdfrwt>
<pdfrwt beam="2">  1       -2 0.93743559E-01 0.80210158E+03</pdfrwt>
<totfact> 0.38029929E+01</totfact>
</mgrwt>
</event>
<event>
 4    2  0.2930016E-007  0.7013669E+03  0.7818608E-02  0.9991577E-01
         -2   -1    0    0    0  501 -0.00000000000E+00  0.00000000000E+00  0.98777227664E+03  0.98777227664E+03  0.25500000000E-02 0.  1.
          2   -1    0    0  501    0  0.00000000000E+00 -0.00000000000E+00 -0.75014756344E+03  0.75014756345E+03  0.25500000000E-02 0. -1.
    8880023    1    1    2    0    0  0.23693353847E+03  0.44360763007E+02 -0.55567791989E+03  0.89481480534E+03  0.65864270000E+03 0. -1.
    8880022    1    1    2    0    0 -0.23693353847E+03 -0.44360763007E+02  0.79330263308E+03  0.84310503475E+03  0.15294330000E+03 0.  0.
<mgrwt>
<rscale>  0 0.56021108E+03</rscale>
<asrwt>0</asrwt>
<pdfrwt beam="1">  1        2 0.11540732E+00 0.70136694E+03</pdfrwt>
<pdfrwt beam="2">  1       -2 0.15196497E+00 0.70136694E+03</pdfrwt>
<totfact> 0.11083352E+01</totfact>
</mgrwt>
</event>
<event>
 4    2  0.2930016E-007  0.1095092E+04  0.7818608E-02  0.9266541E-01
         -2   -1    0    0    0  501 -0.00000000000E+00  0.00000000000E+00  0.10191022101E+04  0.10191022101E+04  0.25500000000E-02 0.  1.
          2   -1    0    0  501    0  0.00000000000E+00 -0.00000000000E+00 -0.18315893379E+04  0.18315893379E+04  0.25500000000E-02 0. -1.
    8880023    1    1    2    0    0  0.81815403281E+03  0.30990250311E+03 -0.14062486348E+04  0.17823470515E+04  0.65864270000E+03 0.  0.
    8880022    1    1    2    0    0 -0.81815403281E+03 -0.30990250311E+03  0.59376150702E+03  0.10683444964E+04  0.15294330000E+03 0.  0.
<mgrwt>
<rscale>  0 0.10392241E+04</rscale>
<asrwt>0</asrwt>
<pdfrwt beam="1">  1        2 0.28178297E+00 0.10950917E+04</pdfrwt>
<pdfrwt beam="2">  1       -2 0.15678496E+00 0.10950917E+04</pdfrwt>
<totfact> 0.21699511E+00</totfact>
</mgrwt>
</event>
<event>
 4    2  0.2930016E-007  0.7117577E+03  0.7818608E-02  0.9951531E-01
         -2   -1    0    0    0  501 -0.00000000000E+00  0.00000000000E+00  0.41088257310E+03  0.41088257310E+03  0.25500000000E-02 0.  1.
          2   -1    0    0  501    0  0.00000000000E+00 -0.00000000000E+00 -0.96635713228E+03  0.96635713228E+03  0.25500000000E-02 0. -1.
    8880023    1    1    2    0    0  0.22856738115E+03 -0.14333786926E+03  0.32488097954E+02  0.71249875457E+03  0.65864270000E+03 0.  1.
    8880022    1    1    2    0    0 -0.22856738115E+03  0.14333786926E+03 -0.58796265714E+03  0.66474095082E+03  0.15294330000E+03 0.  0.
<mgrwt>
<rscale>  0 0.57827574E+03</rscale>
<asrwt>0</asrwt>
<pdfrwt beam="1">  1        2 0.14867033E+00 0.71175768E+03</pdfrwt>
<pdfrwt beam="2">  1       -2 0.63212704E-01 0.71175768E+03</pdfrwt>
<totfact> 0.62492271E+01</totfact>
</mgrwt>
</event>
<event>
 4    2  0.2930016E-007  0.8057361E+03  0.7818608E-02  0.9698528E-01
          2   -1    0    0  501    0  0.00000000000E+00  0.00000000000E+00  0.12656164781E+04  0.12656164781E+04  0.25500000000E-02 0. -1.
         -2   -1    0    0    0  501 -0.00000000000E+00 -0.00000000000E+00 -0.18501079356E+04  0.18501079356E+04  0.25500000000E-02 0.  1.
    8880023    1    1    2    0    0  0.36494194857E+03  0.28673650309E+03  0.10990131331E+04  0.13627327401E+04  0.65864270000E+03 0.  0.
    8880022    1    1    2    0    0 -0.36494194857E+03 -0.28673650309E+03 -0.16835045906E+04  0.17529916736E+04  0.15294330000E+03 0.  0.
<mgrwt>
<rscale>  0 0.71104504E+03</rscale>
<asrwt>0</asrwt>
<pdfrwt beam="1">  1        2 0.19471023E+00 0.80573609E+03</pdfrwt>
<pdfrwt beam="2">  1       -2 0.28463199E+00 0.80573609E+03</pdfrwt>
<totfact> 0.70729857E-01</totfact>
</mgrwt>
</event>
<event>
 4    2  0.2930016E-007  0.9426360E+03  0.7818608E-02  0.9460789E-01
          2   -1    0    0  501    0  0.00000000000E+00  0.00000000000E+00  0.28111594248E+04  0.28111594248E+04  0.25500000000E-02 0. -1.
         -2   -1    0    0    0  501 -0.00000000000E+00 -0.00000000000E+00 -0.25715481522E+03  0.25715481523E+03  0.25500000000E-02 0.  1.
    8880023    1    1    2    0    0  0.21388892664E+03  0.63953412280E+03  0.18779926818E+04  0.21012898626E+04  0.65864270000E+03 0. -1.
    8880022    1    1    2    0    0 -0.21388892664E+03 -0.63953412280E+03  0.67601192773E+03  0.96702437746E+03  0.15294330000E+03 0.  1.
<mgrwt>
<rscale>  0 0.87237427E+03</rscale>
<asrwt>0</asrwt>
<pdfrwt beam="1">  1        2 0.43248607E+00 0.94263597E+03</pdfrwt>
<pdfrwt beam="2">  1       -2 0.39562279E-01 0.94263597E+03</pdfrwt>
<totfact> 0.14116372E+01</totfact>
</mgrwt>
</event>
<event>
 4    2  0.2930016E-007  0.7903625E+03  0.7818608E-02  0.9732035E-01
          2   -1    0    0  501    0  0.00000000000E+00  0.00000000000E+00  0.78419643026E+03  0.78419643026E+03  0.25500000000E-02 0. -1.
         -2   -1    0    0    0  501 -0.00000000000E+00 -0.00000000000E+00 -0.14630973686E+04  0.14630973686E+04  0.25500000000E-02 0.  1.
    8880023    1    1    2    0    0 -0.30720911773E+03  0.31062078099E+03  0.53079879906E+03  0.95206107102E+03  0.65864270000E+03 0. -1.
    8880022    1    1    2    0    0  0.30720911773E+03 -0.31062078099E+03 -0.12096997374E+04  0.12952327279E+04  0.15294330000E+03 0.  0.
<mgrwt>
<rscale>  0 0.69141049E+03</rscale>
<asrwt>0</asrwt>
<pdfrwt beam="1">  1        2 0.12064560E+00 0.79036252E+03</pdfrwt>
<pdfrwt beam="2">  1       -2 0.22509190E+00 0.79036252E+03</pdfrwt>
<totfact> 0.33127332E+00</totfact>
</mgrwt>
</event>
<event>
 4    2  0.2930016E-007  0.1024309E+04  0.7818608E-02  0.9350423E-01
          2   -1    0    0  501    0  0.00000000000E+00  0.00000000000E+00  0.87985540412E+03  0.87985540412E+03  0.25500000000E-02 0. -1.
         -2   -1    0    0    0  501 -0.00000000000E+00 -0.00000000000E+00 -0.11214185404E+04  0.11214185404E+04  0.25500000000E-02 0.  1.
    8880023    1    1    2    0    0 -0.54856495692E+03 -0.56078055549E+03  0.26115059131E+03  0.10570752958E+04  0.65864270000E+03 0.  0.
    8880022    1    1    2    0    0  0.54856495692E+03  0.56078055549E+03 -0.50271372764E+03  0.94419864877E+03  0.15294330000E+03 0.  0.
<mgrwt>
<rscale>  0 0.96270438E+03</rscale>
<asrwt>0</asrwt>
<pdfrwt beam="1">  1        2 0.13536237E+00 0.10243088E+04</pdfrwt>
<pdfrwt beam="2">  1       -2 0.17252593E+00 0.10243088E+04</pdfrwt>
<totfact> 0.61230692E+00</totfact>
</mgrwt>
</event>
<event>
 4    2  0.2930016E-007  0.8349959E+03  0.7818608E-02  0.9639689E-01
         -2   -1    0    0    0  501 -0.00000000000E+00  0.00000000000E+00  0.27700451570E+04  0.27700451570E+04  0.25500000000E-02 0.  1.
          2   -1    0    0  501    0  0.00000000000E+00 -0.00000000000E+00 -0.57359199283E+03  0.57359199283E+03  0.25500000000E-02 0. -1.
    8880023    1    1    2    0    0  0.13549612362E+03 -0.49502391004E+03 -0.22410299722E+03  0.86454625709E+03  0.65864270000E+03 0. -1.
    8880022    1    1    2    0    0 -0.13549612362E+03  0.49502391004E+03  0.24205561614E+04  0.24790908927E+04  0.15294330000E+03 0.  0.
<mgrwt>
<rscale>  0 0.74724074E+03</rscale>
<asrwt>0</asrwt>
<pdfrwt beam="1">  1        2 0.88244922E-01 0.83499585E+03</pdfrwt>
<pdfrwt beam="2">  1       -2 0.42616079E+00 0.83499585E+03</pdfrwt>
<totfact> 0.27429759E-01</totfact>
</mgrwt>
</event>
<event>
 4    2  0.2930016E-007  0.6721020E+03  0.7818608E-02  0.1014199E+00
         -2   -1    0    0    0  501 -0.00000000000E+00  0.00000000000E+00  0.15831778853E+04  0.15831778853E+04  0.25500000000E-02 0.  1.
          2   -1    0    0  501    0  0.00000000000E+00 -0.00000000000E+00 -0.75726447950E+03  0.75726447951E+03  0.25500000000E-02 0. -1.
    8880023    1    1    2    0    0  0.60238896161E+02 -0.11950786464E+03 -0.59949468962E+03  0.90061920003E+03  0.65864270000E+03 0. -1.
    8880022    1    1    2    0    0 -0.60238896161E+02  0.11950786464E+03  0.14254080954E+04  0.14398231648E+04  0.15294330000E+03 0.  0.
<mgrwt>
<rscale>  0 0.49839472E+03</rscale>
<asrwt>0</asrwt>
<pdfrwt beam="1">  1        2 0.11650223E+00 0.67210197E+03</pdfrwt>
<pdfrwt beam="2">  1       -2 0.24356583E+00 0.67210197E+03</pdfrwt>
<totfact> 0.27189297E+00</totfact>
</mgrwt>
</event>
<event>
 4    2  0.2930016E-007  0.8940920E+03  0.7818608E-02  0.9535583E-01
         -2   -1    0    0    0  501 -0.00000000000E+00  0.00000000000E+00  0.10702503376E+04  0.10702503376E+04  0.25500000000E-02 0.  1.
          2   -1    0    0  501    0  0.00000000000E+00 -0.00000000000E+00 -0.15974159712E+04  0.15974159712E+04  0.25500000000E-02 0. -1.
    8880023    1    1    2    0    0  0.43397240051E+03  0.42102047719E+03 -0.13597634484E+04  0.16273773774E+04  0.65864270000E+03 0. -1.
    8880022    1    1    2    0    0 -0.43397240051E+03 -0.42102047719E+03  0.83259781478E+03  0.10402889314E+04  0.15294330000E+03 0.  0.
<mgrwt>
<rscale>  0 0.81710494E+03</rscale>
<asrwt>0</asrwt>
<pdfrwt beam="1">  1        2 0.24575630E+00 0.89409199E+03</pdfrwt>
<pdfrwt beam="2">  1       -2 0.16465390E+00 0.89409199E+03</pdfrwt>
<totfact> 0.26244575E+00</totfact>
</mgrwt>
</event>
<event>
 4    2  0.2930016E-007  0.8226666E+03  0.7818608E-02  0.9663773E-01
         -2   -1    0    0    0  501 -0.00000000000E+00  0.00000000000E+00  0.98298961575E+03  0.98298961575E+03  0.25500000000E-02 0.  1.
          2   -1    0    0  501    0  0.00000000000E+00 -0.00000000000E+00 -0.79229746295E+03  0.79229746295E+03  0.25500000000E-02 0. -1.
    8880023    1    1    2    0    0  0.21942584426E+03  0.44138699625E+03 -0.46175114620E+03  0.94339520291E+03  0.65864270000E+03 0.  0.
    8880022    1    1    2    0    0 -0.21942584426E+03 -0.44138699625E+03  0.65244329900E+03  0.83189187579E+03  0.15294330000E+03 0.  0.
<mgrwt>
<rscale>  0 0.73215311E+03</rscale>
<asrwt>0</asrwt>
<pdfrwt beam="1">  1        2 0.12189192E+00 0.82266663E+03</pdfrwt>
<pdfrwt beam="2">  1       -2 0.15122917E+00 0.82266663E+03</pdfrwt>
<totfact> 0.10315396E+01</totfact>
</mgrwt>
</event>
<event>
 4    2  0.2930016E-007  0.1082641E+04  0.7818608E-02  0.9280634E-01
          2   -1    0    0  501    0  0.00000000000E+00  0.00000000000E+00  0.28558212301E+04  0.28558212301E+04  0.25500000000E-02 0. -1.
         -2   -1    0    0    0  501 -0.00000000000E+00 -0.00000000000E+00 -0.92435948645E+03  0.92435948645E+03  0.25500000000E-02 0.  1.
    8880023    1    1    2    0    0 -0.60963115299E+03 -0.60551665737E+03  0.25096978380E+04  0.27332570332E+04  0.65864270000E+03 0. -1.
    8880022    1    1    2    0    0  0.60963115299E+03  0.60551665737E+03 -0.57823609434E+03  0.10469236834E+04  0.15294330000E+03 0.  0.
<mgrwt>
<rscale>  0 0.10258543E+04</rscale>
<asrwt>0</asrwt>
<pdfrwt beam="1">  1        2 0.43935712E+00 0.10826406E+04</pdfrwt>
<pdfrwt beam="2">  1       -2 0.14220915E+00 0.10826406E+04</pdfrwt>
<totfact> 0.73743642E-01</totfact>
</mgrwt>
</event>
<event>
 4    2  0.2930016E-007  0.1140222E+04  0.7818608E-02  0.9217542E-01
          2   -1    0    0  501    0  0.00000000000E+00  0.00000000000E+00  0.19475269686E+04  0.19475269686E+04  0.25500000000E-02 0. -1.
         -2   -1    0    0    0  501 -0.00000000000E+00 -0.00000000000E+00 -0.57382846655E+03  0.57382846656E+03  0.25500000000E-02 0.  1.
    8880023    1    1    2    0    0 -0.50280958748E+03 -0.78324838495E+03  0.96347213120E+03  0.14927773671E+04  0.65864270000E+03 0.  1.
    8880022    1    1    2    0    0  0.50280958748E+03  0.78324838495E+03  0.41022637086E+03  0.10285780681E+04  0.15294330000E+03 0.  0.
<mgrwt>
<rscale>  0 0.10874184E+04</rscale>
<asrwt>0</asrwt>
<pdfrwt beam="1">  1        2 0.29961953E+00 0.11402218E+04</pdfrwt>
<pdfrwt beam="2">  1       -2 0.88281304E-01 0.11402218E+04</pdfrwt>
<totfact> 0.77841520E+00</totfact>
</mgrwt>
</event>
<event>
 4    2  0.2930016E-007  0.8898764E+03  0.7818608E-02  0.9542483E-01
         -2   -1    0    0    0  501 -0.00000000000E+00  0.00000000000E+00  0.53452107321E+03  0.53452107322E+03  0.25500000000E-02 0.  1.
          2   -1    0    0  501    0  0.00000000000E+00 -0.00000000000E+00 -0.22190092636E+04  0.22190092636E+04  0.25500000000E-02 0. -1.
    8880023    1    1    2    0    0  0.43464402365E+02 -0.59680864915E+03  0.70861678214E+02  0.89269328533E+03  0.65864270000E+03 0.  0.
    8880022    1    1    2    0    0 -0.43464402365E+02  0.59680864915E+03 -0.17553498686E+04  0.18608370515E+04  0.15294330000E+03 0.  0.
<mgrwt>
<rscale>  0 0.81222915E+03</rscale>
<asrwt>0</asrwt>
<pdfrwt beam="1">  1        2 0.34138604E+00 0.88987635E+03</pdfrwt>
<pdfrwt beam="2">  1       -2 0.82234012E-01 0.88987635E+03</pdfrwt>
<totfact> 0.66726147E+00</totfact>
</mgrwt>
</event>
<event>
 4    2  0.2930016E-007  0.6728335E+03  0.7818608E-02  0.1013708E+00
         -2   -1    0    0    0  501 -0.00000000000E+00  0.00000000000E+00  0.34731526216E+03  0.34731526217E+03  0.25500000000E-02 0.  1.
          2   -1    0    0  501    0  0.00000000000E+00 -0.00000000000E+00 -0.17602608999E+04  0.17602608999E+04  0.25500000000E-02 0. -1.
    8880023    1    1    2    0    0 -0.12805112409E+03  0.49975860884E+02 -0.16570261685E+04  0.17884184651E+04  0.65864270000E+03 0. -1.
    8880022    1    1    2    0    0  0.12805112409E+03 -0.49975860884E+02  0.24408053072E+03  0.31915769698E+03  0.15294330000E+03 0.  0.
<mgrwt>
<rscale>  0 0.50027142E+03</rscale>
<asrwt>0</asrwt>
<pdfrwt beam="1">  1        2 0.27080936E+00 0.67283347E+03</pdfrwt>
<pdfrwt beam="2">  1       -2 0.53433118E-01 0.67283347E+03</pdfrwt>
<totfact> 0.31112943E+01</totfact>
</mgrwt>
</event>
<event>
 4    2  0.2930016E-007  0.7226994E+03  0.7818608E-02  0.9913556E-01
         -2   -1    0    0    0  501 -0.00000000000E+00  0.00000000000E+00  0.48207743339E+03  0.48207743340E+03  0.25500000000E-02 0.  1.
          2   -1    0    0  501    0  0.00000000000E+00 -0.00000000000E+00 -0.91870529977E+03  0.91870529978E+03  0.25500000000E-02 0. -1.
    8880023    1    1    2    0    0  0.26642450113E+03  0.13229575919E+03 -0.67591550094E+03  0.98952319497E+03  0.65864270000E+03 0. -1.
    8880022    1    1    2    0    0 -0.26642450113E+03 -0.13229575919E+03  0.23928763456E+03  0.41125953821E+03  0.15294330000E+03 0.  0.
<mgrwt>
<rscale>  0 0.59608789E+03</rscale>
<asrwt>0</asrwt>
<pdfrwt beam="1">  1        2 0.14133928E+00 0.72269938E+03</pdfrwt>
<pdfrwt beam="2">  1       -2 0.74165759E-01 0.72269938E+03</pdfrwt>
<totfact> 0.47422542E+01</totfact>
</mgrwt>
</event>
<event>
 4    2  0.2930016E-007  0.9091843E+03  0.7818608E-02  0.9511446E-01
          2   -1    0    0  501    0  0.00000000000E+00  0.00000000000E+00  0.13947155009E+04  0.13947155009E+04  0.25500000000E-02 0. -1.
         -2   -1    0    0    0  501 -0.00000000000E+00 -0.00000000000E+00 -0.44171191349E+03  0.44171191350E+03  0.25500000000E-02 0.  1.
    8880023    1    1    2    0    0 -0.57318995019E+03  0.25349391103E+03  0.42908414956E+03  0.10053503348E+04  0.65864270000E+03 0.  0.
    8880022    1    1    2    0    0  0.57318995019E+03 -0.25349391103E+03  0.52391943782E+03  0.83107707962E+03  0.15294330000E+03 0.  0.
<mgrwt>
<rscale>  0 0.83445204E+03</rscale>
<asrwt>0</asrwt>
<pdfrwt beam="1">  1        2 0.21457161E+00 0.90918430E+03</pdfrwt>
<pdfrwt beam="2">  1       -2 0.67955679E-01 0.90918430E+03</pdfrwt>
<totfact> 0.29050552E+01</totfact>
</mgrwt>
</event>
<event>
 4    2  0.2930016E-007  0.6644755E+03  0.7818608E-02  0.1019978E+00
         -2   -1    0    0    0  501 -0.00000000000E+00  0.00000000000E+00  0.41540015133E+03  0.41540015133E+03  0.25500000000E-02 0.  1.
          2   -1    0    0  501    0  0.00000000000E+00 -0.00000000000E+00 -0.58022827317E+03  0.58022827317E+03  0.25500000000E-02 0. -1.
    8880023    1    1    2    0    0 -0.36004576652E+02  0.80131740431E+02 -0.34054612817E+03  0.74665875542E+03  0.65864270000E+03 0. -1.
    8880022    1    1    2    0    0  0.36004576652E+02 -0.80131740431E+02  0.17571800633E+03  0.24896966909E+03  0.15294330000E+03 0.  0.
<mgrwt>
<rscale>  0 0.47694698E+03</rscale>
<asrwt>0</asrwt>
<pdfrwt beam="1">  1        2 0.89265887E-01 0.66447546E+03</pdfrwt>
<pdfrwt beam="2">  1       -2 0.63907716E-01 0.66447546E+03</pdfrwt>
<totfact> 0.11878884E+02</totfact>
</mgrwt>
</event>
<event>
 4    2  0.2930016E-007  0.6862471E+03  0.7818608E-02  0.1005990E+00
         -2   -1    0    0    0  501 -0.00000000000E+00  0.00000000000E+00  0.13786112161E+03  0.13786112163E+03  0.25500000000E-02 0.  1.
          2   -1    0    0  501    0  0.00000000000E+00 -0.00000000000E+00 -0.15783177310E+04  0.15783177310E+04  0.25500000000E-02 0. -1.
    8880023    1    1    2    0    0  0.17122223498E+03 -0.88361977031E+02 -0.10309795196E+04  0.12384885421E+04  0.65864270000E+03 0.  0.
    8880022    1    1    2    0    0 -0.17122223498E+03  0.88361977031E+02 -0.40947708981E+03  0.47769031059E+03  0.15294330000E+03 0.  1.
<mgrwt>
<rscale>  0 0.53100017E+03</rscale>
<asrwt>0</asrwt>
<pdfrwt beam="1">  1        2 0.24281810E+00 0.68624711E+03</pdfrwt>
<pdfrwt beam="2">  1       -2 0.21209404E-01 0.68624711E+03</pdfrwt>
<totfact> 0.22520449E+02</totfact>
</mgrwt>
</event>
<event>
 4    2  0.2930016E-007  0.1042236E+04  0.7818608E-02  0.9328273E-01
         -2   -1    0    0    0  501 -0.00000000000E+00  0.00000000000E+00  0.42379079314E+03  0.42379079315E+03  0.25500000000E-02 0.  1.
          2   -1    0    0  501    0  0.00000000000E+00 -0.00000000000E+00 -0.34515593517E+04  0.34515593517E+04  0.25500000000E-02 0. -1.
    8880023    1    1    2    0    0  0.31486235526E+03  0.74384657786E+03 -0.39061659813E+03  0.11130308024E+04  0.65864270000E+03 0.  1.
    8880022    1    1    2    0    0 -0.31486235526E+03 -0.74384657786E+03 -0.26371519604E+04  0.27623193424E+04  0.15294330000E+03 0.  0.
<mgrwt>
<rscale>  0 0.98221126E+03</rscale>
<asrwt>0</asrwt>
<pdfrwt beam="1">  1        2 0.53100911E+00 0.10422362E+04</pdfrwt>
<pdfrwt beam="2">  1       -2 0.65198586E-01 0.10422362E+04</pdfrwt>
<totfact> 0.19587003E+00</totfact>
</mgrwt>
</event>
<event>
 4    2  0.2930016E-007  0.7267207E+03  0.7818608E-02  0.9900468E-01
         -2   -1    0    0    0  501 -0.00000000000E+00  0.00000000000E+00  0.39864693050E+03  0.39864693050E+03  0.25500000000E-02 0.  1.
          2   -1    0    0  501    0  0.00000000000E+00 -0.00000000000E+00 -0.12777260098E+04  0.12777260098E+04  0.25500000000E-02 0. -1.
    8880023    1    1    2    0    0 -0.17244914917E+02  0.30661934272E+03 -0.10625633342E+04  0.12873087640E+04  0.65864270000E+03 0.  0.
    8880022    1    1    2    0    0  0.17244914917E+02 -0.30661934272E+03  0.18348425495E+03  0.38906417626E+03  0.15294330000E+03 0.  0.
<mgrwt>
<rscale>  0 0.60238587E+03</rscale>
<asrwt>0</asrwt>
<pdfrwt beam="1">  1        2 0.19657323E+00 0.72672073E+03</pdfrwt>
<pdfrwt beam="2">  1       -2 0.61330298E-01 0.72672073E+03</pdfrwt>
<totfact> 0.43019116E+01</totfact>
</mgrwt>
</event>
<event>
 4    2  0.2930016E-007  0.6710280E+03  0.7818608E-02  0.1014936E+00
          2   -1    0    0  501    0  0.00000000000E+00  0.00000000000E+00  0.14493144630E+04  0.14493144630E+04  0.25500000000E-02 0. -1.
         -2   -1    0    0    0  501 -0.00000000000E+00 -0.00000000000E+00 -0.13322855066E+03  0.13322855069E+03  0.25500000000E-02 0.  1.
    8880023    1    1    2    0    0  0.11961354632E+03  0.46485723984E+02  0.91690667588E+03  0.11362202170E+04  0.65864270000E+03 0.  0.
    8880022    1    1    2    0    0 -0.11961354632E+03 -0.46485723984E+02  0.39917923641E+03  0.44632279663E+03  0.15294330000E+03 0. -1.
<mgrwt>
<rscale>  0 0.49559007E+03</rscale>
<asrwt>0</asrwt>
<pdfrwt beam="1">  1        2 0.22297146E+00 0.67102796E+03</pdfrwt>
<pdfrwt beam="2">  1       -2 0.20496700E-01 0.67102796E+03</pdfrwt>
<totfact> 0.28227615E+02</totfact>
</mgrwt>
</event>
<event>
 4    2  0.2930016E-007  0.7889631E+03  0.7818608E-02  0.9735189E-01
         -2   -1    0    0    0  501 -0.00000000000E+00  0.00000000000E+00  0.23131759169E+03  0.23131759171E+03  0.25500000000E-02 0.  1.
          2   -1    0    0  501    0  0.00000000000E+00 -0.00000000000E+00 -0.33010879313E+04  0.33010879313E+04  0.25500000000E-02 0. -1.
    8880023    1    1    2    0    0 -0.93822342560E+02  0.42408712746E+03 -0.29540670341E+04  0.30576093229E+04  0.65864270000E+03 0.  0.
    8880022    1    1    2    0    0  0.93822342560E+02 -0.42408712746E+03 -0.11570330549E+03  0.47479620002E+03  0.15294330000E+03 0.  0.
<mgrwt>
<rscale>  0 0.68959769E+03</rscale>
<asrwt>0</asrwt>
<pdfrwt beam="1">  1        2 0.50785965E+00 0.78896307E+03</pdfrwt>
<pdfrwt beam="2">  1       -2 0.35587324E-01 0.78896307E+03</pdfrwt>
<totfact> 0.87942366E+00</totfact>
</mgrwt>
</event>
<event>
 4    2  0.2930016E-007  0.6718114E+03  0.7818608E-02  0.1014396E+00
         -2   -1    0    0    0  501 -0.00000000000E+00  0.00000000000E+00  0.16837610658E+03  0.16837610660E+03  0.25500000000E-02 0.  1.
          2   -1    0    0  501    0  0.00000000000E+00 -0.00000000000E+00 -0.24839685103E+04  0.24839685103E+04  0.25500000000E-02 0. -1.
    8880023    1    1    2    0    0  0.39525683780E+02  0.12632500509E+03 -0.23526682476E+04  0.24467076606E+04  0.65864270000E+03 0. -1.
    8880022    1    1    2    0    0 -0.39525683780E+02 -0.12632500509E+03  0.37075843925E+02  0.20563695632E+03  0.15294330000E+03 0.  0.
<mgrwt>
<rscale>  0 0.49764170E+03</rscale>
<asrwt>0</asrwt>
<pdfrwt beam="1">  1        2 0.38214898E+00 0.67181135E+03</pdfrwt>
<pdfrwt beam="2">  1       -2 0.25904018E-01 0.67181135E+03</pdfrwt>
<totfact> 0.50271154E+01</totfact>
</mgrwt>
</event>
<event>
 4    2  0.2930016E-007  0.7627019E+03  0.7818608E-02  0.9798162E-01
         -2   -1    0    0    0  501 -0.00000000000E+00  0.00000000000E+00  0.36600459879E+03  0.36600459880E+03  0.25500000000E-02 0.  1.
          2   -1    0    0  501    0  0.00000000000E+00 -0.00000000000E+00 -0.18331584016E+04  0.18331584016E+04  0.25500000000E-02 0. -1.
    8880023    1    1    2    0    0 -0.35519735922E+03 -0.14744071978E+03 -0.15933373749E+04  0.17664761890E+04  0.65864270000E+03 0. -1.
    8880022    1    1    2    0    0  0.35519735922E+03  0.14744071978E+03  0.12618357211E+03  0.43268681137E+03  0.15294330000E+03 0.  0.
<mgrwt>
<rscale>  0 0.65461263E+03</rscale>
<asrwt>0</asrwt>
<pdfrwt beam="1">  1        2 0.28202436E+00 0.76270187E+03</pdfrwt>
<pdfrwt beam="2">  1       -2 0.56308401E-01 0.76270187E+03</pdfrwt>
<totfact> 0.25172264E+01</totfact>
</mgrwt>
</event>
<event>
 4    2  0.2930016E-007  0.6899937E+03  0.7818608E-02  0.1004156E+00
         -2   -1    0    0    0  501 -0.00000000000E+00  0.00000000000E+00  0.47368494968E+03  0.47368494968E+03  0.25500000000E-02 0.  1.
          2   -1    0    0  501    0  0.00000000000E+00 -0.00000000000E+00 -0.59755388183E+03  0.59755388184E+03  0.25500000000E-02 0. -1.
    8880023    1    1    2    0    0 -0.19695222835E+03 -0.59083950604E+02  0.13929470658E+03  0.70391357070E+03  0.65864270000E+03 0.  0.
    8880022    1    1    2    0    0  0.19695222835E+03  0.59083950604E+02 -0.26316363874E+03  0.36732526082E+03  0.15294330000E+03 0.  0.
<mgrwt>
<rscale>  0 0.53865040E+03</rscale>
<asrwt>0</asrwt>
<pdfrwt beam="1">  1        2 0.91931367E-01 0.68999370E+03</pdfrwt>
<pdfrwt beam="2">  1       -2 0.72874607E-01 0.68999370E+03</pdfrwt>
<totfact> 0.86129648E+01</totfact>
</mgrwt>
</event>
<event>
 4    2  0.2930016E-007  0.9653283E+03  0.7818608E-02  0.9428395E-01
         -2   -1    0    0    0  501 -0.00000000000E+00  0.00000000000E+00  0.26120975987E+03  0.26120975988E+03  0.25500000000E-02 0.  1.
          2   -1    0    0  501    0  0.00000000000E+00 -0.00000000000E+00 -0.28623330844E+04  0.28623330844E+04  0.25500000000E-02 0. -1.
    8880023    1    1    2    0    0  0.32060626536E+03 -0.62869714607E+03 -0.18174332405E+04  0.20578926767E+04  0.65864270000E+03 0.  1.
    8880022    1    1    2    0    0 -0.32060626536E+03  0.62869714607E+03 -0.78369008403E+03  0.10656501676E+04  0.15294330000E+03 0. -1.
<mgrwt>
<rscale>  0 0.89775292E+03</rscale>
<asrwt>0</asrwt>
<pdfrwt beam="1">  1        2 0.44035892E+00 0.96532828E+03</pdfrwt>
<pdfrwt beam="2">  1       -2 0.40186119E-01 0.96532828E+03</pdfrwt>
<totfact> 0.12720338E+01</totfact>
</mgrwt>
</event>
<event>
 4    2  0.2930016E-007  0.7732063E+03  0.7818608E-02  0.9772045E-01
          2   -1    0    0  501    0  0.00000000000E+00  0.00000000000E+00  0.13435979101E+04  0.13435979101E+04  0.25500000000E-02 0. -1.
         -2   -1    0    0    0  501 -0.00000000000E+00 -0.00000000000E+00 -0.28742920765E+03  0.28742920766E+03  0.25500000000E-02 0.  1.
    8880023    1    1    2    0    0  0.22790771972E+03 -0.33480707387E+03  0.85770075854E+03  0.11547720567E+04  0.65864270000E+03 0.  0.
    8880022    1    1    2    0    0 -0.22790771972E+03  0.33480707387E+03  0.19846794389E+03  0.47625506106E+03  0.15294330000E+03 0.  0.
<mgrwt>
<rscale>  0 0.66884613E+03</rscale>
<asrwt>0</asrwt>
<pdfrwt beam="1">  1        2 0.20670737E+00 0.77320625E+03</pdfrwt>
<pdfrwt beam="2">  1       -2 0.44219878E-01 0.77320625E+03</pdfrwt>
<totfact> 0.76819847E+01</totfact>
</mgrwt>
</event>
<event>
 4    2  0.3056795E-007  0.7304071E+03  0.7818608E-02  0.9888827E-01
         -2   -1    0    0    0  501 -0.00000000000E+00  0.00000000000E+00  0.63285741914E+03  0.63285741915E+03  0.25500000000E-02 0.  1.
          2   -1    0    0  501    0  0.00000000000E+00 -0.00000000000E+00 -0.21159758561E+04  0.21159758561E+04  0.25500000000E-02 0. -1.
    8880023    1    1    2    0    0  0.27329418221E+03 -0.15809703611E+03 -0.19971339878E+04  0.21265085832E+04  0.65864270000E+03 0. -1.
    8880022    1    1    2    0    0 -0.27329418221E+03  0.15809703611E+03  0.51401555083E+03  0.62232469208E+03  0.15294330000E+03 0.  0.
<mgrwt>
<rscale>  0 0.60805861E+03</rscale>
<asrwt>0</asrwt>
<pdfrwt beam="1">  1        2 0.32553474E+00 0.73040714E+03</pdfrwt>
<pdfrwt beam="2">  1       -2 0.97362681E-01 0.73040714E+03</pdfrwt>
<totfact> 0.52790826E+00</totfact>
</mgrwt>
</event>
<event>
 4    2  0.2930016E-007  0.9197483E+03  0.7818608E-02  0.9495045E-01
         -2   -1    0    0    0  501 -0.00000000000E+00  0.00000000000E+00  0.35570938815E+03  0.35570938816E+03  0.25500000000E-02 0.  1.
          2   -1    0    0  501    0  0.00000000000E+00 -0.00000000000E+00 -0.22455918656E+04  0.22455918656E+04  0.25500000000E-02 0. -1.
    8880023    1    1    2    0    0  0.51465614075E+03 -0.38373933300E+03 -0.16685165509E+04  0.19052255787E+04  0.65864270000E+03 0.  0.
    8880022    1    1    2    0    0 -0.51465614075E+03  0.38373933300E+03 -0.22136592652E+03  0.69607567501E+03  0.15294330000E+03 0.  0.
<mgrwt>
<rscale>  0 0.84650121E+03</rscale>
<asrwt>0</asrwt>
<pdfrwt beam="1">  1        2 0.34547566E+00 0.91974835E+03</pdfrwt>
<pdfrwt beam="2">  1       -2 0.54724522E-01 0.91974835E+03</pdfrwt>
<totfact> 0.15549185E+01</totfact>
</mgrwt>
</event>
<event>
 4    2  0.2930016E-007  0.1034367E+04  0.7818608E-02  0.9337914E-01
          2   -1    0    0  501    0  0.00000000000E+00  0.00000000000E+00  0.11095714572E+04  0.11095714572E+04  0.25500000000E-02 0. -1.
         -2   -1    0    0    0  501 -0.00000000000E+00 -0.00000000000E+00 -0.98232401872E+03  0.98232401872E+03  0.25500000000E-02 0.  1.
    8880023    1    1    2    0    0 -0.56994321323E+03 -0.55791634436E+03  0.55518803561E+03  0.11739462827E+04  0.65864270000E+03 0.  0.
    8880022    1    1    2    0    0  0.56994321323E+03  0.55791634436E+03 -0.42794059711E+03  0.91794919319E+03  0.15294330000E+03 0.  0.
<mgrwt>
<rscale>  0 0.97366105E+03</rscale>
<asrwt>0</asrwt>
<pdfrwt beam="1">  1        2 0.17070330E+00 0.10343675E+04</pdfrwt>
<pdfrwt beam="2">  1       -2 0.15112677E+00 0.10343675E+04</pdfrwt>
<totfact> 0.62362593E+00</totfact>
</mgrwt>
</event>
<event>
 4    2  0.2930016E-007  0.9735010E+03  0.7818608E-02  0.9417078E-01
         -2   -1    0    0    0  501 -0.00000000000E+00  0.00000000000E+00  0.28925709391E+03  0.28925709392E+03  0.25500000000E-02 0.  1.
          2   -1    0    0  501    0  0.00000000000E+00 -0.00000000000E+00 -0.25267342085E+04  0.25267342085E+04  0.25500000000E-02 0. -1.
    8880023    1    1    2    0    0  0.15014690938E+03 -0.70096361294E+03 -0.13627085251E+04  0.16747175319E+04  0.65864270000E+03 0.  1.
    8880022    1    1    2    0    0 -0.15014690938E+03  0.70096361294E+03 -0.87476858952E+03  0.11412737705E+04  0.15294330000E+03 0. -1.
<mgrwt>
<rscale>  0 0.90683439E+03</rscale>
<asrwt>0</asrwt>
<pdfrwt beam="1">  1        2 0.38872832E+00 0.97350105E+03</pdfrwt>
<pdfrwt beam="2">  1       -2 0.44501093E-01 0.97350105E+03</pdfrwt>
<totfact> 0.16340018E+01</totfact>
</mgrwt>
</event>
<event>
 4    2  0.2930016E-007  0.8688009E+03  0.7818608E-02  0.9578096E-01
          2   -1    0    0  501    0  0.00000000000E+00  0.00000000000E+00  0.17601832176E+04  0.17601832176E+04  0.25500000000E-02 0. -1.
         -2   -1    0    0    0  501 -0.00000000000E+00 -0.00000000000E+00 -0.78562573382E+03  0.78562573383E+03  0.25500000000E-02 0.  1.
    8880023    1    1    2    0    0 -0.52550519798E+03 -0.21177614672E+03  0.15160217760E+04  0.17473228325E+04  0.65864270000E+03 0. -1.
    8880022    1    1    2    0    0  0.52550519798E+03  0.21177614672E+03 -0.54146429219E+03  0.79848611895E+03  0.15294330000E+03 0.  0.
<mgrwt>
<rscale>  0 0.78763054E+03</rscale>
<asrwt>0</asrwt>
<pdfrwt beam="1">  1        2 0.27079742E+00 0.86880093E+03</pdfrwt>
<pdfrwt beam="2">  1       -2 0.12086550E+00 0.86880093E+03</pdfrwt>
<totfact> 0.47962325E+00</totfact>
</mgrwt>
</event>
<event>
 4    2  0.2930016E-007  0.6796974E+03  0.7818608E-02  0.1009495E+00
          2   -1    0    0  501    0  0.00000000000E+00  0.00000000000E+00  0.28889828037E+04  0.28889828037E+04  0.25500000000E-02 0. -1.
         -2   -1    0    0    0  501 -0.00000000000E+00 -0.00000000000E+00 -0.16941786807E+03  0.16941786809E+03  0.25500000000E-02 0.  1.
    8880023    1    1    2    0    0 -0.15700019111E+03 -0.59407899079E+02  0.27468335993E+04  0.28296790255E+04  0.65864270000E+03 0. -1.
    8880022    1    1    2    0    0  0.15700019111E+03  0.59407899079E+02 -0.27268663661E+02  0.22872164636E+03  0.15294330000E+03 0.  0.
<mgrwt>
<rscale>  0 0.51675699E+03</rscale>
<asrwt>0</asrwt>
<pdfrwt beam="1">  1        2 0.44445887E+00 0.67969741E+03</pdfrwt>
<pdfrwt beam="2">  1       -2 0.26064289E-01 0.67969741E+03</pdfrwt>
<totfact> 0.28913071E+01</totfact>
</mgrwt>
</event>
<event>
 4    2  0.2930016E-007  0.7323485E+03  0.7818608E-02  0.9882823E-01
         -2   -1    0    0    0  501 -0.00000000000E+00  0.00000000000E+00  0.97406600242E+03  0.97406600243E+03  0.25500000000E-02 0.  1.
          2   -1    0    0  501    0  0.00000000000E+00 -0.00000000000E+00 -0.66220645659E+03  0.66220645659E+03  0.25500000000E-02 0. -1.
    8880023    1    1    2    0    0 -0.23275543360E+03  0.21988406019E+03 -0.40465263477E+03  0.83670667075E+03  0.65864270000E+03 0.  0.
    8880022    1    1    2    0    0  0.23275543360E+03 -0.21988406019E+03  0.71651218060E+03  0.79956578827E+03  0.15294330000E+03 0.  0.
<mgrwt>
<rscale>  0 0.61101004E+03</rscale>
<asrwt>0</asrwt>
<pdfrwt beam="1">  1        2 0.10187792E+00 0.73234848E+03</pdfrwt>
<pdfrwt beam="2">  1       -2 0.14985631E+00 0.73234848E+03</pdfrwt>
<totfact> 0.13418361E+01</totfact>
</mgrwt>
</event>
<event>
 4    2  0.2930016E-007  0.1012399E+04  0.7818608E-02  0.9365512E-01
          2   -1    0    0  501    0  0.00000000000E+00  0.00000000000E+00  0.15026273080E+04  0.15026273080E+04  0.25500000000E-02 0. -1.
         -2   -1    0    0    0  501 -0.00000000000E+00 -0.00000000000E+00 -0.76889447590E+03  0.76889447590E+03  0.25500000000E-02 0.  1.
    8880023    1    1    2    0    0  0.72880391931E+03 -0.24492228938E+03  0.10198414299E+04  0.14370208172E+04  0.65864270000E+03 0.  0.
    8880022    1    1    2    0    0 -0.72880391931E+03  0.24492228938E+03 -0.28610859783E+03  0.83450096669E+03  0.15294330000E+03 0.  0.
<mgrwt>
<rscale>  0 0.94969048E+03</rscale>
<asrwt>0</asrwt>
<pdfrwt beam="1">  1        2 0.23117343E+00 0.10123993E+04</pdfrwt>
<pdfrwt beam="2">  1       -2 0.11829146E+00 0.10123993E+04</pdfrwt>
<totfact> 0.69110287E+00</totfact>
</mgrwt>
</event>
<event>
 4    2  0.2930016E-007  0.7508874E+03  0.7818608E-02  0.9829297E-01
         -2   -1    0    0    0  501 -0.00000000000E+00  0.00000000000E+00  0.14825722694E+03  0.14825722696E+03  0.25500000000E-02 0.  1.
          2   -1    0    0  501    0  0.00000000000E+00 -0.00000000000E+00 -0.26656561472E+04  0.26656561472E+04  0.25500000000E-02 0. -1.
    8880023    1    1    2    0    0 -0.31665285104E+03  0.17248973652E+03 -0.21482119743E+04  0.22756639976E+04  0.65864270000E+03 0.  1.
    8880022    1    1    2    0    0  0.31665285104E+03 -0.17248973652E+03 -0.36918694597E+03  0.53824937655E+03  0.15294330000E+03 0.  0.
<mgrwt>
<rscale>  0 0.63813716E+03</rscale>
<asrwt>0</asrwt>
<pdfrwt beam="1">  1        2 0.41010091E+00 0.75088744E+03</pdfrwt>
<pdfrwt beam="2">  1       -2 0.22808806E-01 0.75088744E+03</pdfrwt>
<totfact> 0.49183271E+01</totfact>
</mgrwt>
</event>
<event>
 4    2  0.2930016E-007  0.6816485E+03  0.7818608E-02  0.1008406E+00
         -2   -1    0    0    0  501 -0.00000000000E+00  0.00000000000E+00  0.36292566713E+03  0.36292566714E+03  0.25500000000E-02 0.  1.
          2   -1    0    0  501    0  0.00000000000E+00 -0.00000000000E+00 -0.11691510883E+04  0.11691510883E+04  0.25500000000E-02 0. -1.
    8880023    1    1    2    0    0 -0.49137416898E+02 -0.16858244376E+03 -0.10127781856E+04  0.12208048106E+04  0.65864270000E+03 0. -1.
    8880022    1    1    2    0    0  0.49137416898E+02  0.16858244376E+03  0.20655276449E+03  0.31127194480E+03  0.15294330000E+03 0.  0.
<mgrwt>
<rscale>  0 0.52113052E+03</rscale>
<asrwt>0</asrwt>
<pdfrwt beam="1">  1        2 0.17986940E+00 0.68164854E+03</pdfrwt>
<pdfrwt beam="2">  1       -2 0.55834719E-01 0.68164854E+03</pdfrwt>
<totfact> 0.60946912E+01</totfact>
</mgrwt>
</event>
<event>
 4    2  0.2930016E-007  0.7559519E+03  0.7818608E-02  0.9815703E-01
          2   -1    0    0  501    0  0.00000000000E+00  0.00000000000E+00  0.33492301889E+03  0.33492301890E+03  0.25500000000E-02 0. -1.
         -2   -1    0    0    0  501 -0.00000000000E+00 -0.00000000000E+00 -0.16353679513E+04  0.16353679513E+04  0.25500000000E-02 0.  1.
    8880023    1    1    2    0    0 -0.35984405014E+03 -0.90362107900E+02 -0.17570450479E+03  0.77610265444E+03  0.65864270000E+03 0. -1.
    8880022    1    1    2    0    0  0.35984405014E+03  0.90362107900E+02 -0.11247404276E+04  0.11941883158E+04  0.15294330000E+03 0.  0.
<mgrwt>
<rscale>  0 0.64526621E+03</rscale>
<asrwt>0</asrwt>
<pdfrwt beam="1">  1        2 0.51526619E-01 0.75595189E+03</pdfrwt>
<pdfrwt beam="2">  1       -2 0.25159506E+00 0.75595189E+03</pdfrwt>
<totfact> 0.62659899E+00</totfact>
</mgrwt>
</event>
<event>
 4    2  0.2930016E-007  0.6719423E+03  0.7818608E-02  0.1014307E+00
         -2   -1    0    0    0  501 -0.00000000000E+00  0.00000000000E+00  0.30663023259E+03  0.30663023260E+03  0.25500000000E-02 0.  1.
          2   -1    0    0  501    0  0.00000000000E+00 -0.00000000000E+00 -0.10607756167E+04  0.10607756167E+04  0.25500000000E-02 0. -1.
    8880023    1    1    2    0    0 -0.11466414491E+03  0.67441749652E+02 -0.89602375235E+03  0.11199843868E+04  0.65864270000E+03 0.  0.
    8880022    1    1    2    0    0  0.11466414491E+03 -0.67441749652E+02  0.14187836820E+03  0.24742146250E+03  0.15294330000E+03 0.  0.
<mgrwt>
<rscale>  0 0.49798154E+03</rscale>
<asrwt>0</asrwt>
<pdfrwt beam="1">  1        2 0.16319625E+00 0.67194231E+03</pdfrwt>
<pdfrwt beam="2">  1       -2 0.47173882E-01 0.67194231E+03</pdfrwt>
<totfact> 0.10015291E+02</totfact>
</mgrwt>
</event>
<event>
 4    2  0.2930016E-007  0.7630257E+03  0.7818608E-02  0.9797336E-01
         -2   -1    0    0    0  501 -0.00000000000E+00  0.00000000000E+00  0.31197620221E+03  0.31197620222E+03  0.25500000000E-02 0.  1.
          2   -1    0    0  501    0  0.00000000000E+00 -0.00000000000E+00 -0.18941983488E+04  0.18941983488E+04  0.25500000000E-02 0. -1.
    8880023    1    1    2    0    0  0.38433495447E+03 -0.26164723312E+02 -0.16192769546E+04  0.17900463715E+04  0.65864270000E+03 0. -1.
    8880022    1    1    2    0    0 -0.38433495447E+03  0.26164723312E+02  0.37054808064E+02  0.41612817951E+03  0.15294330000E+03 0.  0.
<mgrwt>
<rscale>  0 0.65505681E+03</rscale>
<asrwt>0</asrwt>
<pdfrwt beam="1">  1        2 0.29141512E+00 0.76302566E+03</pdfrwt>
<pdfrwt beam="2">  1       -2 0.47996340E-01 0.76302566E+03</pdfrwt>
<totfact> 0.32357790E+01</totfact>
</mgrwt>
</event>
<event>
 4    2  0.2930016E-007  0.8836270E+03  0.7818608E-02  0.9552844E-01
         -2   -1    0    0    0  501 -0.00000000000E+00  0.00000000000E+00  0.18179285056E+03  0.18179285058E+03  0.25500000000E-02 0.  1.
          2   -1    0    0  501    0  0.00000000000E+00 -0.00000000000E+00 -0.32477371594E+04  0.32477371594E+04  0.25500000000E-02 0. -1.
    8880023    1    1    2    0    0  0.35487816757E+03 -0.47015737004E+03 -0.22026771212E+04  0.23733063800E+04  0.65864270000E+03 0.  1.
    8880022    1    1    2    0    0 -0.35487816757E+03  0.47015737004E+03 -0.86326718756E+03  0.10562236300E+04  0.15294330000E+03 0.  0.
<mgrwt>
<rscale>  0 0.80497501E+03</rscale>
<asrwt>0</asrwt>
<pdfrwt beam="1">  1        2 0.49965183E+00 0.88362700E+03</pdfrwt>
<pdfrwt beam="2">  1       -2 0.27968133E-01 0.88362700E+03</pdfrwt>
<totfact> 0.14731592E+01</totfact>
</mgrwt>
</event>
<event>
 4    2  0.2930016E-007  0.1242011E+04  0.7818608E-02  0.9117328E-01
         -2   -1    0    0    0  501 -0.00000000000E+00  0.00000000000E+00  0.17854011009E+04  0.17854011009E+04  0.25500000000E-02 0.  1.
          2   -1    0    0  501    0  0.00000000000E+00 -0.00000000000E+00 -0.14309622423E+04  0.14309622423E+04  0.25500000000E-02 0. -1.
    8880023    1    1    2    0    0  0.85574252772E+03  0.61358426915E+03 -0.92768725610E+03  0.15502241065E+04  0.65864270000E+03 0. -1.
    8880022    1    1    2    0    0 -0.85574252772E+03 -0.61358426915E+03  0.12821261147E+04  0.16661392367E+04  0.15294330000E+03 0.  0.
<mgrwt>
<rscale>  0 0.11949043E+04</rscale>
<asrwt>0</asrwt>
<pdfrwt beam="1">  1        2 0.22014804E+00 0.12420109E+04</pdfrwt>
<pdfrwt beam="2">  1       -2 0.27467709E+00 0.12420109E+04</pdfrwt>
<totfact> 0.61056901E-01</totfact>
</mgrwt>
</event>
<event>
 4    2  0.2930016E-007  0.1468513E+04  0.7818608E-02  0.8932196E-01
         -2   -1    0    0    0  501 -0.00000000000E+00  0.00000000000E+00  0.11845214085E+04  0.11845214085E+04  0.25500000000E-02 0.  1.
          2   -1    0    0  501    0  0.00000000000E+00 -0.00000000000E+00 -0.19760371714E+04  0.19760371714E+04  0.25500000000E-02 0. -1.
    8880023    1    1    2    0    0 -0.62412659656E+03 -0.11546369316E+04  0.23511286382E+03  0.14872150878E+04  0.65864270000E+03 0.  0.
    8880022    1    1    2    0    0  0.62412659656E+03  0.11546369316E+04 -0.10266286267E+04  0.16733434921E+04  0.15294330000E+03 0.  0.
<mgrwt>
<rscale>  0 0.14302679E+04</rscale>
<asrwt>0</asrwt>
<pdfrwt beam="1">  1        2 0.30400572E+00 0.14685131E+04</pdfrwt>
<pdfrwt beam="2">  1       -2 0.18223406E+00 0.14685131E+04</pdfrwt>
<totfact> 0.11379507E+00</totfact>
</mgrwt>
</event>
<event>
 4    2  0.2930016E-007  0.1212835E+04  0.7818608E-02  0.9144746E-01
         -2   -1    0    0    0  501 -0.00000000000E+00  0.00000000000E+00  0.10716939143E+04  0.10716939143E+04  0.25500000000E-02 0.  1.
          2   -1    0    0  501    0  0.00000000000E+00 -0.00000000000E+00 -0.16927661130E+04  0.16927661130E+04  0.25500000000E-02 0. -1.
    8880023    1    1    2    0    0  0.60846798892E+02 -0.10165898896E+04 -0.10920563586E+04  0.16320400219E+04  0.65864270000E+03 0.  0.
    8880022    1    1    2    0    0 -0.60846798892E+02  0.10165898896E+04  0.47098415995E+03  0.11324200054E+04  0.15294330000E+03 0.  0.
<mgrwt>
<rscale>  0 0.11642400E+04</rscale>
<asrwt>0</asrwt>
<pdfrwt beam="1">  1        2 0.26042556E+00 0.12128345E+04</pdfrwt>
<pdfrwt beam="2">  1       -2 0.16487599E+00 0.12128345E+04</pdfrwt>
<totfact> 0.22271234E+00</totfact>
</mgrwt>
</event>
<event>
 4    2  0.2930016E-007  0.7505679E+03  0.7818608E-02  0.9830168E-01
          2   -1    0    0  501    0  0.00000000000E+00  0.00000000000E+00  0.49477212423E+03  0.49477212424E+03  0.25500000000E-02 0. -1.
         -2   -1    0    0    0  501 -0.00000000000E+00 -0.00000000000E+00 -0.12034203824E+04  0.12034203824E+04  0.25500000000E-02 0.  1.
    8880023    1    1    2    0    0  0.82420886449E+02  0.35035509848E+03  0.14023932398E+03  0.76355692113E+03  0.65864270000E+03 0.  0.
    8880022    1    1    2    0    0 -0.82420886449E+02 -0.35035509848E+03 -0.84888758219E+03  0.93463558554E+03  0.15294330000E+03 0.  0.
<mgrwt>
<rscale>  0 0.63768370E+03</rscale>
<asrwt>0</asrwt>
<pdfrwt beam="1">  1        2 0.76118789E-01 0.75056785E+03</pdfrwt>
<pdfrwt beam="2">  1       -2 0.18514160E+00 0.75056785E+03</pdfrwt>
<totfact> 0.10600211E+01</totfact>
</mgrwt>
</event>
<event>
 4    2  0.2930016E-007  0.9898359E+03  0.7818608E-02  0.9394978E-01
         -2   -1    0    0    0  501 -0.00000000000E+00  0.00000000000E+00  0.64368798238E+03  0.64368798239E+03  0.25500000000E-02 0.  1.
          2   -1    0    0  501    0  0.00000000000E+00 -0.00000000000E+00 -0.26043838104E+04  0.26043838104E+04  0.25500000000E-02 0. -1.
    8880023    1    1    2    0    0 -0.22032070937E+03  0.70528275803E+03 -0.22356534286E+04  0.24449788226E+04  0.65864270000E+03 0. -1.
    8880022    1    1    2    0    0  0.22032070937E+03 -0.70528275803E+03  0.27495760055E+03  0.80309297025E+03  0.15294330000E+03 0.  0.
<mgrwt>
<rscale>  0 0.92490146E+03</rscale>
<asrwt>0</asrwt>
<pdfrwt beam="1">  1        2 0.40067442E+00 0.98983594E+03</pdfrwt>
<pdfrwt beam="2">  1       -2 0.99028922E-01 0.98983594E+03</pdfrwt>
<totfact> 0.25885253E+00</totfact>
</mgrwt>
</event>
<event>
 4    2  0.2930016E-007  0.1026292E+04  0.7818608E-02  0.9347941E-01
          2   -1    0    0  501    0  0.00000000000E+00  0.00000000000E+00  0.30987321040E+03  0.30987321041E+03  0.25500000000E-02 0. -1.
         -2   -1    0    0    0  501 -0.00000000000E+00 -0.00000000000E+00 -0.34441303243E+04  0.34441303243E+04  0.25500000000E-02 0.  1.
    8880023    1    1    2    0    0 -0.39357837540E+03  0.68158660320E+03 -0.84824848664E+03  0.13314653344E+04  0.65864270000E+03 0.  0.
    8880022    1    1    2    0    0  0.39357837540E+03 -0.68158660320E+03 -0.22860086273E+04  0.24225382004E+04  0.15294330000E+03 0.  0.
<mgrwt>
<rscale>  0 0.96486662E+03</rscale>
<asrwt>0</asrwt>
<pdfrwt beam="1">  1        2 0.47672804E-01 0.10262916E+04</pdfrwt>
<pdfrwt beam="2">  1       -2 0.52986618E+00 0.10262916E+04</pdfrwt>
<totfact> 0.11633648E-01</totfact>
</mgrwt>
</event>
<event>
 4    2  0.2930016E-007  0.7084983E+03  0.7818608E-02  0.9963620E-01
         -2   -1    0    0    0  501 -0.00000000000E+00  0.00000000000E+00  0.41796910952E+03  0.41796910952E+03  0.25500000000E-02 0.  1.
          2   -1    0    0  501    0  0.00000000000E+00 -0.00000000000E+00 -0.14178014827E+04  0.14178014827E+04  0.25500000000E-02 0. -1.
    8880023    1    1    2    0    0 -0.23909306553E+03  0.10485308647E+03 -0.12541992540E+04  0.14404810442E+04  0.65864270000E+03 0. -1.
    8880022    1    1    2    0    0  0.23909306553E+03 -0.10485308647E+03  0.25436688080E+03  0.39528954804E+03  0.15294330000E+03 0.  0.
<mgrwt>
<rscale>  0 0.57274617E+03</rscale>
<asrwt>0</asrwt>
<pdfrwt beam="1">  1        2 0.21812330E+00 0.70849832E+03</pdfrwt>
<pdfrwt beam="2">  1       -2 0.64302941E-01 0.70849832E+03</pdfrwt>
<totfact> 0.32422709E+01</totfact>
</mgrwt>
</event>
<event>
 4    2  0.2930016E-007  0.9106429E+03  0.7818608E-02  0.9509158E-01
          2   -1    0    0  501    0  0.00000000000E+00  0.00000000000E+00  0.50390747387E+03  0.50390747388E+03  0.25500000000E-02 0. -1.
         -2   -1    0    0    0  501 -0.00000000000E+00 -0.00000000000E+00 -0.13087440960E+04  0.13087440960E+04  0.25500000000E-02 0.  1.
    8880023    1    1    2    0    0 -0.10563654921E+03  0.61992038470E+03 -0.21203200695E+03  0.93500168028E+03  0.65864270000E+03 0.  0.
    8880022    1    1    2    0    0  0.10563654921E+03 -0.61992038470E+03 -0.59280461514E+03  0.87764988956E+03  0.15294330000E+03 0.  0.
<mgrwt>
<rscale>  0 0.83612011E+03</rscale>
<asrwt>0</asrwt>
<pdfrwt beam="1">  1        2 0.77524227E-01 0.91064294E+03</pdfrwt>
<pdfrwt beam="2">  1       -2 0.20134524E+00 0.91064294E+03</pdfrwt>
<totfact> 0.79784179E+00</totfact>
</mgrwt>
</event>
<event>
 4    2  0.2930016E-007  0.7285772E+03  0.7818608E-02  0.9894565E-01
         -2   -1    0    0    0  501 -0.00000000000E+00  0.00000000000E+00  0.33387242308E+03  0.33387242309E+03  0.25500000000E-02 0.  1.
          2   -1    0    0  501    0  0.00000000000E+00 -0.00000000000E+00 -0.96040417860E+03  0.96040417860E+03  0.25500000000E-02 0. -1.
    8880023    1    1    2    0    0  0.31061923792E+03  0.23025113352E+02 -0.60429105133E+03  0.94656872323E+03  0.65864270000E+03 0.  0.
    8880022    1    1    2    0    0 -0.31061923792E+03 -0.23025113352E+02 -0.22240704181E+02  0.34770787846E+03  0.15294330000E+03 0. -1.
<mgrwt>
<rscale>  0 0.60525409E+03</rscale>
<asrwt>0</asrwt>
<pdfrwt beam="1">  1        2 0.14775449E+00 0.72857716E+03</pdfrwt>
<pdfrwt beam="2">  1       -2 0.51364988E-01 0.72857716E+03</pdfrwt>
<totfact> 0.97140160E+01</totfact>
</mgrwt>
</event>
<event>
 4    2  0.2930016E-007  0.7071024E+03  0.7818608E-02  0.9968923E-01
         -2   -1    0    0    0  501 -0.00000000000E+00  0.00000000000E+00  0.82997065027E+03  0.82997065027E+03  0.25500000000E-02 0.  1.
          2   -1    0    0  501    0  0.00000000000E+00 -0.00000000000E+00 -0.30037042289E+04  0.30037042289E+04  0.25500000000E-02 0. -1.
    8880023    1    1    2    0    0  0.10752690990E+03 -0.23371249430E+03 -0.29332719237E+04  0.30172964639E+04  0.65864270000E+03 0.  0.
    8880022    1    1    2    0    0 -0.10752690990E+03  0.23371249430E+03  0.75953834506E+03  0.81637841530E+03  0.15294330000E+03 0.  0.
<mgrwt>
<rscale>  0 0.57034181E+03</rscale>
<asrwt>0</asrwt>
<pdfrwt beam="1">  1        2 0.46210834E+00 0.70710238E+03</pdfrwt>
<pdfrwt beam="2">  1       -2 0.12768779E+00 0.70710238E+03</pdfrwt>
<totfact> 0.84971251E-01</totfact>
</mgrwt>
</event>
<event>
 4    2  0.2930016E-007  0.6948344E+03  0.7818608E-02  0.1001934E+00
         -2   -1    0    0    0  501 -0.00000000000E+00  0.00000000000E+00  0.24037318279E+03  0.24037318280E+03  0.25500000000E-02 0.  1.
          2   -1    0    0  501    0  0.00000000000E+00 -0.00000000000E+00 -0.27591934991E+04  0.27591934991E+04  0.25500000000E-02 0. -1.
    8880023    1    1    2    0    0  0.21699104047E+03 -0.43583037679E+02 -0.26211889870E+04  0.27117202114E+04  0.65864270000E+03 0. -1.
    8880022    1    1    2    0    0 -0.21699104047E+03  0.43583037679E+02  0.10236867074E+03  0.28784647050E+03  0.15294330000E+03 0.  0.
<mgrwt>
<rscale>  0 0.54810085E+03</rscale>
<asrwt>0</asrwt>
<pdfrwt beam="1">  1        2 0.42449129E+00 0.69483437E+03</pdfrwt>
<pdfrwt beam="2">  1       -2 0.36980492E-01 0.69483437E+03</pdfrwt>
<totfact> 0.17925006E+01</totfact>
</mgrwt>
</event>
<event>
 4    2  0.2930016E-007  0.9368204E+03  0.7818608E-02  0.9469336E-01
         -2   -1    0    0    0  501 -0.00000000000E+00  0.00000000000E+00  0.47504078977E+03  0.47504078978E+03  0.25500000000E-02 0.  1.
          2   -1    0    0  501    0  0.00000000000E+00 -0.00000000000E+00 -0.17252068414E+04  0.17252068414E+04  0.25500000000E-02 0. -1.
    8880023    1    1    2    0    0  0.31551756269E+03 -0.58674604486E+03 -0.11893791650E+04  0.15140195698E+04  0.65864270000E+03 0.  0.
    8880022    1    1    2    0    0 -0.31551756269E+03  0.58674604486E+03 -0.60786886626E+02  0.68622806131E+03  0.15294330000E+03 0.  0.
<mgrwt>
<rscale>  0 0.86582820E+03</rscale>
<asrwt>0</asrwt>
<pdfrwt beam="1">  1        2 0.26541643E+00 0.93682040E+03</pdfrwt>
<pdfrwt beam="2">  1       -2 0.73083199E-01 0.93682040E+03</pdfrwt>
<totfact> 0.16153227E+01</totfact>
</mgrwt>
</event>
<event>
 4    2  0.2930016E-007  0.6996211E+03  0.7818608E-02  0.9998777E-01
          2   -1    0    0  501    0  0.00000000000E+00  0.00000000000E+00  0.67926837792E+03  0.67926837792E+03  0.25500000000E-02 0. -1.
         -2   -1    0    0    0  501 -0.00000000000E+00 -0.00000000000E+00 -0.47624845055E+03  0.47624845056E+03  0.25500000000E-02 0.  1.
    8880023    1    1    2    0    0 -0.15626493543E+03  0.17675040653E+03  0.40586340746E+03  0.80882306349E+03  0.65864270000E+03 0.  0.
    8880022    1    1    2    0    0  0.15626493543E+03 -0.17675040653E+03 -0.20284348010E+03  0.34669376499E+03  0.15294330000E+03 0.  0.
<mgrwt>
<rscale>  0 0.55703905E+03</rscale>
<asrwt>0</asrwt>
<pdfrwt beam="1">  1        2 0.10450283E+00 0.69962107E+03</pdfrwt>
<pdfrwt beam="2">  1       -2 0.73268993E-01 0.69962107E+03</pdfrwt>
<totfact> 0.72699937E+01</totfact>
</mgrwt>
</event>
<event>
 4    2  0.2930016E-007  0.8620802E+03  0.7818608E-02  0.9589874E-01
          2   -1    0    0  501    0  0.00000000000E+00  0.00000000000E+00  0.95346773296E+03  0.95346773297E+03  0.25500000000E-02 0. -1.
         -2   -1    0    0    0  501 -0.00000000000E+00 -0.00000000000E+00 -0.25030045948E+04  0.25030045948E+04  0.25500000000E-02 0.  1.
    8880023    1    1    2    0    0 -0.52803222408E+03 -0.17479702798E+03  0.71475997206E+03  0.11198500143E+04  0.65864270000E+03 0. -1.
    8880022    1    1    2    0    0  0.52803222408E+03  0.17479702798E+03 -0.22642968339E+04  0.23366223134E+04  0.15294330000E+03 0.  0.
<mgrwt>
<rscale>  0 0.77970036E+03</rscale>
<asrwt>0</asrwt>
<pdfrwt beam="1">  1        2 0.14668734E+00 0.86208018E+03</pdfrwt>
<pdfrwt beam="2">  1       -2 0.38507763E+00 0.86208018E+03</pdfrwt>
<totfact> 0.26100596E-01</totfact>
</mgrwt>
</event>
<event>
 4    2  0.2930016E-007  0.1155789E+04  0.7818608E-02  0.9201344E-01
         -2   -1    0    0    0  501 -0.00000000000E+00  0.00000000000E+00  0.49524205179E+03  0.49524205180E+03  0.25500000000E-02 0.  1.
          2   -1    0    0  501    0  0.00000000000E+00 -0.00000000000E+00 -0.27976848635E+04  0.27976848635E+04  0.25500000000E-02 0. -1.
    8880023    1    1    2    0    0  0.14362053713E+03  0.93883526232E+03 -0.19531132942E+04  0.22694713602E+04  0.65864270000E+03 0. -1.
    8880022    1    1    2    0    0 -0.14362053713E+03 -0.93883526232E+03 -0.34932951750E+03  0.10234555551E+04  0.15294330000E+03 0.  0.
<mgrwt>
<rscale>  0 0.11039564E+04</rscale>
<asrwt>0</asrwt>
<pdfrwt beam="1">  1        2 0.43041305E+00 0.11557892E+04</pdfrwt>
<pdfrwt beam="2">  1       -2 0.76191086E-01 0.11557892E+04</pdfrwt>
<totfact> 0.35630639E+00</totfact>
</mgrwt>
</event>
<event>
 4    2  0.2930016E-007  0.2025436E+04  0.7818608E-02  0.8607124E-01
          2   -1    0    0  501    0  0.00000000000E+00  0.00000000000E+00  0.43542352937E+04  0.43542352937E+04  0.25500000000E-02 0. -1.
         -2   -1    0    0    0  501 -0.00000000000E+00 -0.00000000000E+00 -0.20625817636E+04  0.20625817636E+04  0.25500000000E-02 0.  1.
    8880023    1    1    2    0    0 -0.18940621089E+04 -0.28479788339E+03 -0.12552742177E+04  0.23828773939E+04  0.65864270000E+03 0.  0.
    8880022    1    1    2    0    0  0.18940621089E+04  0.28479788339E+03  0.35469277478E+04  0.40339396634E+04  0.15294330000E+03 0.  0.
<mgrwt>
<rscale>  0 0.19989237E+04</rscale>
<asrwt>0</asrwt>
<pdfrwt beam="1">  1        2 0.66988235E+00 0.20254361E+04</pdfrwt>
<pdfrwt beam="2">  1       -2 0.31732027E+00 0.20254361E+04</pdfrwt>
<totfact> 0.37284013E-03</totfact>
</mgrwt>
</event>
<event>
 4    2  0.2930016E-007  0.7038197E+03  0.7818608E-02  0.9981710E-01
         -2   -1    0    0    0  501 -0.00000000000E+00  0.00000000000E+00  0.45436904061E+03  0.45436904061E+03  0.25500000000E-02 0.  1.
          2   -1    0    0  501    0  0.00000000000E+00 -0.00000000000E+00 -0.12903926097E+04  0.12903926097E+04  0.25500000000E-02 0. -1.
    8880023    1    1    2    0    0 -0.24181390980E+03 -0.55480025658E+02 -0.11297015213E+04  0.13310100427E+04  0.65864270000E+03 0.  0.
    8880022    1    1    2    0    0  0.24181390980E+03  0.55480025658E+02  0.29367795219E+03  0.41375160766E+03  0.15294330000E+03 0.  0.
<mgrwt>
<rscale>  0 0.56459554E+03</rscale>
<asrwt>0</asrwt>
<pdfrwt beam="1">  1        2 0.19852194E+00 0.70381973E+03</pdfrwt>
<pdfrwt beam="2">  1       -2 0.69902930E-01 0.70381973E+03</pdfrwt>
<totfact> 0.32006943E+01</totfact>
</mgrwt>
</event>
<event>
 4    2  0.2930016E-007  0.6788225E+03  0.7818608E-02  0.1009998E+00
         -2   -1    0    0    0  501 -0.00000000000E+00  0.00000000000E+00  0.10375051877E+04  0.10375051877E+04  0.25500000000E-02 0.  1.
          2   -1    0    0  501    0  0.00000000000E+00 -0.00000000000E+00 -0.21966987854E+03  0.21966987856E+03  0.25500000000E-02 0. -1.
    8880023    1    1    2    0    0 -0.50047419426E+02 -0.15647703140E+03  0.41387148828E+03  0.79504064086E+03  0.65864270000E+03 0.  0.
    8880022    1    1    2    0    0  0.50047419426E+02  0.15647703140E+03  0.40396382089E+03  0.46213442541E+03  0.15294330000E+03 0.  0.
<mgrwt>
<rscale>  0 0.51475553E+03</rscale>
<asrwt>0</asrwt>
<pdfrwt beam="1">  1        2 0.33795366E-01 0.67882252E+03</pdfrwt>
<pdfrwt beam="2">  1       -2 0.15961618E+00 0.67882252E+03</pdfrwt>
<totfact> 0.40090219E+01</totfact>
</mgrwt>
</event>
<event>
 4    2  0.2930016E-007  0.1232867E+04  0.7818608E-02  0.9125817E-01
          2   -1    0    0  501    0  0.00000000000E+00  0.00000000000E+00  0.18239311937E+04  0.18239311937E+04  0.25500000000E-02 0. -1.
         -2   -1    0    0    0  501 -0.00000000000E+00 -0.00000000000E+00 -0.81078862898E+03  0.81078862898E+03  0.25500000000E-02 0.  1.
    8880023    1    1    2    0    0  0.10199574529E+04  0.21409667099E+03  0.98993289343E+03  0.15811160394E+04  0.65864270000E+03 0. -1.
    8880022    1    1    2    0    0 -0.10199574529E+04 -0.21409667099E+03  0.23209671251E+02  0.10536037833E+04  0.15294330000E+03 0.  0.
<mgrwt>
<rscale>  0 0.11853050E+04</rscale>
<asrwt>0</asrwt>
<pdfrwt beam="1">  1        2 0.28060479E+00 0.12328669E+04</pdfrwt>
<pdfrwt beam="2">  1       -2 0.12473671E+00 0.12328669E+04</pdfrwt>
<totfact> 0.39200458E+00</totfact>
</mgrwt>
</event>
<event>
 4    2  0.2930016E-007  0.6685415E+03  0.7818608E-02  0.1016731E+00
         -2   -1    0    0    0  501 -0.00000000000E+00  0.00000000000E+00  0.24727569009E+03  0.24727569010E+03  0.25500000000E-02 0.  1.
          2   -1    0    0  501    0  0.00000000000E+00 -0.00000000000E+00 -0.22225586352E+04  0.22225586352E+04  0.25500000000E-02 0. -1.
    8880023    1    1    2    0    0 -0.11191594985E+03  0.24746399981E+02 -0.21245964102E+04  0.22272982909E+04  0.65864270000E+03 0. -1.
    8880022    1    1    2    0    0  0.11191594985E+03 -0.24746399981E+02  0.14931346505E+03  0.24253603444E+03  0.15294330000E+03 0.  0.
<mgrwt>
<rscale>  0 0.48885081E+03</rscale>
<asrwt>0</asrwt>
<pdfrwt beam="1">  1        2 0.34193208E+00 0.66854152E+03</pdfrwt>
<pdfrwt beam="2">  1       -2 0.38042415E-01 0.66854152E+03</pdfrwt>
<totfact> 0.34300538E+01</totfact>
</mgrwt>
</event>
<event>
 4    2  0.2930016E-007  0.7902927E+03  0.7818608E-02  0.9732192E-01
          2   -1    0    0  501    0  0.00000000000E+00  0.00000000000E+00  0.69833394432E+03  0.69833394433E+03  0.25500000000E-02 0. -1.
         -2   -1    0    0    0  501 -0.00000000000E+00 -0.00000000000E+00 -0.73781881732E+03  0.73781881732E+03  0.25500000000E-02 0.  1.
    8880023    1    1    2    0    0  0.35023006268E+03 -0.26094291629E+03  0.31751690387E+03  0.85169213503E+03  0.65864270000E+03 0.  0.
    8880022    1    1    2    0    0 -0.35023006268E+03  0.26094291629E+03 -0.35700177687E+03  0.58446062662E+03  0.15294330000E+03 0.  1.
<mgrwt>
<rscale>  0 0.69132012E+03</rscale>
<asrwt>0</asrwt>
<pdfrwt beam="1">  1        2 0.10743599E+00 0.79029267E+03</pdfrwt>
<pdfrwt beam="2">  1       -2 0.11351059E+00 0.79029267E+03</pdfrwt>
<totfact> 0.25267943E+01</totfact>
</mgrwt>
</event>
<event>
 4    2  0.2930016E-007  0.6723234E+03  0.7818608E-02  0.1014049E+00
         -2   -1    0    0    0  501 -0.00000000000E+00  0.00000000000E+00  0.30354465109E+03  0.30354465110E+03  0.25500000000E-02 0.  1.
          2   -1    0    0  501    0  0.00000000000E+00 -0.00000000000E+00 -0.95765088142E+03  0.95765088143E+03  0.25500000000E-02 0. -1.
    8880023    1    1    2    0    0  0.35156141329E+02  0.13027894073E+03 -0.77350558122E+03  0.10248559153E+04  0.65864270000E+03 0. -1.
    8880022    1    1    2    0    0 -0.35156141329E+02 -0.13027894073E+03  0.11939935088E+03  0.23633961724E+03  0.15294330000E+03 0.  0.
<mgrwt>
<rscale>  0 0.49896561E+03</rscale>
<asrwt>0</asrwt>
<pdfrwt beam="1">  1        2 0.14733090E+00 0.67232341E+03</pdfrwt>
<pdfrwt beam="2">  1       -2 0.46699178E-01 0.67232341E+03</pdfrwt>
<totfact> 0.11879158E+02</totfact>
</mgrwt>
</event>
<event>
 4    2  0.2930016E-007  0.6947110E+03  0.7818608E-02  0.1001989E+00
         -2   -1    0    0    0  501 -0.00000000000E+00  0.00000000000E+00  0.43275392331E+03  0.43275392332E+03  0.25500000000E-02 0.  1.
          2   -1    0    0  501    0  0.00000000000E+00 -0.00000000000E+00 -0.13834344534E+04  0.13834344534E+04  0.25500000000E-02 0. -1.
    8880023    1    1    2    0    0  0.14922827078E+03 -0.16292378302E+03 -0.12399922200E+04  0.14213388575E+04  0.65864270000E+03 0. -1.
    8880022    1    1    2    0    0 -0.14922827078E+03  0.16292378302E+03  0.28931168993E+03  0.39484951921E+03  0.15294330000E+03 0.  0.
<mgrwt>
<rscale>  0 0.54786553E+03</rscale>
<asrwt>0</asrwt>
<pdfrwt beam="1">  1        2 0.21283607E+00 0.69471105E+03</pdfrwt>
<pdfrwt beam="2">  1       -2 0.66577527E-01 0.69471105E+03</pdfrwt>
<totfact> 0.31513395E+01</totfact>
</mgrwt>
</event>
<event>
 4    2  0.2930016E-007  0.8920880E+03  0.7818608E-02  0.9538854E-01
         -2   -1    0    0    0  501 -0.00000000000E+00  0.00000000000E+00  0.10435477589E+04  0.10435477589E+04  0.25500000000E-02 0.  1.
          2   -1    0    0  501    0  0.00000000000E+00 -0.00000000000E+00 -0.82685808225E+03  0.82685808225E+03  0.25500000000E-02 0. -1.
    8880023    1    1    2    0    0  0.15011096383E+03 -0.58264691300E+03 -0.41573065125E+03  0.98420165990E+03  0.65864270000E+03 0. -1.
    8880022    1    1    2    0    0 -0.15011096383E+03  0.58264691300E+03  0.63242032786E+03  0.88620418121E+03  0.15294330000E+03 0.  0.
<mgrwt>
<rscale>  0 0.81478881E+03</rscale>
<asrwt>0</asrwt>
<pdfrwt beam="1">  1        2 0.12720894E+00 0.89208796E+03</pdfrwt>
<pdfrwt beam="2">  1       -2 0.16054581E+00 0.89208796E+03</pdfrwt>
<totfact> 0.82381448E+00</totfact>
</mgrwt>
</event>
<event>
 4    2  0.2930016E-007  0.8690936E+03  0.7818608E-02  0.9577588E-01
         -2   -1    0    0    0  501 -0.00000000000E+00  0.00000000000E+00  0.14711835894E+04  0.14711835894E+04  0.25500000000E-02 0.  1.
          2   -1    0    0  501    0  0.00000000000E+00 -0.00000000000E+00 -0.64290741852E+03  0.64290741853E+03  0.25500000000E-02 0. -1.
    8880023    1    1    2    0    0  0.96770280127E+02  0.55870294093E+03 -0.23420815259E+03  0.90009839924E+03  0.65864270000E+03 0. -1.
    8880022    1    1    2    0    0 -0.96770280127E+02 -0.55870294093E+03  0.10624843235E+04  0.12139926087E+04  0.15294330000E+03 0.  1.
<mgrwt>
<rscale>  0 0.78797487E+03</rscale>
<asrwt>0</asrwt>
<pdfrwt beam="1">  1        2 0.98908835E-01 0.86909359E+03</pdfrwt>
<pdfrwt beam="2">  1       -2 0.22633593E+00 0.86909359E+03</pdfrwt>
<totfact> 0.41498980E+00</totfact>
</mgrwt>
</event>
<event>
 4    2  0.2930016E-007  0.9411892E+03  0.7818608E-02  0.9462906E-01
         -2   -1    0    0    0  501 -0.00000000000E+00  0.00000000000E+00  0.12467941827E+04  0.12467941827E+04  0.25500000000E-02 0.  1.
          2   -1    0    0  501    0  0.00000000000E+00 -0.00000000000E+00 -0.60309272196E+03  0.60309272196E+03  0.25500000000E-02 0. -1.
    8880023    1    1    2    0    0 -0.26704533272E+03  0.61702002757E+03  0.67730909704E+03  0.11595623068E+04  0.65864270000E+03 0.  0.
    8880022    1    1    2    0    0  0.26704533272E+03 -0.61702002757E+03 -0.33607636328E+02  0.69032459784E+03  0.15294330000E+03 0.  0.
<mgrwt>
<rscale>  0 0.87074747E+03</rscale>
<asrwt>0</asrwt>
<pdfrwt beam="1">  1        2 0.92783497E-01 0.94118921E+03</pdfrwt>
<pdfrwt beam="2">  1       -2 0.19181449E+00 0.94118921E+03</pdfrwt>
<totfact> 0.74221774E+00</totfact>
</mgrwt>
</event>
<event>
 4    2  0.3526782E-007  0.7349685E+03  0.7818608E-02  0.9874853E-01
         -2   -1    0    0    0  501 -0.00000000000E+00  0.00000000000E+00  0.86625485622E+03  0.86625485623E+03  0.25500000000E-02 0.  1.
          2   -1    0    0  501    0  0.00000000000E+00 -0.00000000000E+00 -0.35114204206E+04  0.35114204206E+04  0.25500000000E-02 0. -1.
    8880023    1    1    2    0    0 -0.15025602141E+03 -0.28946791730E+03 -0.34333184065E+04  0.35111043895E+04  0.65864270000E+03 0. -1.
    8880022    1    1    2    0    0  0.15025602141E+03  0.28946791730E+03  0.78815284216E+03  0.86657088731E+03  0.15294330000E+03 0.  0.
<mgrwt>
<rscale>  0 0.61495629E+03</rscale>
<asrwt>0</asrwt>
<pdfrwt beam="1">  1        2 0.54021852E+00 0.73496854E+03</pdfrwt>
<pdfrwt beam="2">  1       -2 0.13326998E+00 0.73496854E+03</pdfrwt>
<totfact> 0.35620177E-01</totfact>
</mgrwt>
</event>
<event>
 4    2  0.2930016E-007  0.1561867E+04  0.7818608E-02  0.8867141E-01
         -2   -1    0    0    0  501 -0.00000000000E+00  0.00000000000E+00  0.38694367457E+04  0.38694367457E+04  0.25500000000E-02 0.  1.
          2   -1    0    0  501    0  0.00000000000E+00 -0.00000000000E+00 -0.10680470009E+04  0.10680470009E+04  0.25500000000E-02 0. -1.
    8880023    1    1    2    0    0 -0.99063186661E+03 -0.10120613753E+04  0.31098553640E+04  0.34800330909E+04  0.65864270000E+03 0.  0.
    8880022    1    1    2    0    0  0.99063186661E+03  0.10120613753E+04 -0.30846561915E+03  0.14574506557E+04  0.15294330000E+03 0.  0.
<mgrwt>
<rscale>  0 0.15263133E+04</rscale>
<asrwt>0</asrwt>
<pdfrwt beam="1">  1        2 0.16431492E+00 0.15618674E+04</pdfrwt>
<pdfrwt beam="2">  1       -2 0.59529796E+00 0.15618674E+04</pdfrwt>
<totfact> 0.11008268E-02</totfact>
</mgrwt>
</event>
<event>
 4    2  0.2930016E-007  0.6859578E+03  0.7818608E-02  0.1006136E+00
         -2   -1    0    0    0  501 -0.00000000000E+00  0.00000000000E+00  0.11538472413E+03  0.11538472415E+03  0.25500000000E-02 0.  1.
          2   -1    0    0  501    0  0.00000000000E+00 -0.00000000000E+00 -0.33162247923E+04  0.33162247923E+04  0.25500000000E-02 0. -1.
    8880023    1    1    2    0    0 -0.14543411361E+03 -0.12480686700E+03 -0.30851595288E+04  0.31604979607E+04  0.65864270000E+03 0. -1.
    8880022    1    1    2    0    0  0.14543411361E+03  0.12480686700E+03 -0.11568053943E+03  0.27111155576E+03  0.15294330000E+03 0.  0.
<mgrwt>
<rscale>  0 0.53039563E+03</rscale>
<asrwt>0</asrwt>
<pdfrwt beam="1">  1        2 0.51018836E+00 0.68595776E+03</pdfrwt>
<pdfrwt beam="2">  1       -2 0.17751499E-01 0.68595776E+03</pdfrwt>
<totfact> 0.30820100E+01</totfact>
</mgrwt>
</event>
<event>
 4    2  0.2930016E-007  0.8211735E+03  0.7818608E-02  0.9666756E-01
         -2   -1    0    0    0  501 -0.00000000000E+00  0.00000000000E+00  0.26715289194E+03  0.26715289196E+03  0.25500000000E-02 0.  1.
          2   -1    0    0  501    0  0.00000000000E+00 -0.00000000000E+00 -0.33318111938E+04  0.33318111938E+04  0.25500000000E-02 0. -1.
    8880023    1    1    2    0    0 -0.48286302651E+03  0.85784399994E+02 -0.29637750509E+04  0.30754330466E+04  0.65864270000E+03 0. -1.
    8880022    1    1    2    0    0  0.48286302651E+03 -0.85784399994E+02 -0.10088325102E+03  0.52353103920E+03  0.15294330000E+03 0.  1.
<mgrwt>
<rscale>  0 0.73031061E+03</rscale>
<asrwt>0</asrwt>
<pdfrwt beam="1">  1        2 0.51258631E+00 0.82117347E+03</pdfrwt>
<pdfrwt beam="2">  1       -2 0.41100447E-01 0.82117347E+03</pdfrwt>
<totfact> 0.63159294E+00</totfact>
</mgrwt>
</event>
<event>
 4    2  0.2930016E-007  0.6897454E+03  0.7818608E-02  0.1004274E+00
          2   -1    0    0  501    0  0.00000000000E+00  0.00000000000E+00  0.65430535924E+03  0.65430535925E+03  0.25500000000E-02 0. -1.
         -2   -1    0    0    0  501 -0.00000000000E+00 -0.00000000000E+00 -0.69428874228E+03  0.69428874228E+03  0.25500000000E-02 0.  1.
    8880023    1    1    2    0    0  0.16929122278E+03  0.11523434031E+03  0.43056888740E+03  0.81310407966E+03  0.65864270000E+03 0. -1.
    8880022    1    1    2    0    0 -0.16929122278E+03 -0.11523434031E+03 -0.47055227044E+03  0.53549002187E+03  0.15294330000E+03 0.  0.
<mgrwt>
<rscale>  0 0.53815302E+03</rscale>
<asrwt>0</asrwt>
<pdfrwt beam="1">  1        2 0.10066236E+00 0.68974537E+03</pdfrwt>
<pdfrwt beam="2">  1       -2 0.10681365E+00 0.68974537E+03</pdfrwt>
<totfact> 0.32033514E+01</totfact>
</mgrwt>
</event>
<event>
 4    2  0.2930016E-007  0.8696696E+03  0.7818608E-02  0.9576589E-01
         -2   -1    0    0    0  501 -0.00000000000E+00  0.00000000000E+00  0.55625802332E+03  0.55625802332E+03  0.25500000000E-02 0.  1.
          2   -1    0    0  501    0  0.00000000000E+00 -0.00000000000E+00 -0.15632306068E+04  0.15632306068E+04  0.25500000000E-02 0. -1.
    8880023    1    1    2    0    0 -0.35863945966E+03 -0.44033254311E+03 -0.12162825535E+04  0.14952151907E+04  0.65864270000E+03 0.  0.
    8880022    1    1    2    0    0  0.35863945966E+03  0.44033254311E+03  0.20930996998E+03  0.62427343937E+03  0.15294330000E+03 0.  0.
<mgrwt>
<rscale>  0 0.78865232E+03</rscale>
<asrwt>0</asrwt>
<pdfrwt beam="1">  1        2 0.24049702E+00 0.86966960E+03</pdfrwt>
<pdfrwt beam="2">  1       -2 0.85578158E-01 0.86966960E+03</pdfrwt>
<totfact> 0.14023136E+01</totfact>
</mgrwt>
</event>
<event>
 4    2  0.2930016E-007  0.7444337E+03  0.7818608E-02  0.9847215E-01
          2   -1    0    0  501    0  0.00000000000E+00  0.00000000000E+00  0.28180254227E+04  0.28180254227E+04  0.25500000000E-02 0. -1.
         -2   -1    0    0    0  501 -0.00000000000E+00 -0.00000000000E+00 -0.29566700582E+03  0.29566700583E+03  0.25500000000E-02 0.  1.
    8880023    1    1    2    0    0 -0.22474583324E+03 -0.26431155965E+03  0.26187218446E+04  0.27224778412E+04  0.65864270000E+03 0.  0.
    8880022    1    1    2    0    0  0.22474583324E+03  0.26431155965E+03 -0.96363427728E+02  0.39121458733E+03  0.15294330000E+03 0.  0.
<mgrwt>
<rscale>  0 0.62889100E+03</rscale>
<asrwt>0</asrwt>
<pdfrwt beam="1">  1        2 0.43354240E+00 0.74443367E+03</pdfrwt>
<pdfrwt beam="2">  1       -2 0.45487229E-01 0.74443367E+03</pdfrwt>
<totfact> 0.10937627E+01</totfact>
</mgrwt>
</event>
<event>
 4    2  0.2930016E-007  0.1000064E+04  0.7818608E-02  0.9381474E-01
          2   -1    0    0  501    0  0.00000000000E+00  0.00000000000E+00  0.20500372116E+04  0.20500372116E+04  0.25500000000E-02 0. -1.
         -2   -1    0    0    0  501 -0.00000000000E+00 -0.00000000000E+00 -0.66779462779E+03  0.66779462779E+03  0.25500000000E-02 0.  1.
    8880023    1    1    2    0    0 -0.67703531576E+03 -0.32854426900E+03  0.16287850588E+04  0.19113003766E+04  0.65864270000E+03 0. -1.
    8880022    1    1    2    0    0  0.67703531576E+03  0.32854426900E+03 -0.24654247501E+03  0.80653146279E+03  0.15294330000E+03 0.  0.
<mgrwt>
<rscale>  0 0.93616133E+03</rscale>
<asrwt>0</asrwt>
<pdfrwt beam="1">  1        2 0.31539034E+00 0.10000642E+04</pdfrwt>
<pdfrwt beam="2">  1       -2 0.10273764E+00 0.10000642E+04</pdfrwt>
<totfact> 0.48574660E+00</totfact>
</mgrwt>
</event>
<event>
 4    2  0.2930016E-007  0.7375334E+03  0.7818608E-02  0.9867191E-01
          2   -1    0    0  501    0  0.00000000000E+00  0.00000000000E+00  0.19048261548E+04  0.19048261548E+04  0.25500000000E-02 0. -1.
         -2   -1    0    0    0  501 -0.00000000000E+00 -0.00000000000E+00 -0.38993905256E+03  0.38993905257E+03  0.25500000000E-02 0.  1.
    8880023    1    1    2    0    0 -0.30972468084E+03 -0.11923030152E+03  0.17230117897E+04  0.18742265275E+04  0.65864270000E+03 0. -1.
    8880022    1    1    2    0    0  0.30972468084E+03  0.11923030152E+03 -0.20812468746E+03  0.42053867987E+03  0.15294330000E+03 0.  0.
<mgrwt>
<rscale>  0 0.61878020E+03</rscale>
<asrwt>0</asrwt>
<pdfrwt beam="1">  1        2 0.29305018E+00 0.73753335E+03</pdfrwt>
<pdfrwt beam="2">  1       -2 0.59990623E-01 0.73753335E+03</pdfrwt>
<totfact> 0.20210652E+01</totfact>
</mgrwt>
</event>
<event>
 4    2  0.2930016E-007  0.6617031E+03  0.7818608E-02  0.1022476E+00
          2   -1    0    0  501    0  0.00000000000E+00  0.00000000000E+00  0.11510839176E+04  0.11510839176E+04  0.25500000000E-02 0. -1.
         -2   -1    0    0    0  501 -0.00000000000E+00 -0.00000000000E+00 -0.71362189975E+03  0.71362189976E+03  0.25500000000E-02 0.  1.
    8880023    1    1    2    0    0  0.52871216425E+02 -0.35289966805E+02  0.10439578111E+04  0.12360011589E+04  0.65864270000E+03 0.  0.
    8880022    1    1    2    0    0 -0.52871216425E+02  0.35289966805E+02 -0.60649579325E+03  0.62870465842E+03  0.15294330000E+03 0.  1.
<mgrwt>
<rscale>  0 0.46803716E+03</rscale>
<asrwt>0</asrwt>
<pdfrwt beam="1">  1        2 0.17708983E+00 0.66170307E+03</pdfrwt>
<pdfrwt beam="2">  1       -2 0.10978799E+00 0.66170307E+03</pdfrwt>
<totfact> 0.13785035E+01</totfact>
</mgrwt>
</event>
<event>
 4    2  0.2930016E-007  0.1440378E+04  0.7818608E-02  0.8952926E-01
          2   -1    0    0  501    0  0.00000000000E+00  0.00000000000E+00  0.16371422360E+04  0.16371422360E+04  0.25500000000E-02 0. -1.
         -2   -1    0    0    0  501 -0.00000000000E+00 -0.00000000000E+00 -0.14394089922E+04  0.14394089922E+04  0.25500000000E-02 0.  1.
    8880023    1    1    2    0    0 -0.40803104298E+03 -0.12142446916E+04  0.80569752644E+03  0.16504054695E+04  0.65864270000E+03 0.  0.
    8880022    1    1    2    0    0  0.40803104298E+03  0.12142446916E+04 -0.60796428263E+03  0.14261457587E+04  0.15294330000E+03 0.  0.
<mgrwt>
<rscale>  0 0.14012333E+04</rscale>
<asrwt>0</asrwt>
<pdfrwt beam="1">  1        2 0.25186803E+00 0.14403783E+04</pdfrwt>
<pdfrwt beam="2">  1       -2 0.22144754E+00 0.14403783E+04</pdfrwt>
<totfact> 0.97267025E-01</totfact>
</mgrwt>
</event>
<event>
 4    2  0.2930016E-007  0.6681494E+03  0.7818608E-02  0.1017026E+00
          2   -1    0    0  501    0  0.00000000000E+00  0.00000000000E+00  0.59595343941E+03  0.59595343941E+03  0.25500000000E-02 0. -1.
         -2   -1    0    0    0  501 -0.00000000000E+00 -0.00000000000E+00 -0.11918332529E+04  0.11918332529E+04  0.25500000000E-02 0.  1.
    8880023    1    1    2    0    0 -0.78773802171E+02 -0.80050685055E+02  0.39682750845E+03  0.77710726532E+03  0.65864270000E+03 0. -1.
    8880022    1    1    2    0    0  0.78773802171E+02  0.80050685055E+02 -0.99270732194E+03  0.10106794270E+04  0.15294330000E+03 0.  0.
<mgrwt>
<rscale>  0 0.48775380E+03</rscale>
<asrwt>0</asrwt>
<pdfrwt beam="1">  1        2 0.91685144E-01 0.66814941E+03</pdfrwt>
<pdfrwt beam="2">  1       -2 0.18335896E+00 0.66814941E+03</pdfrwt>
<totfact> 0.88347342E+00</totfact>
</mgrwt>
</event>
<event>
 4    2  0.2930016E-007  0.7979805E+03  0.7818608E-02  0.9715180E-01
         -2   -1    0    0    0  501 -0.00000000000E+00  0.00000000000E+00  0.15341429096E+04  0.15341429096E+04  0.25500000000E-02 0.  1.
          2   -1    0    0  501    0  0.00000000000E+00 -0.00000000000E+00 -0.60369013088E+03  0.60369013088E+03  0.25500000000E-02 0. -1.
    8880023    1    1    2    0    0 -0.16596090406E+03  0.41883120888E+03 -0.27328883421E+03  0.84348064375E+03  0.65864270000E+03 0. -1.
    8880022    1    1    2    0    0  0.16596090406E+03 -0.41883120888E+03  0.12037416130E+04  0.12943523968E+04  0.15294330000E+03 0.  0.
<mgrwt>
<rscale>  0 0.70120140E+03</rscale>
<asrwt>0</asrwt>
<pdfrwt beam="1">  1        2 0.92875404E-01 0.79798046E+03</pdfrwt>
<pdfrwt beam="2">  1       -2 0.23602199E+00 0.79798046E+03</pdfrwt>
<totfact> 0.39389322E+00</totfact>
</mgrwt>
</event>
<event>
 4    2  0.2930016E-007  0.7451050E+03  0.7818608E-02  0.9845319E-01
          2   -1    0    0  501    0  0.00000000000E+00  0.00000000000E+00  0.75242932591E+03  0.75242932591E+03  0.25500000000E-02 0. -1.
         -2   -1    0    0    0  501 -0.00000000000E+00 -0.00000000000E+00 -0.53326278812E+03  0.53326278812E+03  0.25500000000E-02 0.  1.
    8880023    1    1    2    0    0 -0.33424981846E+03 -0.98225475110E+02  0.42014392665E+03  0.85539599629E+03  0.65864270000E+03 0. -1.
    8880022    1    1    2    0    0  0.33424981846E+03  0.98225475110E+02 -0.20097738886E+03  0.43029611775E+03  0.15294330000E+03 0.  0.
<mgrwt>
<rscale>  0 0.62986173E+03</rscale>
<asrwt>0</asrwt>
<pdfrwt beam="1">  1        2 0.11575836E+00 0.74510495E+03</pdfrwt>
<pdfrwt beam="2">  1       -2 0.82040430E-01 0.74510495E+03</pdfrwt>
<totfact> 0.49433282E+01</totfact>
</mgrwt>
</event>
<event>
 4    2  0.2930016E-007  0.8850927E+03  0.7818608E-02  0.9550399E-01
         -2   -1    0    0    0  501 -0.00000000000E+00  0.00000000000E+00  0.83676356681E+03  0.83676356681E+03  0.25500000000E-02 0.  1.
          2   -1    0    0  501    0  0.00000000000E+00 -0.00000000000E+00 -0.84404747976E+03  0.84404747976E+03  0.25500000000E-02 0. -1.
    8880023    1    1    2    0    0 -0.46614176627E+03 -0.36371805129E+03 -0.38232059584E+03  0.96413599215E+03  0.65864270000E+03 0. -1.
    8880022    1    1    2    0    0  0.46614176627E+03  0.36371805129E+03  0.37503668289E+03  0.71667505442E+03  0.15294330000E+03 0.  0.
<mgrwt>
<rscale>  0 0.80667930E+03</rscale>
<asrwt>0</asrwt>
<pdfrwt beam="1">  1        2 0.12985346E+00 0.88509275E+03</pdfrwt>
<pdfrwt beam="2">  1       -2 0.12873286E+00 0.88509275E+03</pdfrwt>
<totfact> 0.14297767E+01</totfact>
</mgrwt>
</event>
<event>
 4    2  0.2930016E-007  0.9928407E+03  0.7818608E-02  0.9390985E-01
          2   -1    0    0  501    0  0.00000000000E+00  0.00000000000E+00  0.75850226364E+03  0.75850226364E+03  0.25500000000E-02 0. -1.
         -2   -1    0    0    0  501 -0.00000000000E+00 -0.00000000000E+00 -0.22556080965E+04  0.22556080965E+04  0.25500000000E-02 0.  1.
    8880023    1    1    2    0    0 -0.43105703462E+02  0.74166316624E+03  0.32155802558E+03  0.10436149309E+04  0.65864270000E+03 0. -1.
    8880022    1    1    2    0    0  0.43105703462E+02 -0.74166316624E+03 -0.18186638584E+04  0.19704954293E+04  0.15294330000E+03 0.  0.
<mgrwt>
<rscale>  0 0.92821329E+03</rscale>
<asrwt>0</asrwt>
<pdfrwt beam="1">  1        2 0.11669266E+00 0.99284065E+03</pdfrwt>
<pdfrwt beam="2">  1       -2 0.34701663E+00 0.99284065E+03</pdfrwt>
<totfact> 0.60814118E-01</totfact>
</mgrwt>
</event>
<event>
 4    2  0.2930016E-007  0.7140346E+03  0.7818608E-02  0.9943313E-01
          2   -1    0    0  501    0  0.00000000000E+00  0.00000000000E+00  0.26532494555E+04  0.26532494555E+04  0.25500000000E-02 0. -1.
         -2   -1    0    0    0  501 -0.00000000000E+00 -0.00000000000E+00 -0.16066341784E+03  0.16066341786E+03  0.25500000000E-02 0.  1.
    8880023    1    1    2    0    0 -0.11204120758E+03 -0.25195632713E+03  0.23706304299E+04  0.24758299748E+04  0.65864270000E+03 0.  0.
    8880022    1    1    2    0    0  0.11204120758E+03  0.25195632713E+03  0.12195560774E+03  0.33808289849E+03  0.15294330000E+03 0.  0.
<mgrwt>
<rscale>  0 0.58207296E+03</rscale>
<asrwt>0</asrwt>
<pdfrwt beam="1">  1        2 0.40819218E+00 0.71403461E+03</pdfrwt>
<pdfrwt beam="2">  1       -2 0.24717452E-01 0.71403461E+03</pdfrwt>
<totfact> 0.43527503E+01</totfact>
</mgrwt>
</event>
<event>
 4    2  0.2930016E-007  0.8638841E+03  0.7818608E-02  0.9586691E-01
          2   -1    0    0  501    0  0.00000000000E+00  0.00000000000E+00  0.24092563456E+03  0.24092563457E+03  0.25500000000E-02 0. -1.
         -2   -1    0    0    0  501 -0.00000000000E+00 -0.00000000000E+00 -0.30433669236E+04  0.30433669236E+04  0.25500000000E-02 0.  1.
    8880023    1    1    2    0    0  0.38254153236E+03 -0.40761196436E+03 -0.72583732023E+03  0.11283330888E+04  0.65864270000E+03 0. -1.
    8880022    1    1    2    0    0 -0.38254153236E+03  0.40761196436E+03 -0.20766039688E+04  0.21559594694E+04  0.15294330000E+03 0.  0.
<mgrwt>
<rscale>  0 0.78183332E+03</rscale>
<asrwt>0</asrwt>
<pdfrwt beam="1">  1        2 0.37065484E-01 0.86388410E+03</pdfrwt>
<pdfrwt beam="2">  1       -2 0.46821027E+00 0.86388410E+03</pdfrwt>
<totfact> 0.38511997E-01</totfact>
</mgrwt>
</event>
<event>
 4    2  0.2930016E-007  0.6743793E+03  0.7818608E-02  0.1012700E+00
         -2   -1    0    0    0  501 -0.00000000000E+00  0.00000000000E+00  0.59259417823E+03  0.59259417824E+03  0.25500000000E-02 0.  1.
          2   -1    0    0  501    0  0.00000000000E+00 -0.00000000000E+00 -0.38910529881E+03  0.38910529881E+03  0.25500000000E-02 0. -1.
    8880023    1    1    2    0    0  0.14361612046E+03  0.18751534151E+02 -0.19886895252E+02  0.67467244271E+03  0.65864270000E+03 0.  0.
    8880022    1    1    2    0    0 -0.14361612046E+03 -0.18751534151E+02  0.22337577468E+03  0.30702703434E+03  0.15294330000E+03 0.  0.
<mgrwt>
<rscale>  0 0.50415369E+03</rscale>
<asrwt>0</asrwt>
<pdfrwt beam="1">  1        2 0.59862354E-01 0.67437928E+03</pdfrwt>
<pdfrwt beam="2">  1       -2 0.91168335E-01 0.67437928E+03</pdfrwt>
<totfact> 0.85388610E+01</totfact>
</mgrwt>
</event>
<event>
 4    2  0.2930016E-007  0.6885215E+03  0.7818608E-02  0.1004863E+00
         -2   -1    0    0    0  501 -0.00000000000E+00  0.00000000000E+00  0.27611842107E+03  0.27611842108E+03  0.25500000000E-02 0.  1.
          2   -1    0    0  501    0  0.00000000000E+00 -0.00000000000E+00 -0.24287788627E+04  0.24287788627E+04  0.25500000000E-02 0. -1.
    8880023    1    1    2    0    0  0.12605264257E+03 -0.15608464387E+03 -0.23080808363E+04  0.24085885987E+04  0.65864270000E+03 0. -1.
    8880022    1    1    2    0    0 -0.12605264257E+03  0.15608464387E+03  0.15542039466E+03  0.29630868506E+03  0.15294330000E+03 0.  0.
<mgrwt>
<rscale>  0 0.53568226E+03</rscale>
<asrwt>0</asrwt>
<pdfrwt beam="1">  1        2 0.37365827E+00 0.68852153E+03</pdfrwt>
<pdfrwt beam="2">  1       -2 0.42479759E-01 0.68852153E+03</pdfrwt>
<totfact> 0.21185950E+01</totfact>
</mgrwt>
</event>
<event>
 4    2  0.2930016E-007  0.1106613E+04  0.7818608E-02  0.9253729E-01
          2   -1    0    0  501    0  0.00000000000E+00  0.00000000000E+00  0.80785292363E+03  0.80785292363E+03  0.25500000000E-02 0. -1.
         -2   -1    0    0    0  501 -0.00000000000E+00 -0.00000000000E+00 -0.18493104557E+04  0.18493104557E+04  0.25500000000E-02 0.  1.
    8880023    1    1    2    0    0 -0.37523786854E+03  0.80621190365E+03  0.19786430114E+03  0.11241626126E+04  0.65864270000E+03 0.  0.
    8880022    1    1    2    0    0  0.37523786854E+03 -0.80621190365E+03 -0.12393218332E+04  0.15330007667E+04  0.15294330000E+03 0.  0.
<mgrwt>
<rscale>  0 0.10515653E+04</rscale>
<asrwt>0</asrwt>
<pdfrwt beam="1">  1        2 0.12428507E+00 0.11066125E+04</pdfrwt>
<pdfrwt beam="2">  1       -2 0.28450930E+00 0.11066125E+04</pdfrwt>
<totfact> 0.13295003E+00</totfact>
</mgrwt>
</event>
<event>
 4    2  0.2930016E-007  0.7398255E+03  0.7818608E-02  0.9860456E-01
         -2   -1    0    0    0  501 -0.00000000000E+00  0.00000000000E+00  0.12374042752E+03  0.12374042755E+03  0.25500000000E-02 0.  1.
          2   -1    0    0  501    0  0.00000000000E+00 -0.00000000000E+00 -0.29470230714E+04  0.29470230714E+04  0.25500000000E-02 0. -1.
    8880023    1    1    2    0    0 -0.33238260862E+03 -0.55256825567E+02 -0.23852808096E+04  0.24973798795E+04  0.65864270000E+03 0.  0.
    8880022    1    1    2    0    0  0.33238260862E+03  0.55256825567E+02 -0.43800183428E+03  0.57338361952E+03  0.15294330000E+03 0.  0.
<mgrwt>
<rscale>  0 0.62216643E+03</rscale>
<asrwt>0</asrwt>
<pdfrwt beam="1">  1        2 0.45338811E+00 0.73982547E+03</pdfrwt>
<pdfrwt beam="2">  1       -2 0.19036991E-01 0.73982547E+03</pdfrwt>
<totfact> 0.46142406E+01</totfact>
</mgrwt>
</event>
<event>
 4    2  0.2930016E-007  0.6819027E+03  0.7818608E-02  0.1008267E+00
          2   -1    0    0  501    0  0.00000000000E+00  0.00000000000E+00  0.12560847138E+04  0.12560847138E+04  0.25500000000E-02 0. -1.
         -2   -1    0    0    0  501 -0.00000000000E+00 -0.00000000000E+00 -0.25122841651E+03  0.25122841653E+03  0.25500000000E-02 0.  1.
    8880023    1    1    2    0    0  0.17657584976E+03 -0.14204474684E+01  0.10663579173E+04  0.12657450226E+04  0.65864270000E+03 0.  0.
    8880022    1    1    2    0    0 -0.17657584976E+03  0.14204474684E+01 -0.61501619947E+02  0.24156810771E+03  0.15294330000E+03 0.  0.
<mgrwt>
<rscale>  0 0.52169146E+03</rscale>
<asrwt>0</asrwt>
<pdfrwt beam="1">  1        2 0.19324380E+00 0.68190267E+03</pdfrwt>
<pdfrwt beam="2">  1       -2 0.38650526E-01 0.68190267E+03</pdfrwt>
<totfact> 0.11325465E+02</totfact>
</mgrwt>
</event>
<event>
 4    2  0.2930016E-007  0.8868211E+03  0.7818608E-02  0.9547528E-01
         -2   -1    0    0    0  501 -0.00000000000E+00  0.00000000000E+00  0.96816452313E+03  0.96816452313E+03  0.25500000000E-02 0.  1.
          2   -1    0    0  501    0  0.00000000000E+00 -0.00000000000E+00 -0.15062402373E+04  0.15062402373E+04  0.25500000000E-02 0. -1.
    8880023    1    1    2    0    0 -0.57416404405E+03  0.15158184722E+03 -0.12513754249E+04  0.15337509792E+04  0.65864270000E+03 0. -1.
    8880022    1    1    2    0    0  0.57416404405E+03 -0.15158184722E+03  0.71329971071E+03  0.94065378126E+03  0.15294330000E+03 0.  0.
<mgrwt>
<rscale>  0 0.80868662E+03</rscale>
<asrwt>0</asrwt>
<pdfrwt beam="1">  1        2 0.23172927E+00 0.88682107E+03</pdfrwt>
<pdfrwt beam="2">  1       -2 0.14894839E+00 0.88682107E+03</pdfrwt>
<totfact> 0.38693648E+00</totfact>
</mgrwt>
</event>
<event>
 4    2  0.2930016E-007  0.6792165E+03  0.7818608E-02  0.1009770E+00
         -2   -1    0    0    0  501 -0.00000000000E+00  0.00000000000E+00  0.44211727345E+03  0.44211727346E+03  0.25500000000E-02 0.  1.
          2   -1    0    0  501    0  0.00000000000E+00 -0.00000000000E+00 -0.13976887653E+04  0.13976887653E+04  0.25500000000E-02 0. -1.
    8880023    1    1    2    0    0 -0.19417697928E+02  0.16476599852E+03 -0.12774021299E+04  0.14467519791E+04  0.65864270000E+03 0.  0.
    8880022    1    1    2    0    0  0.19417697928E+02 -0.16476599852E+03  0.32183063802E+03  0.39305405970E+03  0.15294330000E+03 0.  1.
<mgrwt>
<rscale>  0 0.51566011E+03</rscale>
<asrwt>0</asrwt>
<pdfrwt beam="1">  1        2 0.21502904E+00 0.67921652E+03</pdfrwt>
<pdfrwt beam="2">  1       -2 0.68018043E-01 0.67921652E+03</pdfrwt>
<totfact> 0.29591744E+01</totfact>
</mgrwt>
</event>
<event>
 4    2  0.2930016E-007  0.6894088E+03  0.7818608E-02  0.1004435E+00
          2   -1    0    0  501    0  0.00000000000E+00  0.00000000000E+00  0.17646141152E+04  0.17646141152E+04  0.25500000000E-02 0. -1.
         -2   -1    0    0    0  501 -0.00000000000E+00 -0.00000000000E+00 -0.13203046614E+03  0.13203046616E+03  0.25500000000E-02 0.  1.
    8880023    1    1    2    0    0  0.20113612328E+03  0.31915229227E+02  0.13525421950E+04  0.15181089939E+04  0.65864270000E+03 0. -1.
    8880022    1    1    2    0    0 -0.20113612328E+03 -0.31915229227E+02  0.28004145409E+03  0.37853558745E+03  0.15294330000E+03 0. -1.
<mgrwt>
<rscale>  0 0.53747683E+03</rscale>
<asrwt>0</asrwt>
<pdfrwt beam="1">  1        2 0.27147911E+00 0.68940883E+03</pdfrwt>
<pdfrwt beam="2">  1       -2 0.20312378E-01 0.68940883E+03</pdfrwt>
<totfact> 0.19210159E+02</totfact>
</mgrwt>
</event>
<event>
 4    2  0.2930016E-007  0.1005010E+04  0.7818608E-02  0.9375032E-01
          2   -1    0    0  501    0  0.00000000000E+00  0.00000000000E+00  0.21207608273E+04  0.21207608273E+04  0.25500000000E-02 0. -1.
         -2   -1    0    0    0  501 -0.00000000000E+00 -0.00000000000E+00 -0.65892528454E+03  0.65892528455E+03  0.25500000000E-02 0.  1.
    8880023    1    1    2    0    0 -0.19077069912E+03 -0.73473959702E+03  0.16953802639E+04  0.19708780228E+04  0.65864270000E+03 0.  0.
    8880022    1    1    2    0    0  0.19077069912E+03  0.73473959702E+03 -0.23354472121E+03  0.80880808903E+03  0.15294330000E+03 0.  0.
<mgrwt>
<rscale>  0 0.94159275E+03</rscale>
<asrwt>0</asrwt>
<pdfrwt beam="1">  1        2 0.32627090E+00 0.10050104E+04</pdfrwt>
<pdfrwt beam="2">  1       -2 0.10137312E+00 0.10050104E+04</pdfrwt>
<totfact> 0.45810996E+00</totfact>
</mgrwt>
</event>
<event>
 4    2  0.2930016E-007  0.6687447E+03  0.7818608E-02  0.1016579E+00
          2   -1    0    0  501    0  0.00000000000E+00  0.00000000000E+00  0.12822279673E+04  0.12822279673E+04  0.25500000000E-02 0. -1.
         -2   -1    0    0    0  501 -0.00000000000E+00 -0.00000000000E+00 -0.15540850818E+03  0.15540850820E+03  0.25500000000E-02 0.  1.
    8880023    1    1    2    0    0  0.44183654958E+01  0.11571412312E+03  0.10152666460E+04  0.12157244132E+04  0.65864270000E+03 0. -1.
    8880022    1    1    2    0    0 -0.44183654958E+01 -0.11571412312E+03  0.11155281315E+03  0.22191206227E+03  0.15294330000E+03 0.  0.
<mgrwt>
<rscale>  0 0.48941539E+03</rscale>
<asrwt>0</asrwt>
<pdfrwt beam="1">  1        2 0.19726584E+00 0.66874471E+03</pdfrwt>
<pdfrwt beam="2">  1       -2 0.23909001E-01 0.66874471E+03</pdfrwt>
<totfact> 0.26734343E+02</totfact>
</mgrwt>
</event>
<event>
 4    2  0.2930016E-007  0.8458380E+03  0.7818608E-02  0.9619269E-01
          2   -1    0    0  501    0  0.00000000000E+00  0.00000000000E+00  0.15989146470E+04  0.15989146470E+04  0.25500000000E-02 0. -1.
         -2   -1    0    0    0  501 -0.00000000000E+00 -0.00000000000E+00 -0.38141542164E+03  0.38141542165E+03  0.25500000000E-02 0.  1.
    8880023    1    1    2    0    0  0.43179547910E+03  0.30851970297E+03  0.11446473459E+04  0.14232566514E+04  0.65864270000E+03 0. -1.
    8880022    1    1    2    0    0 -0.43179547910E+03 -0.30851970297E+03  0.72851879430E+02  0.55707341728E+03  0.15294330000E+03 0.  0.
<mgrwt>
<rscale>  0 0.76033861E+03</rscale>
<asrwt>0</asrwt>
<pdfrwt beam="1">  1        2 0.24598687E+00 0.84583802E+03</pdfrwt>
<pdfrwt beam="2">  1       -2 0.58679296E-01 0.84583802E+03</pdfrwt>
<totfact> 0.30743237E+01</totfact>
</mgrwt>
</event>
<event>
 4    2  0.2930016E-007  0.7984803E+03  0.7818608E-02  0.9714092E-01
          2   -1    0    0  501    0  0.00000000000E+00  0.00000000000E+00  0.90761491032E+03  0.90761491032E+03  0.25500000000E-02 0. -1.
         -2   -1    0    0    0  501 -0.00000000000E+00 -0.00000000000E+00 -0.54737512971E+03  0.54737512972E+03  0.25500000000E-02 0.  1.
    8880023    1    1    2    0    0  0.25152502170E+03 -0.37482760551E+03  0.51935855277E+03  0.95252510886E+03  0.65864270000E+03 0.  0.
    8880022    1    1    2    0    0 -0.25152502170E+03  0.37482760551E+03 -0.15911877216E+03  0.50246493118E+03  0.15294330000E+03 0.  0.
<mgrwt>
<rscale>  0 0.70183945E+03</rscale>
<asrwt>0</asrwt>
<pdfrwt beam="1">  1        2 0.13963306E+00 0.79848029E+03</pdfrwt>
<pdfrwt beam="2">  1       -2 0.84211559E-01 0.79848029E+03</pdfrwt>
<totfact> 0.36044179E+01</totfact>
</mgrwt>
</event>
<event>
 4    2  0.2930016E-007  0.6674696E+03  0.7818608E-02  0.1017546E+00
          2   -1    0    0  501    0  0.00000000000E+00  0.00000000000E+00  0.73537768569E+03  0.73537768570E+03  0.25500000000E-02 0. -1.
         -2   -1    0    0    0  501 -0.00000000000E+00 -0.00000000000E+00 -0.11382830897E+04  0.11382830897E+04  0.25500000000E-02 0.  1.
    8880023    1    1    2    0    0 -0.71904609486E+02 -0.80840572399E+02  0.57315415207E+03  0.87978483694E+03  0.65864270000E+03 0. -1.
    8880022    1    1    2    0    0  0.71904609486E+02  0.80840572399E+02 -0.97605955612E+03  0.99387593850E+03  0.15294330000E+03 0.  0.
<mgrwt>
<rscale>  0 0.48582802E+03</rscale>
<asrwt>0</asrwt>
<pdfrwt beam="1">  1        2 0.11313503E+00 0.66746961E+03</pdfrwt>
<pdfrwt beam="2">  1       -2 0.17512047E+00 0.66746961E+03</pdfrwt>
<totfact> 0.77585897E+00</totfact>
</mgrwt>
</event>
<event>
 4    2  0.2930016E-007  0.6888596E+03  0.7818608E-02  0.1004699E+00
          2   -1    0    0  501    0  0.00000000000E+00  0.00000000000E+00  0.19690704273E+04  0.19690704273E+04  0.25500000000E-02 0. -1.
         -2   -1    0    0    0  501 -0.00000000000E+00 -0.00000000000E+00 -0.31898051861E+03  0.31898051862E+03  0.25500000000E-02 0.  1.
    8880023    1    1    2    0    0  0.19847609125E+03 -0.36395484081E+02  0.18444292641E+04  0.19688694488E+04  0.65864270000E+03 0. -1.
    8880022    1    1    2    0    0 -0.19847609125E+03  0.36395484081E+02 -0.19433935535E+03  0.31918149713E+03  0.15294330000E+03 0.  0.
<mgrwt>
<rscale>  0 0.53636813E+03</rscale>
<asrwt>0</asrwt>
<pdfrwt beam="1">  1        2 0.30293391E+00 0.68885963E+03</pdfrwt>
<pdfrwt beam="2">  1       -2 0.49073927E-01 0.68885963E+03</pdfrwt>
<totfact> 0.28443178E+01</totfact>
</mgrwt>
</event>
<event>
 4    2  0.2930016E-007  0.7752062E+03  0.7818608E-02  0.9767221E-01
          2   -1    0    0  501    0  0.00000000000E+00  0.00000000000E+00  0.12924741262E+04  0.12924741262E+04  0.25500000000E-02 0. -1.
         -2   -1    0    0    0  501 -0.00000000000E+00 -0.00000000000E+00 -0.64263278852E+03  0.64263278852E+03  0.25500000000E-02 0.  1.
    8880023    1    1    2    0    0  0.28399506989E+03 -0.29407701642E+03  0.10752770211E+04  0.13255811441E+04  0.65864270000E+03 0. -1.
    8880022    1    1    2    0    0 -0.28399506989E+03  0.29407701642E+03 -0.42543568340E+03  0.60952577061E+03  0.15294330000E+03 0.  0.
<mgrwt>
<rscale>  0 0.67151739E+03</rscale>
<asrwt>0</asrwt>
<pdfrwt beam="1">  1        2 0.19884217E+00 0.77520623E+03</pdfrwt>
<pdfrwt beam="2">  1       -2 0.98866583E-01 0.77520623E+03</pdfrwt>
<totfact> 0.14422441E+01</totfact>
</mgrwt>
</event>
<event>
 4    2  0.2930016E-007  0.1378449E+04  0.7818608E-02  0.9000612E-01
         -2   -1    0    0    0  501 -0.00000000000E+00  0.00000000000E+00  0.16601871992E+04  0.16601871992E+04  0.25500000000E-02 0.  1.
          2   -1    0    0  501    0  0.00000000000E+00 -0.00000000000E+00 -0.10982969964E+04  0.10982969964E+04  0.25500000000E-02 0. -1.
    8880023    1    1    2    0    0 -0.74275765406E+03  0.95635839108E+03 -0.77481028750E+02  0.13806244315E+04  0.65864270000E+03 0.  1.
    8880022    1    1    2    0    0  0.74275765406E+03 -0.95635839108E+03  0.63937123148E+03  0.13778597641E+04  0.15294330000E+03 0.  0.
<mgrwt>
<rscale>  0 0.13371507E+04</rscale>
<asrwt>0</asrwt>
<pdfrwt beam="1">  1        2 0.16896877E+00 0.13784486E+04</pdfrwt>
<pdfrwt beam="2">  1       -2 0.25541342E+00 0.13784486E+04</pdfrwt>
<totfact> 0.12429895E+00</totfact>
</mgrwt>
</event>
<event>
 4    2  0.2930016E-007  0.6678428E+03  0.7818608E-02  0.1017259E+00
          2   -1    0    0  501    0  0.00000000000E+00  0.00000000000E+00  0.51090950757E+03  0.51090950757E+03  0.25500000000E-02 0. -1.
         -2   -1    0    0    0  501 -0.00000000000E+00 -0.00000000000E+00 -0.44873037354E+03  0.44873037355E+03  0.25500000000E-02 0.  1.
    8880023    1    1    2    0    0  0.73027917210E+02  0.82889585708E+02  0.23080221545E+03  0.70660004885E+03  0.65864270000E+03 0. -1.
    8880022    1    1    2    0    0 -0.73027917210E+02 -0.82889585708E+02 -0.16862308143E+03  0.25303983227E+03  0.15294330000E+03 0.  0.
<mgrwt>
<rscale>  0 0.48688896E+03</rscale>
<asrwt>0</asrwt>
<pdfrwt beam="1">  1        2 0.78601463E-01 0.66784277E+03</pdfrwt>
<pdfrwt beam="2">  1       -2 0.69035442E-01 0.66784277E+03</pdfrwt>
<totfact> 0.11681517E+02</totfact>
</mgrwt>
</event>
<event>
 4    2  0.2930016E-007  0.7629604E+03  0.7818608E-02  0.9797503E-01
          2   -1    0    0  501    0  0.00000000000E+00  0.00000000000E+00  0.14428692867E+04  0.14428692867E+04  0.25500000000E-02 0. -1.
         -2   -1    0    0    0  501 -0.00000000000E+00 -0.00000000000E+00 -0.28669330610E+03  0.28669330611E+03  0.25500000000E-02 0.  1.
    8880023    1    1    2    0    0 -0.76167122171E+02 -0.37748767648E+03  0.10568441188E+04  0.13034677112E+04  0.65864270000E+03 0.  0.
    8880022    1    1    2    0    0  0.76167122171E+02  0.37748767648E+03  0.99331861851E+02  0.42609488167E+03  0.15294330000E+03 0.  0.
<mgrwt>
<rscale>  0 0.65496733E+03</rscale>
<asrwt>0</asrwt>
<pdfrwt beam="1">  1        2 0.22197989E+00 0.76296041E+03</pdfrwt>
<pdfrwt beam="2">  1       -2 0.44106662E-01 0.76296041E+03</pdfrwt>
<totfact> 0.67896653E+01</totfact>
</mgrwt>
</event>
<event>
 4    2  0.2930016E-007  0.1200134E+04  0.7818608E-02  0.9156992E-01
         -2   -1    0    0    0  501 -0.00000000000E+00  0.00000000000E+00  0.12127946056E+04  0.12127946056E+04  0.25500000000E-02 0.  1.
          2   -1    0    0  501    0  0.00000000000E+00 -0.00000000000E+00 -0.17028842925E+04  0.17028842925E+04  0.25500000000E-02 0. -1.
    8880023    1    1    2    0    0 -0.56203278677E+03 -0.83104141154E+03 -0.11843216311E+04  0.16861016023E+04  0.65864270000E+03 0.  0.
    8880022    1    1    2    0    0  0.56203278677E+03  0.83104141154E+03  0.69423194416E+03  0.12295772958E+04  0.15294330000E+03 0.  0.
<mgrwt>
<rscale>  0 0.11508580E+04</rscale>
<asrwt>0</asrwt>
<pdfrwt beam="1">  1        2 0.26198220E+00 0.12001337E+04</pdfrwt>
<pdfrwt beam="2">  1       -2 0.18658378E+00 0.12001337E+04</pdfrwt>
<totfact> 0.15496635E+00</totfact>
</mgrwt>
</event>
<event>
 4    2  0.2930016E-007  0.8740366E+03  0.7818608E-02  0.9569067E-01
          2   -1    0    0  501    0  0.00000000000E+00  0.00000000000E+00  0.26290679084E+04  0.26290679084E+04  0.25500000000E-02 0. -1.
         -2   -1    0    0    0  501 -0.00000000000E+00 -0.00000000000E+00 -0.61832928390E+03  0.61832928390E+03  0.25500000000E-02 0.  1.
    8880023    1    1    2    0    0 -0.40680981461E+03  0.40575307141E+03  0.23882064538E+04  0.25431221072E+04  0.65864270000E+03 0. -1.
    8880022    1    1    2    0    0  0.40680981461E+03 -0.40575307141E+03 -0.37746782930E+03  0.70427508503E+03  0.15294330000E+03 0.  0.
<mgrwt>
<rscale>  0 0.79377823E+03</rscale>
<asrwt>0</asrwt>
<pdfrwt beam="1">  1        2 0.40447199E+00 0.87403660E+03</pdfrwt>
<pdfrwt beam="2">  1       -2 0.95127581E-01 0.87403660E+03</pdfrwt>
<totfact> 0.28031049E+00</totfact>
</mgrwt>
</event>
<event>
 4    2  0.2930016E-007  0.7404156E+03  0.7818608E-02  0.9858738E-01
         -2   -1    0    0    0  501 -0.00000000000E+00  0.00000000000E+00  0.45470952409E+03  0.45470952409E+03  0.25500000000E-02 0.  1.
          2   -1    0    0  501    0  0.00000000000E+00 -0.00000000000E+00 -0.17938198345E+04  0.17938198345E+04  0.25500000000E-02 0. -1.
    8880023    1    1    2    0    0  0.33363801586E+03 -0.55594596477E+02 -0.16212153290E+04  0.17822890994E+04  0.65864270000E+03 0.  0.
    8880022    1    1    2    0    0 -0.33363801586E+03  0.55594596477E+02  0.28210501854E+03  0.46624025918E+03  0.15294330000E+03 0.  0.
<mgrwt>
<rscale>  0 0.62303371E+03</rscale>
<asrwt>0</asrwt>
<pdfrwt beam="1">  1        2 0.27597228E+00 0.74041562E+03</pdfrwt>
<pdfrwt beam="2">  1       -2 0.69955313E-01 0.74041562E+03</pdfrwt>
<totfact> 0.16697193E+01</totfact>
</mgrwt>
</event>
<event>
 4    2  0.2930016E-007  0.6594459E+03  0.7818608E-02  0.1024731E+00
         -2   -1    0    0    0  501 -0.00000000000E+00  0.00000000000E+00  0.19519952107E+03  0.19519952109E+03  0.25500000000E-02 0.  1.
          2   -1    0    0  501    0  0.00000000000E+00 -0.00000000000E+00 -0.11405886758E+04  0.11405886758E+04  0.25500000000E-02 0. -1.
    8880023    1    1    2    0    0  0.21967660615E+02 -0.24001099345E+02 -0.97457881494E+03  0.11767211665E+04  0.65864270000E+03 0. -1.
    8880022    1    1    2    0    0 -0.21967660615E+02  0.24001099345E+02  0.29189660211E+02  0.15906703040E+03  0.15294330000E+03 0.  0.
<mgrwt>
<rscale>  0 0.46017164E+03</rscale>
<asrwt>0</asrwt>
<pdfrwt beam="1">  1        2 0.17547518E+00 0.65944586E+03</pdfrwt>
<pdfrwt beam="2">  1       -2 0.30030696E-01 0.65944586E+03</pdfrwt>
<totfact> 0.21400428E+02</totfact>
</mgrwt>
</event>
<event>
 4    2  0.2930016E-007  0.1466059E+04  0.7818608E-02  0.8933982E-01
         -2   -1    0    0    0  501 -0.00000000000E+00  0.00000000000E+00  0.85272709964E+03  0.85272709964E+03  0.25500000000E-02 0.  1.
          2   -1    0    0  501    0  0.00000000000E+00 -0.00000000000E+00 -0.31676154347E+04  0.31676154347E+04  0.25500000000E-02 0. -1.
    8880023    1    1    2    0    0 -0.12622723306E+04 -0.34955472789E+03 -0.22683072778E+04  0.27008421015E+04  0.65864270000E+03 0.  0.
    8880022    1    1    2    0    0  0.12622723306E+04  0.34955472789E+03 -0.46581057200E+02  0.13195004328E+04  0.15294330000E+03 0.  0.
<mgrwt>
<rscale>  0 0.14277375E+04</rscale>
<asrwt>0</asrwt>
<pdfrwt beam="1">  1        2 0.48732544E+00 0.14660594E+04</pdfrwt>
<pdfrwt beam="2">  1       -2 0.13118879E+00 0.14660594E+04</pdfrwt>
<totfact> 0.55226887E-01</totfact>
</mgrwt>
</event>
<event>
 4    2  0.2930016E-007  0.8975545E+03  0.7818608E-02  0.9529969E-01
          2   -1    0    0  501    0  0.00000000000E+00  0.00000000000E+00  0.15178219624E+04  0.15178219624E+04  0.25500000000E-02 0. -1.
         -2   -1    0    0    0  501 -0.00000000000E+00 -0.00000000000E+00 -0.51985316452E+03  0.51985316452E+03  0.25500000000E-02 0.  1.
    8880023    1    1    2    0    0 -0.34768074296E+03 -0.50091106171E+03  0.10793620659E+04  0.14037900364E+04  0.65864270000E+03 0.  0.
    8880022    1    1    2    0    0  0.34768074296E+03  0.50091106171E+03 -0.81393268095E+02  0.63388509044E+03  0.15294330000E+03 0.  0.
<mgrwt>
<rscale>  0 0.82109938E+03</rscale>
<asrwt>0</asrwt>
<pdfrwt beam="1">  1        2 0.23351107E+00 0.89755445E+03</pdfrwt>
<pdfrwt beam="2">  1       -2 0.79977411E-01 0.89755445E+03</pdfrwt>
<totfact> 0.17281539E+01</totfact>
</mgrwt>
</event>
<event>
 4    2  0.2930016E-007  0.8539188E+03  0.7818608E-02  0.9604474E-01
          2   -1    0    0  501    0  0.00000000000E+00  0.00000000000E+00  0.30066083432E+04  0.30066083432E+04  0.25500000000E-02 0. -1.
         -2   -1    0    0    0  501 -0.00000000000E+00 -0.00000000000E+00 -0.68775708217E+03  0.68775708218E+03  0.25500000000E-02 0.  1.
    8880023    1    1    2    0    0  0.45487075167E+03 -0.29742189301E+03  0.28156712497E+04  0.29423089532E+04  0.65864270000E+03 0. -1.
    8880022    1    1    2    0    0 -0.45487075167E+03  0.29742189301E+03 -0.49681998871E+03  0.75205647219E+03  0.15294330000E+03 0.  0.
<mgrwt>
<rscale>  0 0.77000798E+03</rscale>
<asrwt>0</asrwt>
<pdfrwt beam="1">  1        2 0.46255513E+00 0.85391884E+03</pdfrwt>
<pdfrwt beam="2">  1       -2 0.10580878E+00 0.85391884E+03</pdfrwt>
<totfact> 0.13013982E+00</totfact>
</mgrwt>
</event>
<event>
 4    2  0.2930016E-007  0.7146473E+03  0.7818608E-02  0.9941132E-01
          2   -1    0    0  501    0  0.00000000000E+00  0.00000000000E+00  0.26305000392E+04  0.26305000392E+04  0.25500000000E-02 0. -1.
         -2   -1    0    0    0  501 -0.00000000000E+00 -0.00000000000E+00 -0.26793739589E+03  0.26793739590E+03  0.25500000000E-02 0.  1.
    8880023    1    1    2    0    0  0.28629948351E+02 -0.27584576834E+03  0.24642685272E+04  0.25658020466E+04  0.65864270000E+03 0. -1.
    8880022    1    1    2    0    0 -0.28629948351E+02  0.27584576834E+03 -0.10170588390E+03  0.33263538851E+03  0.15294330000E+03 0.  0.
<mgrwt>
<rscale>  0 0.58308603E+03</rscale>
<asrwt>0</asrwt>
<pdfrwt beam="1">  1        2 0.40469231E+00 0.71464730E+03</pdfrwt>
<pdfrwt beam="2">  1       -2 0.41221138E-01 0.71464730E+03</pdfrwt>
<totfact> 0.17188446E+01</totfact>
</mgrwt>
</event>
<event>
 4    2  0.2930016E-007  0.7361386E+03  0.7818608E-02  0.9871341E-01
          2   -1    0    0  501    0  0.00000000000E+00  0.00000000000E+00  0.16448294293E+04  0.16448294293E+04  0.25500000000E-02 0. -1.
         -2   -1    0    0    0  501 -0.00000000000E+00 -0.00000000000E+00 -0.39715324547E+03  0.39715324548E+03  0.25500000000E-02 0.  1.
    8880023    1    1    2    0    0  0.26824650533E+03 -0.19008842070E+03  0.14504284943E+04  0.16265432115E+04  0.65864270000E+03 0. -1.
    8880022    1    1    2    0    0 -0.26824650533E+03  0.19008842070E+03 -0.20275231046E+03  0.41543946336E+03  0.15294330000E+03 0.  0.
<mgrwt>
<rscale>  0 0.61670539E+03</rscale>
<asrwt>0</asrwt>
<pdfrwt beam="1">  1        2 0.25305068E+00 0.73613857E+03</pdfrwt>
<pdfrwt beam="2">  1       -2 0.61100499E-01 0.73613857E+03</pdfrwt>
<totfact> 0.26961163E+01</totfact>
</mgrwt>
</event>
<event>
 4    2  0.2930016E-007  0.6741817E+03  0.7818608E-02  0.1012827E+00
          2   -1    0    0  501    0  0.00000000000E+00  0.00000000000E+00  0.13523890539E+04  0.13523890539E+04  0.25500000000E-02 0. -1.
         -2   -1    0    0    0  501 -0.00000000000E+00 -0.00000000000E+00 -0.39214967405E+03  0.39214967406E+03  0.25500000000E-02 0.  1.
    8880023    1    1    2    0    0 -0.17210668447E+02 -0.14287966959E+03  0.12300141464E+04  0.14026602631E+04  0.65864270000E+03 0. -1.
    8880022    1    1    2    0    0  0.17210668447E+02  0.14287966959E+03 -0.26977476652E+03  0.34187846489E+03  0.15294330000E+03 0.  0.
<mgrwt>
<rscale>  0 0.50366363E+03</rscale>
<asrwt>0</asrwt>
<pdfrwt beam="1">  1        2 0.20805985E+00 0.67418174E+03</pdfrwt>
<pdfrwt beam="2">  1       -2 0.60330720E-01 0.67418174E+03</pdfrwt>
<totfact> 0.40592139E+01</totfact>
</mgrwt>
</event>
<event>
 4    2  0.2930016E-007  0.6995120E+03  0.7818608E-02  0.9999232E-01
          2   -1    0    0  501    0  0.00000000000E+00  0.00000000000E+00  0.34439875978E+03  0.34439875979E+03  0.25500000000E-02 0. -1.
         -2   -1    0    0    0  501 -0.00000000000E+00 -0.00000000000E+00 -0.70792970220E+03  0.70792970221E+03  0.25500000000E-02 0.  1.
    8880023    1    1    2    0    0 -0.10261778088E+03 -0.21207642110E+03 -0.31546872057E+03  0.76735750290E+03  0.65864270000E+03 0.  1.
    8880022    1    1    2    0    0  0.10261778088E+03  0.21207642110E+03 -0.48062221857E+02  0.28497095909E+03  0.15294330000E+03 0.  0.
<mgrwt>
<rscale>  0 0.55683938E+03</rscale>
<asrwt>0</asrwt>
<pdfrwt beam="1">  1        2 0.52984425E-01 0.69951199E+03</pdfrwt>
<pdfrwt beam="2">  1       -2 0.10891226E+00 0.69951199E+03</pdfrwt>
<totfact> 0.64181517E+01</totfact>
</mgrwt>
</event>
<event>
 4    2  0.2930016E-007  0.6644736E+03  0.7818608E-02  0.1019979E+00
         -2   -1    0    0    0  501 -0.00000000000E+00  0.00000000000E+00  0.13929768268E+03  0.13929768270E+03  0.25500000000E-02 0.  1.
          2   -1    0    0  501    0  0.00000000000E+00 -0.00000000000E+00 -0.34726553575E+04  0.34726553575E+04  0.25500000000E-02 0. -1.
    8880023    1    1    2    0    0 -0.63795332590E+02  0.60375015162E+02 -0.33673950940E+04  0.34323279144E+04  0.65864270000E+03 0. -1.
    8880022    1    1    2    0    0  0.63795332590E+02 -0.60375015162E+02  0.34037419108E+02  0.17962512583E+03  0.15294330000E+03 0.  0.
<mgrwt>
<rscale>  0 0.47694132E+03</rscale>
<asrwt>0</asrwt>
<pdfrwt beam="1">  1        2 0.53425461E+00 0.66447362E+03</pdfrwt>
<pdfrwt beam="2">  1       -2 0.21430415E-01 0.66447362E+03</pdfrwt>
<totfact> 0.17556812E+01</totfact>
</mgrwt>
</event>
<event>
 4    2  0.2930016E-007  0.7280476E+03  0.7818608E-02  0.9896241E-01
          2   -1    0    0  501    0  0.00000000000E+00  0.00000000000E+00  0.43114820536E+03  0.43114820537E+03  0.25500000000E-02 0. -1.
         -2   -1    0    0    0  501 -0.00000000000E+00 -0.00000000000E+00 -0.83465977460E+03  0.83465977460E+03  0.25500000000E-02 0.  1.
    8880023    1    1    2    0    0  0.10410014013E+03 -0.29224346668E+03  0.81945252909E+01  0.72809370242E+03  0.65864270000E+03 0. -1.
    8880022    1    1    2    0    0 -0.10410014013E+03  0.29224346668E+03 -0.41170609453E+03  0.53771427755E+03  0.15294330000E+03 0.  1.
<mgrwt>
<rscale>  0 0.60443832E+03</rscale>
<asrwt>0</asrwt>
<pdfrwt beam="1">  1        2 0.66330493E-01 0.72804759E+03</pdfrwt>
<pdfrwt beam="2">  1       -2 0.12840920E+00 0.72804759E+03</pdfrwt>
<totfact> 0.33166999E+01</totfact>
</mgrwt>
</event>
<event>
 4    2  0.2930016E-007  0.7671867E+03  0.7818608E-02  0.9786845E-01
         -2   -1    0    0    0  501 -0.00000000000E+00  0.00000000000E+00  0.29012762755E+04  0.29012762755E+04  0.25500000000E-02 0.  1.
          2   -1    0    0  501    0  0.00000000000E+00 -0.00000000000E+00 -0.42919309821E+03  0.42919309822E+03  0.25500000000E-02 0. -1.
    8880023    1    1    2    0    0  0.13199725781E+03 -0.37059680901E+03 -0.54265589170E+02  0.76910352447E+03  0.65864270000E+03 0. -1.
    8880022    1    1    2    0    0 -0.13199725781E+03  0.37059680901E+03  0.25263487664E+04  0.25613658492E+04  0.15294330000E+03 0.  0.
<mgrwt>
<rscale>  0 0.66073323E+03</rscale>
<asrwt>0</asrwt>
<pdfrwt beam="1">  1        2 0.66029705E-01 0.76718673E+03</pdfrwt>
<pdfrwt beam="2">  1       -2 0.44635021E+00 0.76718673E+03</pdfrwt>
<totfact> 0.28626063E-01</totfact>
</mgrwt>
</event>
<event>
 4    2  0.2930016E-007  0.7049374E+03  0.7818608E-02  0.9977304E-01
          2   -1    0    0  501    0  0.00000000000E+00  0.00000000000E+00  0.49365242947E+03  0.49365242948E+03  0.25500000000E-02 0. -1.
         -2   -1    0    0    0  501 -0.00000000000E+00 -0.00000000000E+00 -0.12990518479E+04  0.12990518479E+04  0.25500000000E-02 0.  1.
    8880023    1    1    2    0    0 -0.14835405149E+03  0.20277473382E+03  0.21000638417E+03  0.73555380832E+03  0.65864270000E+03 0. -1.
    8880022    1    1    2    0    0  0.14835405149E+03 -0.20277473382E+03 -0.10154058026E+04  0.10571504690E+04  0.15294330000E+03 0.  0.
<mgrwt>
<rscale>  0 0.56656707E+03</rscale>
<asrwt>0</asrwt>
<pdfrwt beam="1">  1        2 0.75946528E-01 0.70493739E+03</pdfrwt>
<pdfrwt beam="2">  1       -2 0.19985413E+00 0.70493739E+03</pdfrwt>
<totfact> 0.85355172E+00</totfact>
</mgrwt>
</event>
<event>
 4    2  0.2930016E-007  0.6607582E+03  0.7818608E-02  0.1023393E+00
         -2   -1    0    0    0  501 -0.00000000000E+00  0.00000000000E+00  0.14059341037E+04  0.14059341037E+04  0.25500000000E-02 0.  1.
          2   -1    0    0  501    0  0.00000000000E+00 -0.00000000000E+00 -0.37663998864E+03  0.37663998865E+03  0.25500000000E-02 0. -1.
    8880023    1    1    2    0    0 -0.33307376079E+02 -0.41009715484E+02 -0.76347760187E+02  0.66515439171E+03  0.65864270000E+03 0. -1.
    8880022    1    1    2    0    0  0.33307376079E+02  0.41009715484E+02  0.11056418752E+04  0.11174197006E+04  0.15294330000E+03 0.  0.
<mgrwt>
<rscale>  0 0.46481913E+03</rscale>
<asrwt>0</asrwt>
<pdfrwt beam="1">  1        2 0.57944614E-01 0.66075819E+03</pdfrwt>
<pdfrwt beam="2">  1       -2 0.21629755E+00 0.66075819E+03</pdfrwt>
<totfact> 0.91593918E+00</totfact>
</mgrwt>
</event>
<event>
 4    2  0.2930016E-007  0.8155512E+03  0.7818608E-02  0.9678128E-01
         -2   -1    0    0    0  501 -0.00000000000E+00  0.00000000000E+00  0.43113423743E+03  0.43113423744E+03  0.25500000000E-02 0.  1.
          2   -1    0    0  501    0  0.00000000000E+00 -0.00000000000E+00 -0.19779073529E+04  0.19779073529E+04  0.25500000000E-02 0. -1.
    8880023    1    1    2    0    0 -0.11392628312E+03 -0.46726270045E+03 -0.16967259049E+04  0.18825521591E+04  0.65864270000E+03 0.  0.
    8880022    1    1    2    0    0  0.11392628312E+03  0.46726270045E+03  0.14995278934E+03  0.52648943129E+03  0.15294330000E+03 0.  0.
<mgrwt>
<rscale>  0 0.72334117E+03</rscale>
<asrwt>0</asrwt>
<pdfrwt beam="1">  1        2 0.30429343E+00 0.81555125E+03</pdfrwt>
<pdfrwt beam="2">  1       -2 0.66328346E-01 0.81555125E+03</pdfrwt>
<totfact> 0.14723327E+01</totfact>
</mgrwt>
</event>
<event>
 4    2  0.2930016E-007  0.6777640E+03  0.7818608E-02  0.1010618E+00
          2   -1    0    0  501    0  0.00000000000E+00  0.00000000000E+00  0.99067358743E+03  0.99067358743E+03  0.25500000000E-02 0. -1.
         -2   -1    0    0    0  501 -0.00000000000E+00 -0.00000000000E+00 -0.28858827967E+03  0.28858827968E+03  0.25500000000E-02 0.  1.
    8880023    1    1    2    0    0 -0.19365958286E+02 -0.15867823887E+03  0.79026761423E+03  0.10410989061E+04  0.65864270000E+03 0. -1.
    8880022    1    1    2    0    0  0.19365958286E+02  0.15867823887E+03 -0.88182306471E+02  0.23816296106E+03  0.15294330000E+03 0.  0.
<mgrwt>
<rscale>  0 0.51229833E+03</rscale>
<asrwt>0</asrwt>
<pdfrwt beam="1">  1        2 0.15241132E+00 0.67776399E+03</pdfrwt>
<pdfrwt beam="2">  1       -2 0.44398197E-01 0.67776399E+03</pdfrwt>
<totfact> 0.12506222E+02</totfact>
</mgrwt>
</event>
<event>
 4    2  0.2930016E-007  0.8586186E+03  0.7818608E-02  0.9596025E-01
          2   -1    0    0  501    0  0.00000000000E+00  0.00000000000E+00  0.23146691836E+04  0.23146691836E+04  0.25500000000E-02 0. -1.
         -2   -1    0    0    0  501 -0.00000000000E+00 -0.00000000000E+00 -0.35210444611E+03  0.35210444612E+03  0.25500000000E-02 0.  1.
    8880023    1    1    2    0    0 -0.19281789707E+03 -0.51598151419E+03  0.19082592999E+04  0.20925294326E+04  0.65864270000E+03 0.  0.
    8880022    1    1    2    0    0  0.19281789707E+03  0.51598151419E+03  0.54305437659E+02  0.57424419718E+03  0.15294330000E+03 0.  0.
<mgrwt>
<rscale>  0 0.77559801E+03</rscale>
<asrwt>0</asrwt>
<pdfrwt beam="1">  1        2 0.35610293E+00 0.85861858E+03</pdfrwt>
<pdfrwt beam="2">  1       -2 0.54169918E-01 0.85861858E+03</pdfrwt>
<totfact> 0.14646393E+01</totfact>
</mgrwt>
</event>
<event>
 4    2  0.2930016E-007  0.7151522E+03  0.7818608E-02  0.9939344E-01
         -2   -1    0    0    0  501 -0.00000000000E+00  0.00000000000E+00  0.63006834152E+03  0.63006834152E+03  0.25500000000E-02 0.  1.
          2   -1    0    0  501    0  0.00000000000E+00 -0.00000000000E+00 -0.12491015069E+04  0.12491015069E+04  0.25500000000E-02 0. -1.
    8880023    1    1    2    0    0 -0.12617388809E+03 -0.24842015247E+03 -0.10943919423E+04  0.13073394172E+04  0.65864270000E+03 0. -1.
    8880022    1    1    2    0    0  0.12617388809E+03  0.24842015247E+03  0.47535877695E+03  0.57183043118E+03  0.15294330000E+03 0.  0.
<mgrwt>
<rscale>  0 0.58391813E+03</rscale>
<asrwt>0</asrwt>
<pdfrwt beam="1">  1        2 0.19216946E+00 0.71515217E+03</pdfrwt>
<pdfrwt beam="2">  1       -2 0.96933592E-01 0.71515217E+03</pdfrwt>
<totfact> 0.16126429E+01</totfact>
</mgrwt>
</event>
<event>
 4    2  0.2930016E-007  0.6625086E+03  0.7818608E-02  0.1021722E+00
          2   -1    0    0  501    0  0.00000000000E+00  0.00000000000E+00  0.13704097397E+04  0.13704097397E+04  0.25500000000E-02 0. -1.
         -2   -1    0    0    0  501 -0.00000000000E+00 -0.00000000000E+00 -0.20013153340E+03  0.20013153342E+03  0.25500000000E-02 0.  1.
    8880023    1    1    2    0    0  0.67860013407E+02 -0.22415250994E+02  0.12253384894E+04  0.13929723776E+04  0.65864270000E+03 0. -1.
    8880022    1    1    2    0    0 -0.67860013407E+02  0.22415250994E+02 -0.55060283032E+02  0.17756889558E+03  0.15294330000E+03 0.  0.
<mgrwt>
<rscale>  0 0.47070356E+03</rscale>
<asrwt>0</asrwt>
<pdfrwt beam="1">  1        2 0.21083227E+00 0.66250859E+03</pdfrwt>
<pdfrwt beam="2">  1       -2 0.30789466E-01 0.66250859E+03</pdfrwt>
<totfact> 0.15017568E+02</totfact>
</mgrwt>
</event>
<event>
 4    2  0.2930016E-007  0.7390457E+03  0.7818608E-02  0.9862736E-01
          2   -1    0    0  501    0  0.00000000000E+00  0.00000000000E+00  0.16012340591E+04  0.16012340591E+04  0.25500000000E-02 0. -1.
         -2   -1    0    0    0  501 -0.00000000000E+00 -0.00000000000E+00 -0.44737703292E+03  0.44737703293E+03  0.25500000000E-02 0.  1.
    8880023    1    1    2    0    0  0.21977579438E+03  0.25313428997E+03  0.14154166466E+04  0.15967444561E+04  0.65864270000E+03 0.  0.
    8880022    1    1    2    0    0 -0.21977579438E+03 -0.25313428997E+03 -0.26155962042E+03  0.45186663586E+03  0.15294330000E+03 0.  0.
<mgrwt>
<rscale>  0 0.62101768E+03</rscale>
<asrwt>0</asrwt>
<pdfrwt beam="1">  1        2 0.24634370E+00 0.73904572E+03</pdfrwt>
<pdfrwt beam="2">  1       -2 0.68827236E-01 0.73904572E+03</pdfrwt>
<totfact> 0.22056366E+01</totfact>
</mgrwt>
</event>
<event>
 4    2  0.2930016E-007  0.8651502E+03  0.7818608E-02  0.9584467E-01
          2   -1    0    0  501    0  0.00000000000E+00  0.00000000000E+00  0.31796079723E+04  0.31796079723E+04  0.25500000000E-02 0. -1.
         -2   -1    0    0    0  501 -0.00000000000E+00 -0.00000000000E+00 -0.30596569781E+03  0.30596569782E+03  0.25500000000E-02 0.  1.
    8880023    1    1    2    0    0  0.52488251674E+03  0.19792152202E+03  0.27609419020E+04  0.28933172964E+04  0.65864270000E+03 0. -1.
    8880022    1    1    2    0    0 -0.52488251674E+03 -0.19792152202E+03  0.11270037252E+03  0.59225637374E+03  0.15294330000E+03 0.  0.
<mgrwt>
<rscale>  0 0.78332835E+03</rscale>
<asrwt>0</asrwt>
<pdfrwt beam="1">  1        2 0.48917050E+00 0.86515016E+03</pdfrwt>
<pdfrwt beam="2">  1       -2 0.47071642E-01 0.86515016E+03</pdfrwt>
<totfact> 0.60021355E+00</totfact>
</mgrwt>
</event>
<event>
 4    2  0.2930016E-007  0.6956079E+03  0.7818608E-02  0.1001593E+00
         -2   -1    0    0    0  501 -0.00000000000E+00  0.00000000000E+00  0.87992620030E+03  0.87992620031E+03  0.25500000000E-02 0.  1.
          2   -1    0    0  501    0  0.00000000000E+00 -0.00000000000E+00 -0.11948122060E+04  0.11948122060E+04  0.25500000000E-02 0. -1.
    8880023    1    1    2    0    0 -0.15209256132E+03  0.16409731761E+03 -0.10678801120E+04  0.12744560474E+04  0.65864270000E+03 0. -1.
    8880022    1    1    2    0    0  0.15209256132E+03 -0.16409731761E+03  0.75299410631E+03  0.80028235892E+03  0.15294330000E+03 0.  0.
<mgrwt>
<rscale>  0 0.54957075E+03</rscale>
<asrwt>0</asrwt>
<pdfrwt beam="1">  1        2 0.18381726E+00 0.69560785E+03</pdfrwt>
<pdfrwt beam="2">  1       -2 0.13537326E+00 0.69560785E+03</pdfrwt>
<totfact> 0.76820292E+00</totfact>
</mgrwt>
</event>
<event>
 4    2  0.2930016E-007  0.8014631E+03  0.7818608E-02  0.9707642E-01
         -2   -1    0    0    0  501 -0.00000000000E+00  0.00000000000E+00  0.26499346264E+03  0.26499346266E+03  0.25500000000E-02 0.  1.
          2   -1    0    0  501    0  0.00000000000E+00 -0.00000000000E+00 -0.16808924673E+04  0.16808924673E+04  0.25500000000E-02 0. -1.
    8880023    1    1    2    0    0 -0.11468010583E+03  0.44201956487E+03 -0.11315095236E+04  0.13865990158E+04  0.65864270000E+03 0.  0.
    8880022    1    1    2    0    0  0.11468010583E+03 -0.44201956487E+03 -0.28438948110E+03  0.55928691419E+03  0.15294330000E+03 0.  0.
<mgrwt>
<rscale>  0 0.70563636E+03</rscale>
<asrwt>0</asrwt>
<pdfrwt beam="1">  1        2 0.25859883E+00 0.80146306E+03</pdfrwt>
<pdfrwt beam="2">  1       -2 0.40768226E-01 0.80146306E+03</pdfrwt>
<totfact> 0.58304060E+01</totfact>
</mgrwt>
</event>
<event>
 4    2  0.2930016E-007  0.6620798E+03  0.7818608E-02  0.1022120E+00
         -2   -1    0    0    0  501 -0.00000000000E+00  0.00000000000E+00  0.22712022081E+03  0.22712022082E+03  0.25500000000E-02 0.  1.
          2   -1    0    0  501    0  0.00000000000E+00 -0.00000000000E+00 -0.16889602800E+04  0.16889602800E+04  0.25500000000E-02 0. -1.
    8880023    1    1    2    0    0  0.56192889543E+02 -0.37172774699E+02 -0.15788594990E+04  0.17120592805E+04  0.65864270000E+03 0. -1.
    8880022    1    1    2    0    0 -0.56192889543E+02  0.37172774699E+02  0.11701943985E+03  0.20402122030E+03  0.15294330000E+03 0.  0.
<mgrwt>
<rscale>  0 0.46929268E+03</rscale>
<asrwt>0</asrwt>
<pdfrwt beam="1">  1        2 0.25984003E+00 0.66207980E+03</pdfrwt>
<pdfrwt beam="2">  1       -2 0.34941574E-01 0.66207980E+03</pdfrwt>
<totfact> 0.78882717E+01</totfact>
</mgrwt>
</event>
<event>
 4    2  0.2961408E-007  0.8452106E+03  0.7818608E-02  0.9620432E-01
          2   -1    0    0  501    0  0.00000000000E+00  0.00000000000E+00  0.18323775927E+04  0.18323775927E+04  0.25500000000E-02 0. -1.
         -2   -1    0    0    0  501 -0.00000000000E+00 -0.00000000000E+00 -0.13536675848E+04  0.13536675848E+04  0.25500000000E-02 0.  1.
    8880023    1    1    2    0    0 -0.93771041719E+02 -0.52132305554E+03  0.16709210352E+04  0.18725271824E+04  0.65864270000E+03 0. -1.
    8880022    1    1    2    0    0  0.93771041719E+02  0.52132305554E+03 -0.11922110274E+04  0.13135179950E+04  0.15294330000E+03 0.  0.
<mgrwt>
<rscale>  0 0.75958465E+03</rscale>
<asrwt>0</asrwt>
<pdfrwt beam="1">  1        2 0.28190425E+00 0.84521059E+03</pdfrwt>
<pdfrwt beam="2">  1       -2 0.20825655E+00 0.84521059E+03</pdfrwt>
<totfact> 0.99470908E-01</totfact>
</mgrwt>
</event>
<event>
 4    2  0.2930016E-007  0.7087911E+03  0.7818608E-02  0.9962518E-01
         -2   -1    0    0    0  501 -0.00000000000E+00  0.00000000000E+00  0.17570985623E+03  0.17570985625E+03  0.25500000000E-02 0.  1.
          2   -1    0    0  501    0  0.00000000000E+00 -0.00000000000E+00 -0.31033603610E+04  0.31033603610E+04  0.25500000000E-02 0. -1.
    8880023    1    1    2    0    0 -0.25857857024E+03 -0.41372968516E+02 -0.28874331202E+04  0.29731557022E+04  0.65864270000E+03 0. -1.
    8880022    1    1    2    0    0  0.25857857024E+03  0.41372968516E+02 -0.40217384600E+02  0.30591451510E+03  0.15294330000E+03 0.  0.
<mgrwt>
<rscale>  0 0.57324760E+03</rscale>
<asrwt>0</asrwt>
<pdfrwt beam="1">  1        2 0.47744002E+00 0.70879109E+03</pdfrwt>
<pdfrwt beam="2">  1       -2 0.27032288E-01 0.70879109E+03</pdfrwt>
<totfact> 0.19918558E+01</totfact>
</mgrwt>
</event>
<event>
 4    2  0.2930016E-007  0.8463098E+03  0.7818608E-02  0.9618395E-01
          2   -1    0    0  501    0  0.00000000000E+00  0.00000000000E+00  0.80217920141E+03  0.80217920142E+03  0.25500000000E-02 0. -1.
         -2   -1    0    0    0  501 -0.00000000000E+00 -0.00000000000E+00 -0.78058687541E+03  0.78058687542E+03  0.25500000000E-02 0.  1.
    8880023    1    1    2    0    0 -0.67302527735E+02  0.52716262045E+03  0.37585158931E+03  0.92601548696E+03  0.65864270000E+03 0. -1.
    8880022    1    1    2    0    0  0.67302527735E+02 -0.52716262045E+03 -0.35425926331E+03  0.65675058987E+03  0.15294330000E+03 0.  1.
<mgrwt>
<rscale>  0 0.76090522E+03</rscale>
<asrwt>0</asrwt>
<pdfrwt beam="1">  1        2 0.12341218E+00 0.84630979E+03</pdfrwt>
<pdfrwt beam="2">  1       -2 0.12009029E+00 0.84630979E+03</pdfrwt>
<totfact> 0.18292933E+01</totfact>
</mgrwt>
</event>
<event>
 4    2  0.2930016E-007  0.6845475E+03  0.7818608E-02  0.1006860E+00
          2   -1    0    0  501    0  0.00000000000E+00  0.00000000000E+00  0.20002892960E+04  0.20002892960E+04  0.25500000000E-02 0. -1.
         -2   -1    0    0    0  501 -0.00000000000E+00 -0.00000000000E+00 -0.18598462735E+03  0.18598462737E+03  0.25500000000E-02 0.  1.
    8880023    1    1    2    0    0  0.10013693691E+03  0.15737727645E+03  0.18205276025E+04  0.19449745425E+04  0.65864270000E+03 0.  0.
    8880022    1    1    2    0    0 -0.10013693691E+03 -0.15737727645E+03 -0.62229338714E+01  0.24129938085E+03  0.15294330000E+03 0.  0.
<mgrwt>
<rscale>  0 0.52741880E+03</rscale>
<asrwt>0</asrwt>
<pdfrwt beam="1">  1        2 0.30773682E+00 0.68454746E+03</pdfrwt>
<pdfrwt beam="2">  1       -2 0.28613019E-01 0.68454746E+03</pdfrwt>
<totfact> 0.77408327E+01</totfact>
</mgrwt>
</event>
<event>
 4    2  0.2930016E-007  0.8444641E+03  0.7818608E-02  0.9621819E-01
         -2   -1    0    0    0  501 -0.00000000000E+00  0.00000000000E+00  0.39772183233E+03  0.39772183234E+03  0.25500000000E-02 0.  1.
          2   -1    0    0  501    0  0.00000000000E+00 -0.00000000000E+00 -0.15201072593E+04  0.15201072594E+04  0.25500000000E-02 0. -1.
    8880023    1    1    2    0    0  0.16442771797E+03  0.50226785405E+03 -0.10729800466E+04  0.13654324803E+04  0.65864270000E+03 0. -1.
    8880022    1    1    2    0    0 -0.16442771797E+03 -0.50226785405E+03 -0.49405380440E+02  0.55239661139E+03  0.15294330000E+03 0.  0.
<mgrwt>
<rscale>  0 0.75868703E+03</rscale>
<asrwt>0</asrwt>
<pdfrwt beam="1">  1        2 0.23386265E+00 0.84446414E+03</pdfrwt>
<pdfrwt beam="2">  1       -2 0.61187975E-01 0.84446414E+03</pdfrwt>
<totfact> 0.31127109E+01</totfact>
</mgrwt>
</event>
<event>
 4    2  0.2930016E-007  0.1106328E+04  0.7818608E-02  0.9254043E-01
         -2   -1    0    0    0  501 -0.00000000000E+00  0.00000000000E+00  0.71276831488E+03  0.71276831489E+03  0.25500000000E-02 0.  1.
          2   -1    0    0  501    0  0.00000000000E+00 -0.00000000000E+00 -0.30629346026E+04  0.30629346026E+04  0.25500000000E-02 0. -1.
    8880023    1    1    2    0    0  0.55967755870E+03  0.69058811530E+03 -0.26118876084E+04  0.28365327426E+04  0.65864270000E+03 0.  0.
    8880022    1    1    2    0    0 -0.55967755870E+03 -0.69058811530E+03  0.26172132067E+03  0.93917017489E+03  0.15294330000E+03 0.  0.
<mgrwt>
<rscale>  0 0.10512606E+04</rscale>
<asrwt>0</asrwt>
<pdfrwt beam="1">  1        2 0.47122070E+00 0.11063278E+04</pdfrwt>
<pdfrwt beam="2">  1       -2 0.10965667E+00 0.11063278E+04</pdfrwt>
<totfact> 0.10556932E+00</totfact>
</mgrwt>
</event>
<event>
 4    2  0.2930016E-007  0.6686753E+03  0.7818608E-02  0.1016631E+00
          2   -1    0    0  501    0  0.00000000000E+00  0.00000000000E+00  0.24162063065E+04  0.24162063065E+04  0.25500000000E-02 0. -1.
         -2   -1    0    0    0  501 -0.00000000000E+00 -0.00000000000E+00 -0.13295733972E+03  0.13295733975E+03  0.25500000000E-02 0.  1.
    8880023    1    1    2    0    0 -0.42362529324E+01 -0.11531914038E+03  0.22591844052E+04  0.23560646920E+04  0.65864270000E+03 0. -1.
    8880022    1    1    2    0    0  0.42362529324E+01  0.11531914038E+03  0.24064561534E+02  0.19309895420E+03  0.15294330000E+03 0.  0.
<mgrwt>
<rscale>  0 0.48922282E+03</rscale>
<asrwt>0</asrwt>
<pdfrwt beam="1">  1        2 0.37172400E+00 0.66867530E+03</pdfrwt>
<pdfrwt beam="2">  1       -2 0.20454978E-01 0.66867530E+03</pdfrwt>
<totfact> 0.83596387E+01</totfact>
</mgrwt>
</event>
<event>
 4    2  0.2930016E-007  0.1372603E+04  0.7818608E-02  0.9005269E-01
         -2   -1    0    0    0  501 -0.00000000000E+00  0.00000000000E+00  0.22386435117E+04  0.22386435117E+04  0.25500000000E-02 0.  1.
          2   -1    0    0  501    0  0.00000000000E+00 -0.00000000000E+00 -0.13707217929E+04  0.13707217929E+04  0.25500000000E-02 0. -1.
    8880023    1    1    2    0    0 -0.79654619713E+03 -0.90318469470E+03 -0.76752992267E+03  0.15726222768E+04  0.65864270000E+03 0.  0.
    8880022    1    1    2    0    0  0.79654619713E+03  0.90318469470E+03  0.16354516414E+04  0.20367430278E+04  0.15294330000E+03 0.  0.
<mgrwt>
<rscale>  0 0.13310883E+04</rscale>
<asrwt>0</asrwt>
<pdfrwt beam="1">  1        2 0.21088028E+00 0.13726029E+04</pdfrwt>
<pdfrwt beam="2">  1       -2 0.34440669E+00 0.13726029E+04</pdfrwt>
<totfact> 0.24307626E-01</totfact>
</mgrwt>
</event>
<event>
 4    2  0.2930016E-007  0.7413396E+03  0.7818608E-02  0.9856062E-01
          2   -1    0    0  501    0  0.00000000000E+00  0.00000000000E+00  0.12292981404E+04  0.12292981404E+04  0.25500000000E-02 0. -1.
         -2   -1    0    0    0  501 -0.00000000000E+00 -0.00000000000E+00 -0.28377194437E+03  0.28377194438E+03  0.25500000000E-02 0.  1.
    8880023    1    1    2    0    0 -0.19324363919E+03 -0.28005547959E+03  0.37340300040E+03  0.83006878191E+03  0.65864270000E+03 0.  1.
    8880022    1    1    2    0    0  0.19324363919E+03  0.28005547959E+03  0.57212319566E+03  0.68300130290E+03  0.15294330000E+03 0. -1.
<mgrwt>
<rscale>  0 0.62438789E+03</rscale>
<asrwt>0</asrwt>
<pdfrwt beam="1">  1        2 0.18912279E+00 0.74133959E+03</pdfrwt>
<pdfrwt beam="2">  1       -2 0.43657222E-01 0.74133959E+03</pdfrwt>
<totfact> 0.92018155E+01</totfact>
</mgrwt>
</event>
<event>
 4    2  0.2930016E-007  0.6634990E+03  0.7818608E-02  0.1020827E+00
         -2   -1    0    0    0  501 -0.00000000000E+00  0.00000000000E+00  0.82053291231E+03  0.82053291231E+03  0.25500000000E-02 0.  1.
          2   -1    0    0  501    0  0.00000000000E+00 -0.00000000000E+00 -0.21749203444E+03  0.21749203445E+03  0.25500000000E-02 0. -1.
    8880023    1    1    2    0    0 -0.58852777728E+02  0.54379178097E+02  0.41431630923E+03  0.78223331226E+03  0.65864270000E+03 0. -1.
    8880022    1    1    2    0    0  0.58852777728E+02 -0.54379178097E+02  0.18872456864E+03  0.25579163450E+03  0.15294330000E+03 0. -1.
<mgrwt>
<rscale>  0 0.47389249E+03</rscale>
<asrwt>0</asrwt>
<pdfrwt beam="1">  1        2 0.33460313E-01 0.66349902E+03</pdfrwt>
<pdfrwt beam="2">  1       -2 0.12623583E+00 0.66349902E+03</pdfrwt>
<totfact> 0.74619045E+01</totfact>
</mgrwt>
</event>
<event>
 4    2  0.2930016E-007  0.6770605E+03  0.7818608E-02  0.1011038E+00
          2   -1    0    0  501    0  0.00000000000E+00  0.00000000000E+00  0.15841730030E+04  0.15841730030E+04  0.25500000000E-02 0. -1.
         -2   -1    0    0    0  501 -0.00000000000E+00 -0.00000000000E+00 -0.35294582680E+03  0.35294582681E+03  0.25500000000E-02 0.  1.
    8880023    1    1    2    0    0  0.14752780058E+03  0.53256245378E+02  0.14667405524E+04  0.16154685803E+04  0.65864270000E+03 0. -1.
    8880022    1    1    2    0    0 -0.14752780058E+03 -0.53256245378E+02 -0.23551337621E+03  0.32165024950E+03  0.15294330000E+03 0.  0.
<mgrwt>
<rscale>  0 0.51064264E+03</rscale>
<asrwt>0</asrwt>
<pdfrwt beam="1">  1        2 0.24371892E+00 0.67706047E+03</pdfrwt>
<pdfrwt beam="2">  1       -2 0.54299359E-01 0.67706047E+03</pdfrwt>
<totfact> 0.37542228E+01</totfact>
</mgrwt>
</event>
<event>
 4    2  0.2930016E-007  0.1103791E+04  0.7818608E-02  0.9256848E-01
         -2   -1    0    0    0  501 -0.00000000000E+00  0.00000000000E+00  0.11685820681E+04  0.11685820681E+04  0.25500000000E-02 0.  1.
          2   -1    0    0  501    0  0.00000000000E+00 -0.00000000000E+00 -0.10179809248E+04  0.10179809248E+04  0.25500000000E-02 0. -1.
    8880023    1    1    2    0    0 -0.91525100245E+02 -0.88100317401E+03 -0.34969384187E+03  0.11578598473E+04  0.65864270000E+03 0.  0.
    8880022    1    1    2    0    0  0.91525100245E+02  0.88100317401E+03  0.50029498519E+03  0.10287031456E+04  0.15294330000E+03 0.  0.
<mgrwt>
<rscale>  0 0.10485450E+04</rscale>
<asrwt>0</asrwt>
<pdfrwt beam="1">  1        2 0.15661245E+00 0.11037906E+04</pdfrwt>
<pdfrwt beam="2">  1       -2 0.17978186E+00 0.11037906E+04</pdfrwt>
<totfact> 0.43794335E+00</totfact>
</mgrwt>
</event>
<event>
 4    2  0.2930016E-007  0.8312940E+03  0.7818608E-02  0.9646820E-01
          2   -1    0    0  501    0  0.00000000000E+00  0.00000000000E+00  0.90515693455E+03  0.90515693456E+03  0.25500000000E-02 0. -1.
         -2   -1    0    0    0  501 -0.00000000000E+00 -0.00000000000E+00 -0.97529897086E+03  0.97529897086E+03  0.25500000000E-02 0.  1.
    8880023    1    1    2    0    0  0.50716068621E+03  0.52425694133E+01  0.60073819368E+03  0.10256393273E+04  0.65864270000E+03 0.  0.
    8880022    1    1    2    0    0 -0.50716068621E+03 -0.52425694133E+01 -0.67088022998E+03  0.85481657808E+03  0.15294330000E+03 0.  0.
<mgrwt>
<rscale>  0 0.74273338E+03</rscale>
<asrwt>0</asrwt>
<pdfrwt beam="1">  1        2 0.13925491E+00 0.83129396E+03</pdfrwt>
<pdfrwt beam="2">  1       -2 0.15004600E+00 0.83129396E+03</pdfrwt>
<totfact> 0.87773610E+00</totfact>
</mgrwt>
</event>
<event>
 4    2  0.2930016E-007  0.7973344E+03  0.7818608E-02  0.9716590E-01
          2   -1    0    0  501    0  0.00000000000E+00  0.00000000000E+00  0.17204827437E+04  0.17204827437E+04  0.25500000000E-02 0. -1.
         -2   -1    0    0    0  501 -0.00000000000E+00 -0.00000000000E+00 -0.41789593626E+03  0.41789593627E+03  0.25500000000E-02 0.  1.
    8880023    1    1    2    0    0 -0.16926859207E+03  0.41626923621E+03  0.14384355015E+04  0.16446394229E+04  0.65864270000E+03 0. -1.
    8880022    1    1    2    0    0  0.16926859207E+03 -0.41626923621E+03 -0.13584869402E+03  0.49373925705E+03  0.15294330000E+03 0.  1.
<mgrwt>
<rscale>  0 0.70037592E+03</rscale>
<asrwt>0</asrwt>
<pdfrwt beam="1">  1        2 0.26468965E+00 0.79733440E+03</pdfrwt>
<pdfrwt beam="2">  1       -2 0.64291682E-01 0.79733440E+03</pdfrwt>
<totfact> 0.21821571E+01</totfact>
</mgrwt>
</event>
<event>
 4    2  0.2930016E-007  0.7527864E+03  0.7818608E-02  0.9824154E-01
          2   -1    0    0  501    0  0.00000000000E+00  0.00000000000E+00  0.28607102181E+04  0.28607102181E+04  0.25500000000E-02 0. -1.
         -2   -1    0    0    0  501 -0.00000000000E+00 -0.00000000000E+00 -0.19155280388E+03  0.19155280390E+03  0.25500000000E-02 0.  1.
    8880023    1    1    2    0    0  0.25127997079E+03  0.26407480372E+03  0.25195286892E+04  0.26295840255E+04  0.65864270000E+03 0.  0.
    8880022    1    1    2    0    0 -0.25127997079E+03 -0.26407480372E+03  0.14962872510E+03  0.42267899649E+03  0.15294330000E+03 0.  0.
<mgrwt>
<rscale>  0 0.64082263E+03</rscale>
<asrwt>0</asrwt>
<pdfrwt beam="1">  1        2 0.44010926E+00 0.75278638E+03</pdfrwt>
<pdfrwt beam="2">  1       -2 0.29469662E-01 0.75278638E+03</pdfrwt>
<totfact> 0.23718708E+01</totfact>
</mgrwt>
</event>
<event>
 4    2  0.2930016E-007  0.9711323E+03  0.7818608E-02  0.9420340E-01
         -2   -1    0    0    0  501 -0.00000000000E+00  0.00000000000E+00  0.16719332268E+04  0.16719332268E+04  0.25500000000E-02 0.  1.
          2   -1    0    0  501    0  0.00000000000E+00 -0.00000000000E+00 -0.13802240751E+04  0.13802240751E+04  0.25500000000E-02 0. -1.
    8880023    1    1    2    0    0 -0.70644929132E+03  0.10107988233E+03 -0.11081479542E+04  0.14734618551E+04  0.65864270000E+03 0. -1.
    8880022    1    1    2    0    0  0.70644929132E+03 -0.10107988233E+03  0.13998571059E+04  0.15786954468E+04  0.15294330000E+03 0.  0.
<mgrwt>
<rscale>  0 0.90420528E+03</rscale>
<asrwt>0</asrwt>
<pdfrwt beam="1">  1        2 0.21234217E+00 0.97113230E+03</pdfrwt>
<pdfrwt beam="2">  1       -2 0.25722050E+00 0.97113230E+03</pdfrwt>
<totfact> 0.86426489E-01</totfact>
</mgrwt>
</event>
<event>
 4    2  0.2930016E-007  0.7366419E+03  0.7818608E-02  0.9869839E-01
          2   -1    0    0  501    0  0.00000000000E+00  0.00000000000E+00  0.26788149428E+03  0.26788149430E+03  0.25500000000E-02 0. -1.
         -2   -1    0    0    0  501 -0.00000000000E+00 -0.00000000000E+00 -0.13598750053E+04  0.13598750053E+04  0.25500000000E-02 0.  1.
    8880023    1    1    2    0    0  0.31620837493E+03  0.94039229475E+02 -0.38138268071E+03  0.82951435699E+03  0.65864270000E+03 0. -1.
    8880022    1    1    2    0    0 -0.31620837493E+03 -0.94039229475E+02 -0.71061083029E+03  0.79824214258E+03  0.15294330000E+03 0.  0.
<mgrwt>
<rscale>  0 0.61745541E+03</rscale>
<asrwt>0</asrwt>
<pdfrwt beam="1">  1        2 0.41212538E-01 0.73664192E+03</pdfrwt>
<pdfrwt beam="2">  1       -2 0.20921154E+00 0.73664192E+03</pdfrwt>
<totfact> 0.14719069E+01</totfact>
</mgrwt>
</event>
<event>
 4    2  0.2930016E-007  0.8686467E+03  0.7818608E-02  0.9578364E-01
          2   -1    0    0  501    0  0.00000000000E+00  0.00000000000E+00  0.28331560633E+04  0.28331560633E+04  0.25500000000E-02 0. -1.
         -2   -1    0    0    0  501 -0.00000000000E+00 -0.00000000000E+00 -0.37563757346E+03  0.37563757347E+03  0.25500000000E-02 0.  1.
    8880023    1    1    2    0    0  0.20240500169E+03  0.52893196726E+03  0.24738691412E+04  0.26219411787E+04  0.65864270000E+03 0. -1.
    8880022    1    1    2    0    0 -0.20240500169E+03 -0.52893196726E+03 -0.16350651357E+02  0.58685245805E+03  0.15294330000E+03 0.  0.
<mgrwt>
<rscale>  0 0.78744901E+03</rscale>
<asrwt>0</asrwt>
<pdfrwt beam="1">  1        2 0.43587016E+00 0.86864666E+03</pdfrwt>
<pdfrwt beam="2">  1       -2 0.57790397E-01 0.86864666E+03</pdfrwt>
<totfact> 0.64269083E+00</totfact>
</mgrwt>
</event>
<event>
 4    2  0.2930016E-007  0.6639473E+03  0.7818608E-02  0.1020433E+00
         -2   -1    0    0    0  501 -0.00000000000E+00  0.00000000000E+00  0.37605769264E+03  0.37605769265E+03  0.25500000000E-02 0.  1.
          2   -1    0    0  501    0  0.00000000000E+00 -0.00000000000E+00 -0.18247358137E+04  0.18247358137E+04  0.25500000000E-02 0. -1.
    8880023    1    1    2    0    0 -0.83408051588E+02  0.76755434494E+01 -0.17393858329E+04  0.18617972766E+04  0.65864270000E+03 0. -1.
    8880022    1    1    2    0    0  0.83408051588E+02 -0.76755434494E+01  0.29070771187E+03  0.33899622977E+03  0.15294330000E+03 0.  0.
<mgrwt>
<rscale>  0 0.47530540E+03</rscale>
<asrwt>0</asrwt>
<pdfrwt beam="1">  1        2 0.28072858E+00 0.66394730E+03</pdfrwt>
<pdfrwt beam="2">  1       -2 0.57855031E-01 0.66394730E+03</pdfrwt>
<totfact> 0.24364778E+01</totfact>
</mgrwt>
</event>
<event>
 4    2  0.2930016E-007  0.8534217E+03  0.7818608E-02  0.9605374E-01
          2   -1    0    0  501    0  0.00000000000E+00  0.00000000000E+00  0.98183906223E+03  0.98183906223E+03  0.25500000000E-02 0. -1.
         -2   -1    0    0    0  501 -0.00000000000E+00 -0.00000000000E+00 -0.10811210048E+04  0.10811210048E+04  0.25500000000E-02 0.  1.
    8880023    1    1    2    0    0  0.38669987905E+03 -0.38076443128E+03  0.68688265460E+03  0.10955073418E+04  0.65864270000E+03 0. -1.
    8880022    1    1    2    0    0 -0.38669987905E+03  0.38076443128E+03 -0.78616459713E+03  0.96745272515E+03  0.15294330000E+03 0.  0.
<mgrwt>
<rscale>  0 0.76941522E+03</rscale>
<asrwt>0</asrwt>
<pdfrwt beam="1">  1        2 0.15105216E+00 0.85342167E+03</pdfrwt>
<pdfrwt beam="2">  1       -2 0.16632631E+00 0.85342167E+03</pdfrwt>
<totfact> 0.58996793E+00</totfact>
</mgrwt>
</event>
<event>
 4    2  0.2930016E-007  0.6780327E+03  0.7818608E-02  0.1010459E+00
         -2   -1    0    0    0  501 -0.00000000000E+00  0.00000000000E+00  0.26796473740E+03  0.26796473741E+03  0.25500000000E-02 0.  1.
          2   -1    0    0  501    0  0.00000000000E+00 -0.00000000000E+00 -0.12258007133E+04  0.12258007133E+04  0.25500000000E-02 0. -1.
    8880023    1    1    2    0    0  0.17547388119E+02  0.16003183937E+03 -0.10528075122E+04  0.12522507594E+04  0.65864270000E+03 0. -1.
    8880022    1    1    2    0    0 -0.17547388119E+02 -0.16003183937E+03  0.94971536225E+02  0.24151469137E+03  0.15294330000E+03 0.  0.
<mgrwt>
<rscale>  0 0.51292583E+03</rscale>
<asrwt>0</asrwt>
<pdfrwt beam="1">  1        2 0.18858472E+00 0.67803267E+03</pdfrwt>
<pdfrwt beam="2">  1       -2 0.41225345E-01 0.67803267E+03</pdfrwt>
<totfact> 0.10407455E+02</totfact>
</mgrwt>
</event>
<event>
 4    2  0.3665012E-007  0.7411220E+03  0.7818608E-02  0.9856691E-01
         -2   -1    0    0    0  501 -0.00000000000E+00  0.00000000000E+00  0.11061440383E+04  0.11061440383E+04  0.25500000000E-02 0.  1.
          2   -1    0    0  501    0  0.00000000000E+00 -0.00000000000E+00 -0.17920445940E+04  0.17920445940E+04  0.25500000000E-02 0. -1.
    8880023    1    1    2    0    0 -0.31861033051E+03 -0.11806387860E+03 -0.16801843361E+04  0.18363772030E+04  0.65864270000E+03 0. -1.
    8880022    1    1    2    0    0  0.31861033051E+03  0.11806387860E+03  0.99428378042E+03  0.10618114292E+04  0.15294330000E+03 0.  0.
<mgrwt>
<rscale>  0 0.62406940E+03</rscale>
<asrwt>0</asrwt>
<pdfrwt beam="1">  1        2 0.27569917E+00 0.74112201E+03</pdfrwt>
<pdfrwt beam="2">  1       -2 0.17017601E+00 0.74112201E+03</pdfrwt>
<totfact> 0.19199102E+00</totfact>
</mgrwt>
</event>
<event>
 4    2  0.2930016E-007  0.9277505E+03  0.7818608E-02  0.9482876E-01
          2   -1    0    0  501    0  0.00000000000E+00  0.00000000000E+00  0.13672124391E+04  0.13672124391E+04  0.25500000000E-02 0. -1.
         -2   -1    0    0    0  501 -0.00000000000E+00 -0.00000000000E+00 -0.84282113830E+03  0.84282113830E+03  0.25500000000E-02 0.  1.
    8880023    1    1    2    0    0  0.51374568589E+03 -0.40370302243E+03  0.10177470780E+04  0.13771456282E+04  0.65864270000E+03 0. -1.
    8880022    1    1    2    0    0 -0.51374568589E+03  0.40370302243E+03 -0.49335577721E+03  0.83288794925E+03  0.15294330000E+03 0.  0.
<mgrwt>
<rscale>  0 0.85558158E+03</rscale>
<asrwt>0</asrwt>
<pdfrwt beam="1">  1        2 0.21034038E+00 0.92775049E+03</pdfrwt>
<pdfrwt beam="2">  1       -2 0.12966479E+00 0.92775049E+03</pdfrwt>
<totfact> 0.66095475E+00</totfact>
</mgrwt>
</event>
<event>
 4    2  0.2930016E-007  0.7205718E+03  0.7818608E-02  0.9920656E-01
         -2   -1    0    0    0  501 -0.00000000000E+00  0.00000000000E+00  0.61362484558E+03  0.61362484558E+03  0.25500000000E-02 0.  1.
          2   -1    0    0  501    0  0.00000000000E+00 -0.00000000000E+00 -0.10589797813E+04  0.10589797813E+04  0.25500000000E-02 0. -1.
    8880023    1    1    2    0    0  0.29094570813E+03 -0.27642040893E+02  0.35768077360E+03  0.80446207466E+03  0.65864270000E+03 0.  1.
    8880022    1    1    2    0    0 -0.29094570813E+03  0.27642040893E+02 -0.80303570930E+03  0.86814255220E+03  0.15294330000E+03 0.  0.
<mgrwt>
<rscale>  0 0.59270572E+03</rscale>
<asrwt>0</asrwt>
<pdfrwt beam="1">  1        2 0.16291997E+00 0.72057178E+03</pdfrwt>
<pdfrwt beam="2">  1       -2 0.94403822E-01 0.72057178E+03</pdfrwt>
<totfact> 0.22298175E+01</totfact>
</mgrwt>
</event>
<event>
 4    2  0.2930016E-007  0.7728977E+03  0.7818608E-02  0.9772793E-01
          2   -1    0    0  501    0  0.00000000000E+00  0.00000000000E+00  0.12071597630E+04  0.12071597631E+04  0.25500000000E-02 0. -1.
         -2   -1    0    0    0  501 -0.00000000000E+00 -0.00000000000E+00 -0.31606448268E+03  0.31606448270E+03  0.25500000000E-02 0.  1.
    8880023    1    1    2    0    0  0.84232004911E+02 -0.39555736054E+03  0.40473682248E+03  0.87245788315E+03  0.65864270000E+03 0.  1.
    8880022    1    1    2    0    0 -0.84232004911E+02  0.39555736054E+03  0.48635845788E+03  0.65076636260E+03  0.15294330000E+03 0. -1.
<mgrwt>
<rscale>  0 0.66843298E+03</rscale>
<asrwt>0</asrwt>
<pdfrwt beam="1">  1        2 0.18571688E+00 0.77289770E+03</pdfrwt>
<pdfrwt beam="2">  1       -2 0.48625306E-01 0.77289770E+03</pdfrwt>
<totfact> 0.76206585E+01</totfact>
</mgrwt>
</event>
<event>
 4    2  0.2930016E-007  0.2007631E+04  0.7818608E-02  0.8615621E-01
          2   -1    0    0  501    0  0.00000000000E+00  0.00000000000E+00  0.34464038837E+04  0.34464038837E+04  0.25500000000E-02 0. -1.
         -2   -1    0    0    0  501 -0.00000000000E+00 -0.00000000000E+00 -0.12507856573E+04  0.12507856573E+04  0.25500000000E-02 0.  1.
    8880023    1    1    2    0    0 -0.17000757366E+04 -0.84054494148E+03  0.19139734462E+04  0.27737840341E+04  0.65864270000E+03 0.  0.
    8880022    1    1    2    0    0  0.17000757366E+04  0.84054494148E+03  0.28164478025E+03  0.19234055069E+04  0.15294330000E+03 0.  0.
<mgrwt>
<rscale>  0 0.19808611E+04</rscale>
<asrwt>0</asrwt>
<pdfrwt beam="1">  1        2 0.53021598E+00 0.20076313E+04</pdfrwt>
<pdfrwt beam="2">  1       -2 0.19242856E+00 0.20076313E+04</pdfrwt>
<totfact> 0.11830228E-01</totfact>
</mgrwt>
</event>
<event>
 4    2  0.2930016E-007  0.7256243E+03  0.7818608E-02  0.9903995E-01
          2   -1    0    0  501    0  0.00000000000E+00  0.00000000000E+00  0.14800424304E+04  0.14800424304E+04  0.25500000000E-02 0. -1.
         -2   -1    0    0    0  501 -0.00000000000E+00 -0.00000000000E+00 -0.53311668042E+03  0.53311668043E+03  0.25500000000E-02 0.  1.
    8880023    1    1    2    0    0  0.35294343658E+02  0.30244787706E+03  0.13209865130E+04  0.15071615650E+04  0.65864270000E+03 0. -1.
    8880022    1    1    2    0    0 -0.35294343658E+02 -0.30244787706E+03 -0.37406076301E+03  0.50599754591E+03  0.15294330000E+03 0.  0.
<mgrwt>
<rscale>  0 0.60068049E+03</rscale>
<asrwt>0</asrwt>
<pdfrwt beam="1">  1        2 0.22769884E+00 0.72562429E+03</pdfrwt>
<pdfrwt beam="2">  1       -2 0.82017951E-01 0.72562429E+03</pdfrwt>
<totfact> 0.17482311E+01</totfact>
</mgrwt>
</event>
<event>
 4    2  0.2930016E-007  0.1637935E+04  0.7818608E-02  0.8817916E-01
          2   -1    0    0  501    0  0.00000000000E+00  0.00000000000E+00  0.22841377198E+04  0.22841377198E+04  0.25500000000E-02 0. -1.
         -2   -1    0    0    0  501 -0.00000000000E+00 -0.00000000000E+00 -0.15421597746E+04  0.15421597746E+04  0.25500000000E-02 0.  1.
    8880023    1    1    2    0    0 -0.69441662844E+03 -0.13292122750E+04  0.14252588663E+04  0.21712191893E+04  0.65864270000E+03 0.  0.
    8880022    1    1    2    0    0  0.69441662844E+03  0.13292122750E+04 -0.68328092114E+03  0.16550783051E+04  0.15294330000E+03 0.  0.
<mgrwt>
<rscale>  0 0.16042916E+04</rscale>
<asrwt>0</asrwt>
<pdfrwt beam="1">  1        2 0.35140580E+00 0.16379347E+04</pdfrwt>
<pdfrwt beam="2">  1       -2 0.23725535E+00 0.16379347E+04</pdfrwt>
<totfact> 0.32933709E-01</totfact>
</mgrwt>
</event>
<event>
 4    2  0.2930016E-007  0.7430111E+03  0.7818608E-02  0.9851261E-01
          2   -1    0    0  501    0  0.00000000000E+00  0.00000000000E+00  0.17670526255E+04  0.17670526255E+04  0.25500000000E-02 0. -1.
         -2   -1    0    0    0  501 -0.00000000000E+00 -0.00000000000E+00 -0.35932807165E+03  0.35932807166E+03  0.25500000000E-02 0.  1.
    8880023    1    1    2    0    0 -0.32628541438E+03 -0.10859622606E+03  0.15540802341E+04  0.17225652070E+04  0.65864270000E+03 0.  0.
    8880022    1    1    2    0    0  0.32628541438E+03  0.10859622606E+03 -0.14635568027E+03  0.40381549018E+03  0.15294330000E+03 0.  0.
<mgrwt>
<rscale>  0 0.62682656E+03</rscale>
<asrwt>0</asrwt>
<pdfrwt beam="1">  1        2 0.27185424E+00 0.74301112E+03</pdfrwt>
<pdfrwt beam="2">  1       -2 0.55281244E-01 0.74301112E+03</pdfrwt>
<totfact> 0.28490204E+01</totfact>
</mgrwt>
</event>
<event>
 4    2  0.2930016E-007  0.9129504E+03  0.7818608E-02  0.9505554E-01
          2   -1    0    0  501    0  0.00000000000E+00  0.00000000000E+00  0.27584466080E+04  0.27584466080E+04  0.25500000000E-02 0. -1.
         -2   -1    0    0    0  501 -0.00000000000E+00 -0.00000000000E+00 -0.29030913118E+03  0.29030913119E+03  0.25500000000E-02 0.  1.
    8880023    1    1    2    0    0  0.56648971561E+03 -0.28063801138E+03  0.21262134956E+04  0.23139279000E+04  0.65864270000E+03 0.  0.
    8880022    1    1    2    0    0 -0.56648971561E+03  0.28063801138E+03  0.34192398127E+03  0.73482783922E+03  0.15294330000E+03 0.  0.
<mgrwt>
<rscale>  0 0.83875600E+03</rscale>
<asrwt>0</asrwt>
<pdfrwt beam="1">  1        2 0.42437641E+00 0.91295044E+03</pdfrwt>
<pdfrwt beam="2">  1       -2 0.44662943E-01 0.91295044E+03</pdfrwt>
<totfact> 0.11987212E+01</totfact>
</mgrwt>
</event>
<event>
 4    2  0.2930016E-007  0.9138159E+03  0.7818608E-02  0.9504207E-01
         -2   -1    0    0    0  501 -0.00000000000E+00  0.00000000000E+00  0.14688532777E+04  0.14688532777E+04  0.25500000000E-02 0.  1.
          2   -1    0    0  501    0  0.00000000000E+00 -0.00000000000E+00 -0.44718294997E+03  0.44718294998E+03  0.25500000000E-02 0. -1.
    8880023    1    1    2    0    0 -0.61112989071E+03 -0.16664170677E+03  0.34544571905E+03  0.97692996312E+03  0.65864270000E+03 0. -1.
    8880022    1    1    2    0    0  0.61112989071E+03  0.16664170677E+03  0.67622460866E+03  0.93910626456E+03  0.15294330000E+03 0.  0.
<mgrwt>
<rscale>  0 0.83974367E+03</rscale>
<asrwt>0</asrwt>
<pdfrwt beam="1">  1        2 0.68797377E-01 0.91381585E+03</pdfrwt>
<pdfrwt beam="2">  1       -2 0.22597743E+00 0.91381585E+03</pdfrwt>
<totfact> 0.63851961E+00</totfact>
</mgrwt>
</event>
<event>
 4    2  0.2930016E-007  0.7721384E+03  0.7818608E-02  0.9774639E-01
          2   -1    0    0  501    0  0.00000000000E+00  0.00000000000E+00  0.45579780812E+03  0.45579780813E+03  0.25500000000E-02 0. -1.
         -2   -1    0    0    0  501 -0.00000000000E+00 -0.00000000000E+00 -0.89488707581E+03  0.89488707581E+03  0.25500000000E-02 0.  1.
    8880023    1    1    2    0    0  0.39062030208E+03  0.99011629877E+02 -0.56239004084E+02  0.77418379929E+03  0.65864270000E+03 0. -1.
    8880022    1    1    2    0    0 -0.39062030208E+03 -0.99011629877E+02 -0.38285026360E+03  0.57650108465E+03  0.15294330000E+03 0.  0.
<mgrwt>
<rscale>  0 0.66741505E+03</rscale>
<asrwt>0</asrwt>
<pdfrwt beam="1">  1        2 0.70122740E-01 0.77213841E+03</pdfrwt>
<pdfrwt beam="2">  1       -2 0.13767493E+00 0.77213841E+03</pdfrwt>
<totfact> 0.25985998E+01</totfact>
</mgrwt>
</event>
<event>
 4    2  0.2930016E-007  0.6647288E+03  0.7818608E-02  0.1019762E+00
          2   -1    0    0  501    0  0.00000000000E+00  0.00000000000E+00  0.17511365969E+04  0.17511365969E+04  0.25500000000E-02 0. -1.
         -2   -1    0    0    0  501 -0.00000000000E+00 -0.00000000000E+00 -0.10961917180E+03  0.10961917183E+03  0.25500000000E-02 0.  1.
    8880023    1    1    2    0    0 -0.47911326259E+02 -0.75885530132E+02  0.14733729643E+04  0.16163824445E+04  0.65864270000E+03 0. -1.
    8880022    1    1    2    0    0  0.47911326259E+02  0.75885530132E+02  0.16814446089E+03  0.24437332426E+03  0.15294330000E+03 0.  1.
<mgrwt>
<rscale>  0 0.47772571E+03</rscale>
<asrwt>0</asrwt>
<pdfrwt beam="1">  1        2 0.26940563E+00 0.66472875E+03</pdfrwt>
<pdfrwt beam="2">  1       -2 0.16864488E-01 0.66472875E+03</pdfrwt>
<totfact> 0.27013644E+02</totfact>
</mgrwt>
</event>
<event>
 4    2  0.2930016E-007  0.8682000E+03  0.7818608E-02  0.9579140E-01
          2   -1    0    0  501    0  0.00000000000E+00  0.00000000000E+00  0.17204040805E+04  0.17204040805E+04  0.25500000000E-02 0. -1.
         -2   -1    0    0    0  501 -0.00000000000E+00 -0.00000000000E+00 -0.72186553784E+03  0.72186553784E+03  0.25500000000E-02 0.  1.
    8880023    1    1    2    0    0 -0.45662420347E+03  0.33384929166E+03  0.14584952682E+04  0.16973448872E+04  0.65864270000E+03 0.  0.
    8880022    1    1    2    0    0  0.45662420347E+03 -0.33384929166E+03 -0.45995672547E+03  0.74492473113E+03  0.15294330000E+03 0.  0.
<mgrwt>
<rscale>  0 0.78692326E+03</rscale>
<asrwt>0</asrwt>
<pdfrwt beam="1">  1        2 0.26467755E+00 0.86819999E+03</pdfrwt>
<pdfrwt beam="2">  1       -2 0.11105624E+00 0.86819999E+03</pdfrwt>
<totfact> 0.62096283E+00</totfact>
</mgrwt>
</event>
<event>
 4    2  0.2930016E-007  0.7617380E+03  0.7818608E-02  0.9800629E-01
          2   -1    0    0  501    0  0.00000000000E+00  0.00000000000E+00  0.85753160570E+03  0.85753160571E+03  0.25500000000E-02 0. -1.
         -2   -1    0    0    0  501 -0.00000000000E+00 -0.00000000000E+00 -0.47779483859E+03  0.47779483859E+03  0.25500000000E-02 0.  1.
    8880023    1    1    2    0    0  0.96226276736E+02  0.37037151783E+03  0.49372863974E+03  0.90775147123E+03  0.65864270000E+03 0.  0.
    8880022    1    1    2    0    0 -0.96226276736E+02 -0.37037151783E+03 -0.11399187262E+03  0.42757497307E+03  0.15294330000E+03 0.  0.
<mgrwt>
<rscale>  0 0.65328818E+03</rscale>
<asrwt>0</asrwt>
<pdfrwt beam="1">  1        2 0.13192794E+00 0.76173799E+03</pdfrwt>
<pdfrwt beam="2">  1       -2 0.73506898E-01 0.76173799E+03</pdfrwt>
<totfact> 0.53037947E+01</totfact>
</mgrwt>
</event>
<event>
 4    2  0.2930016E-007  0.7764252E+03  0.7818608E-02  0.9764302E-01
          2   -1    0    0  501    0  0.00000000000E+00  0.00000000000E+00  0.25102679143E+04  0.25102679143E+04  0.25500000000E-02 0. -1.
         -2   -1    0    0    0  501 -0.00000000000E+00 -0.00000000000E+00 -0.27234284405E+03  0.27234284406E+03  0.25500000000E-02 0.  1.
    8880023    1    1    2    0    0 -0.69504116637E+02 -0.40520988480E+03  0.22107352327E+04  0.23431146682E+04  0.65864270000E+03 0. -1.
    8880022    1    1    2    0    0  0.69504116637E+02  0.40520988480E+03  0.27189837531E+02  0.43949609014E+03  0.15294330000E+03 0.  0.
<mgrwt>
<rscale>  0 0.67313984E+03</rscale>
<asrwt>0</asrwt>
<pdfrwt beam="1">  1        2 0.38619505E+00 0.77642519E+03</pdfrwt>
<pdfrwt beam="2">  1       -2 0.41898901E-01 0.77642519E+03</pdfrwt>
<totfact> 0.19314520E+01</totfact>
</mgrwt>
</event>
<event>
 4    2  0.2930016E-007  0.8466449E+03  0.7818608E-02  0.9617776E-01
          2   -1    0    0  501    0  0.00000000000E+00  0.00000000000E+00  0.18587563762E+04  0.18587563762E+04  0.25500000000E-02 0. -1.
         -2   -1    0    0    0  501 -0.00000000000E+00 -0.00000000000E+00 -0.62865668861E+03  0.62865668861E+03  0.25500000000E-02 0.  1.
    8880023    1    1    2    0    0 -0.44582772552E+03  0.29023275530E+03  0.16079451576E+04  0.18172218492E+04  0.65864270000E+03 0.  0.
    8880022    1    1    2    0    0  0.44582772552E+03 -0.29023275530E+03 -0.37784547009E+03  0.67019121554E+03  0.15294330000E+03 0.  0.
<mgrwt>
<rscale>  0 0.76130755E+03</rscale>
<asrwt>0</asrwt>
<pdfrwt beam="1">  1        2 0.28596251E+00 0.84664492E+03</pdfrwt>
<pdfrwt beam="2">  1       -2 0.96716415E-01 0.84664492E+03</pdfrwt>
<totfact> 0.72831930E+00</totfact>
</mgrwt>
</event>
<event>
 4    2  0.2930016E-007  0.7014880E+03  0.7818608E-02  0.9991083E-01
          2   -1    0    0  501    0  0.00000000000E+00  0.00000000000E+00  0.75022642140E+03  0.75022642140E+03  0.25500000000E-02 0. -1.
         -2   -1    0    0    0  501 -0.00000000000E+00 -0.00000000000E+00 -0.47363960405E+03  0.47363960405E+03  0.25500000000E-02 0.  1.
    8880023    1    1    2    0    0  0.54054853155E+02 -0.23527290664E+03  0.49973420225E+03  0.86128958365E+03  0.65864270000E+03 0.  0.
    8880022    1    1    2    0    0 -0.54054853155E+02  0.23527290664E+03 -0.22314738490E+03  0.36257644180E+03  0.15294330000E+03 0.  0.
<mgrwt>
<rscale>  0 0.56042949E+03</rscale>
<asrwt>0</asrwt>
<pdfrwt beam="1">  1        2 0.11541945E+00 0.70148804E+03</pdfrwt>
<pdfrwt beam="2">  1       -2 0.72867632E-01 0.70148804E+03</pdfrwt>
<totfact> 0.64862102E+01</totfact>
</mgrwt>
</event>
<event>
 4    2  0.2930016E-007  0.1285592E+04  0.7818608E-02  0.9078103E-01
          2   -1    0    0  501    0  0.00000000000E+00  0.00000000000E+00  0.20694577325E+04  0.20694577325E+04  0.25500000000E-02 0. -1.
         -2   -1    0    0    0  501 -0.00000000000E+00 -0.00000000000E+00 -0.91868621011E+03  0.91868621011E+03  0.25500000000E-02 0.  1.
    8880023    1    1    2    0    0  0.80278829594E+03  0.75793614478E+03  0.13407028360E+04  0.18574796226E+04  0.65864270000E+03 0.  0.
    8880022    1    1    2    0    0 -0.80278829594E+03 -0.75793614478E+03 -0.18993131360E+03  0.11306643200E+04  0.15294330000E+03 0.  0.
<mgrwt>
<rscale>  0 0.12405288E+04</rscale>
<asrwt>0</asrwt>
<pdfrwt beam="1">  1        2 0.31837811E+00 0.12855919E+04</pdfrwt>
<pdfrwt beam="2">  1       -2 0.14133634E+00 0.12855919E+04</pdfrwt>
<totfact> 0.20673676E+00</totfact>
</mgrwt>
</event>
<event>
 4    2  0.2930016E-007  0.6620961E+03  0.7818608E-02  0.1022105E+00
         -2   -1    0    0    0  501 -0.00000000000E+00  0.00000000000E+00  0.21324300864E+03  0.21324300865E+03  0.25500000000E-02 0.  1.
          2   -1    0    0  501    0  0.00000000000E+00 -0.00000000000E+00 -0.10425600061E+04  0.10425600061E+04  0.25500000000E-02 0. -1.
    8880023    1    1    2    0    0  0.54384332196E+02  0.40041686403E+02 -0.86048911898E+03  0.10857314228E+04  0.65864270000E+03 0. -1.
    8880022    1    1    2    0    0 -0.54384332196E+02 -0.40041686403E+02  0.31172121484E+02  0.17007159202E+03  0.15294330000E+03 0.  0.
<mgrwt>
<rscale>  0 0.46934654E+03</rscale>
<asrwt>0</asrwt>
<pdfrwt beam="1">  1        2 0.16039384E+00 0.66209606E+03</pdfrwt>
<pdfrwt beam="2">  1       -2 0.32806617E-01 0.66209606E+03</pdfrwt>
<totfact> 0.20827133E+02</totfact>
</mgrwt>
</event>
<event>
 4    2  0.2930016E-007  0.8667595E+03  0.7818608E-02  0.9581651E-01
          2   -1    0    0  501    0  0.00000000000E+00  0.00000000000E+00  0.26030978551E+04  0.26030978551E+04  0.25500000000E-02 0. -1.
         -2   -1    0    0    0  501 -0.00000000000E+00 -0.00000000000E+00 -0.20510104794E+03  0.20510104795E+03  0.25500000000E-02 0.  1.
    8880023    1    1    2    0    0 -0.39572276028E+03 -0.40108020814E+03  0.12624074780E+04  0.15313212214E+04  0.65864270000E+03 0. -1.
    8880022    1    1    2    0    0  0.39572276028E+03  0.40108020814E+03  0.11355893291E+04  0.12768776816E+04  0.15294330000E+03 0.  1.
<mgrwt>
<rscale>  0 0.78522646E+03</rscale>
<asrwt>0</asrwt>
<pdfrwt beam="1">  1        2 0.40047662E+00 0.86675951E+03</pdfrwt>
<pdfrwt beam="2">  1       -2 0.31554005E-01 0.86675951E+03</pdfrwt>
<totfact> 0.29097273E+01</totfact>
</mgrwt>
</event>
<event>
 4    2  0.2930016E-007  0.1373382E+04  0.7818608E-02  0.9004646E-01
          2   -1    0    0  501    0  0.00000000000E+00  0.00000000000E+00  0.10358608609E+04  0.10358608609E+04  0.25500000000E-02 0. -1.
         -2   -1    0    0    0  501 -0.00000000000E+00 -0.00000000000E+00 -0.19910901462E+04  0.19910901462E+04  0.25500000000E-02 0.  1.
    8880023    1    1    2    0    0 -0.13589451748E+03  0.11974562295E+04  0.15390266169E+03  0.13819786456E+04  0.65864270000E+03 0.  0.
    8880022    1    1    2    0    0  0.13589451748E+03 -0.11974562295E+04 -0.11091319469E+04  0.16449723615E+04  0.15294330000E+03 0.  0.
<mgrwt>
<rscale>  0 0.13318968E+04</rscale>
<asrwt>0</asrwt>
<pdfrwt beam="1">  1        2 0.15936321E+00 0.13733823E+04</pdfrwt>
<pdfrwt beam="2">  1       -2 0.30632156E+00 0.13733823E+04</pdfrwt>
<totfact> 0.66651426E-01</totfact>
</mgrwt>
</event>
<event>
 4    2  0.2930016E-007  0.6863516E+03  0.7818608E-02  0.1005937E+00
          2   -1    0    0  501    0  0.00000000000E+00  0.00000000000E+00  0.25241643172E+03  0.25241643173E+03  0.25500000000E-02 0. -1.
         -2   -1    0    0    0  501 -0.00000000000E+00 -0.00000000000E+00 -0.11521286011E+04  0.11521286011E+04  0.25500000000E-02 0.  1.
    8880023    1    1    2    0    0  0.80076596295E+02  0.17565877282E+03 -0.93059487351E+03  0.11563240422E+04  0.65864270000E+03 0.  1.
    8880022    1    1    2    0    0 -0.80076596295E+02 -0.17565877282E+03  0.30882704154E+02  0.24822099060E+03  0.15294330000E+03 0.  0.
<mgrwt>
<rscale>  0 0.53121790E+03</rscale>
<asrwt>0</asrwt>
<pdfrwt beam="1">  1        2 0.38833298E-01 0.68635157E+03</pdfrwt>
<pdfrwt beam="2">  1       -2 0.17725055E+00 0.68635157E+03</pdfrwt>
<totfact> 0.25698797E+01</totfact>
</mgrwt>
</event>
<event>
 4    2  0.2930016E-007  0.7274179E+03  0.7818608E-02  0.9898242E-01
          2   -1    0    0  501    0  0.00000000000E+00  0.00000000000E+00  0.55490222103E+03  0.55490222103E+03  0.25500000000E-02 0. -1.
         -2   -1    0    0    0  501 -0.00000000000E+00 -0.00000000000E+00 -0.12271143824E+04  0.12271143824E+04  0.25500000000E-02 0.  1.
    8880023    1    1    2    0    0 -0.60606000826E+01 -0.30869054763E+03  0.27222774327E+03  0.77668831299E+03  0.65864270000E+03 0. -1.
    8880022    1    1    2    0    0  0.60606000826E+01  0.30869054763E+03 -0.94443990467E+03  0.10053282905E+04  0.15294330000E+03 0.  0.
<mgrwt>
<rscale>  0 0.60346580E+03</rscale>
<asrwt>0</asrwt>
<pdfrwt beam="1">  1        2 0.85369573E-01 0.72741789E+03</pdfrwt>
<pdfrwt beam="2">  1       -2 0.18878683E+00 0.72741789E+03</pdfrwt>
<totfact> 0.87818029E+00</totfact>
</mgrwt>
</event>
<event>
 4    2  0.2930016E-007  0.8836067E+03  0.7818608E-02  0.9552878E-01
         -2   -1    0    0    0  501 -0.00000000000E+00  0.00000000000E+00  0.10155908094E+04  0.10155908094E+04  0.25500000000E-02 0.  1.
          2   -1    0    0  501    0  0.00000000000E+00 -0.00000000000E+00 -0.10542241282E+04  0.10542241282E+04  0.25500000000E-02 0. -1.
    8880023    1    1    2    0    0 -0.44828924518E+03  0.38208298874E+03 -0.73188411960E+03  0.11473513971E+04  0.65864270000E+03 0. -1.
    8880022    1    1    2    0    0  0.44828924518E+03 -0.38208298874E+03  0.69325080081E+03  0.92246354045E+03  0.15294330000E+03 0.  0.
<mgrwt>
<rscale>  0 0.80495144E+03</rscale>
<asrwt>0</asrwt>
<pdfrwt beam="1">  1        2 0.16218833E+00 0.88360674E+03</pdfrwt>
<pdfrwt beam="2">  1       -2 0.15624474E+00 0.88360674E+03</pdfrwt>
<totfact> 0.62709426E+00</totfact>
</mgrwt>
</event>
<event>
 4    2  0.2930016E-007  0.7703431E+03  0.7818608E-02  0.9779031E-01
         -2   -1    0    0    0  501 -0.00000000000E+00  0.00000000000E+00  0.88036301484E+03  0.88036301484E+03  0.25500000000E-02 0.  1.
          2   -1    0    0  501    0  0.00000000000E+00 -0.00000000000E+00 -0.11441025502E+04  0.11441025502E+04  0.25500000000E-02 0. -1.
    8880023    1    1    2    0    0  0.52820636561E+02 -0.39601540108E+03 -0.94550696755E+03  0.12195949530E+04  0.65864270000E+03 0. -1.
    8880022    1    1    2    0    0 -0.52820636561E+02  0.39601540108E+03  0.68176743216E+03  0.80487061203E+03  0.15294330000E+03 0.  0.
<mgrwt>
<rscale>  0 0.66500122E+03</rscale>
<asrwt>0</asrwt>
<pdfrwt beam="1">  1        2 0.17601578E+00 0.77034306E+03</pdfrwt>
<pdfrwt beam="2">  1       -2 0.13544046E+00 0.77034306E+03</pdfrwt>
<totfact> 0.81445881E+00</totfact>
</mgrwt>
</event>
<event>
 4    2  0.2930016E-007  0.7076568E+03  0.7818608E-02  0.9966807E-01
          2   -1    0    0  501    0  0.00000000000E+00  0.00000000000E+00  0.21499683414E+04  0.21499683414E+04  0.25500000000E-02 0. -1.
         -2   -1    0    0    0  501 -0.00000000000E+00 -0.00000000000E+00 -0.26269965974E+03  0.26269965975E+03  0.25500000000E-02 0.  1.
    8880023    1    1    2    0    0  0.22883544403E+03  0.12083996204E+03  0.19762883557E+04  0.20991650311E+04  0.65864270000E+03 0. -1.
    8880022    1    1    2    0    0 -0.22883544403E+03 -0.12083996204E+03 -0.89019673968E+02  0.31350297006E+03  0.15294330000E+03 0.  0.
<mgrwt>
<rscale>  0 0.57129946E+03</rscale>
<asrwt>0</asrwt>
<pdfrwt beam="1">  1        2 0.33076436E+00 0.70765681E+03</pdfrwt>
<pdfrwt beam="2">  1       -2 0.40415332E-01 0.70765681E+03</pdfrwt>
<totfact> 0.33241391E+01</totfact>
</mgrwt>
</event>
<event>
 4    2  0.2930016E-007  0.9883870E+03  0.7818608E-02  0.9396911E-01
          2   -1    0    0  501    0  0.00000000000E+00  0.00000000000E+00  0.34284232583E+03  0.34284232584E+03  0.25500000000E-02 0. -1.
         -2   -1    0    0    0  501 -0.00000000000E+00 -0.00000000000E+00 -0.22629193355E+04  0.22629193355E+04  0.25500000000E-02 0.  1.
    8880023    1    1    2    0    0 -0.63545359573E+03 -0.37322564371E+03 -0.89024264222E+03  0.13302033009E+04  0.65864270000E+03 0.  0.
    8880022    1    1    2    0    0  0.63545359573E+03  0.37322564371E+03 -0.10298343675E+04  0.12755583604E+04  0.15294330000E+03 0.  0.
<mgrwt>
<rscale>  0 0.92330317E+03</rscale>
<asrwt>0</asrwt>
<pdfrwt beam="1">  1        2 0.52744975E-01 0.98838700E+03</pdfrwt>
<pdfrwt beam="2">  1       -2 0.34814143E+00 0.98838700E+03</pdfrwt>
<totfact> 0.15384608E+00</totfact>
</mgrwt>
</event>
<event>
 4    2  0.2930016E-007  0.7034511E+03  0.7818608E-02  0.9983175E-01
         -2   -1    0    0    0  501 -0.00000000000E+00  0.00000000000E+00  0.17067411398E+03  0.17067411400E+03  0.25500000000E-02 0.  1.
          2   -1    0    0  501    0  0.00000000000E+00 -0.00000000000E+00 -0.17823108575E+04  0.17823108575E+04  0.25500000000E-02 0. -1.
    8880023    1    1    2    0    0 -0.22239746161E+03 -0.10757626526E+03 -0.14702089340E+04  0.16298336724E+04  0.65864270000E+03 0. -1.
    8880022    1    1    2    0    0  0.22239746161E+03  0.10757626526E+03 -0.14142780946E+03  0.32315129905E+03  0.15294330000E+03 0.  1.
<mgrwt>
<rscale>  0 0.56394181E+03</rscale>
<asrwt>0</asrwt>
<pdfrwt beam="1">  1        2 0.27420166E+00 0.70345113E+03</pdfrwt>
<pdfrwt beam="2">  1       -2 0.26257557E-01 0.70345113E+03</pdfrwt>
<totfact> 0.11873571E+02</totfact>
</mgrwt>
</event>
<event>
 4    2  0.2930016E-007  0.6894346E+03  0.7818608E-02  0.1004422E+00
          2   -1    0    0  501    0  0.00000000000E+00  0.00000000000E+00  0.21127548972E+04  0.21127548972E+04  0.25500000000E-02 0. -1.
         -2   -1    0    0    0  501 -0.00000000000E+00 -0.00000000000E+00 -0.17707583719E+03  0.17707583721E+03  0.25500000000E-02 0.  1.
    8880023    1    1    2    0    0 -0.20241520258E+03  0.23194410948E+02  0.19137296302E+04  0.20341291008E+04  0.65864270000E+03 0. -1.
    8880022    1    1    2    0    0  0.20241520258E+03 -0.23194410948E+02  0.21949429777E+02  0.25570163358E+03  0.15294330000E+03 0.  0.
<mgrwt>
<rscale>  0 0.53752875E+03</rscale>
<asrwt>0</asrwt>
<pdfrwt beam="1">  1        2 0.32503921E+00 0.68943462E+03</pdfrwt>
<pdfrwt beam="2">  1       -2 0.27242437E-01 0.68943462E+03</pdfrwt>
<totfact> 0.73494473E+01</totfact>
</mgrwt>
</event>
<event>
 4    2  0.2930016E-007  0.1010961E+04  0.7818608E-02  0.9367356E-01
         -2   -1    0    0    0  501 -0.00000000000E+00  0.00000000000E+00  0.11043473394E+04  0.11043473394E+04  0.25500000000E-02 0.  1.
          2   -1    0    0  501    0  0.00000000000E+00 -0.00000000000E+00 -0.78716848285E+03  0.78716848286E+03  0.25500000000E-02 0. -1.
    8880023    1    1    2    0    0 -0.67340678819E+03  0.36709017900E+03 -0.80478181401E+02  0.10141591817E+04  0.65864270000E+03 0.  0.
    8880022    1    1    2    0    0  0.67340678819E+03 -0.36709017900E+03  0.39765703796E+03  0.87735664057E+03  0.15294330000E+03 0.  0.
<mgrwt>
<rscale>  0 0.94811566E+03</rscale>
<asrwt>0</asrwt>
<pdfrwt beam="1">  1        2 0.12110284E+00 0.10109610E+04</pdfrwt>
<pdfrwt beam="2">  1       -2 0.16989959E+00 0.10109610E+04</pdfrwt>
<totfact> 0.74454407E+00</totfact>
</mgrwt>
</event>
<event>
 4    2  0.2930016E-007  0.7652090E+03  0.7818608E-02  0.9791804E-01
          2   -1    0    0  501    0  0.00000000000E+00  0.00000000000E+00  0.28362940735E+04  0.28362940735E+04  0.25500000000E-02 0. -1.
         -2   -1    0    0    0  501 -0.00000000000E+00 -0.00000000000E+00 -0.13402228188E+03  0.13402228190E+03  0.25500000000E-02 0.  1.
    8880023    1    1    2    0    0 -0.38333365268E+03  0.69209542637E+02  0.21151995675E+04  0.22493585900E+04  0.65864270000E+03 0. -1.
    8880022    1    1    2    0    0  0.38333365268E+03 -0.69209542637E+02  0.58707222416E+03  0.72095776538E+03  0.15294330000E+03 0.  1.
<mgrwt>
<rscale>  0 0.65804256E+03</rscale>
<asrwt>0</asrwt>
<pdfrwt beam="1">  1        2 0.43635293E+00 0.76520903E+03</pdfrwt>
<pdfrwt beam="2">  1       -2 0.20618813E-01 0.76520903E+03</pdfrwt>
<totfact> 0.46600052E+01</totfact>
</mgrwt>
</event>
<event>
 4    2  0.2930016E-007  0.7362549E+03  0.7818608E-02  0.9870994E-01
         -2   -1    0    0    0  501 -0.00000000000E+00  0.00000000000E+00  0.61714471935E+03  0.61714471935E+03  0.25500000000E-02 0.  1.
          2   -1    0    0  501    0  0.00000000000E+00 -0.00000000000E+00 -0.12216406934E+04  0.12216406934E+04  0.25500000000E-02 0. -1.
    8880023    1    1    2    0    0 -0.50933330907E+02 -0.32506446658E+03 -0.10385502225E+04  0.12730506205E+04  0.65864270000E+03 0.  0.
    8880022    1    1    2    0    0  0.50933330907E+02  0.32506446658E+03  0.43405424837E+03  0.56573479225E+03  0.15294330000E+03 0.  0.
<mgrwt>
<rscale>  0 0.61687889E+03</rscale>
<asrwt>0</asrwt>
<pdfrwt beam="1">  1        2 0.18794472E+00 0.73625493E+03</pdfrwt>
<pdfrwt beam="2">  1       -2 0.94945342E-01 0.73625493E+03</pdfrwt>
<totfact> 0.17522146E+01</totfact>
</mgrwt>
</event>
<event>
 4    2  0.2930016E-007  0.6826654E+03  0.7818608E-02  0.1007854E+00
          2   -1    0    0  501    0  0.00000000000E+00  0.00000000000E+00  0.28139264795E+04  0.28139264795E+04  0.25500000000E-02 0. -1.
         -2   -1    0    0    0  501 -0.00000000000E+00 -0.00000000000E+00 -0.63444171443E+03  0.63444171444E+03  0.25500000000E-02 0.  1.
    8880023    1    1    2    0    0  0.14794538903E+03 -0.10165632173E+03  0.27487162386E+04  0.28322205092E+04  0.65864270000E+03 0. -1.
    8880022    1    1    2    0    0 -0.14794538903E+03  0.10165632173E+03 -0.56923147358E+03  0.61614768474E+03  0.15294330000E+03 0.  0.
<mgrwt>
<rscale>  0 0.52336352E+03</rscale>
<asrwt>0</asrwt>
<pdfrwt beam="1">  1        2 0.43291177E+00 0.68266540E+03</pdfrwt>
<pdfrwt beam="2">  1       -2 0.97606417E-01 0.68266540E+03</pdfrwt>
<totfact> 0.21351684E+00</totfact>
</mgrwt>
</event>
<event>
 4    2  0.2930016E-007  0.6644465E+03  0.7818608E-02  0.1020002E+00
          2   -1    0    0  501    0  0.00000000000E+00  0.00000000000E+00  0.14748407233E+04  0.14748407233E+04  0.25500000000E-02 0. -1.
         -2   -1    0    0    0  501 -0.00000000000E+00 -0.00000000000E+00 -0.12039763765E+03  0.12039763767E+03  0.25500000000E-02 0.  1.
    8880023    1    1    2    0    0  0.54336154932E+02  0.68749889997E+02  0.11139722466E+04  0.12970826256E+04  0.65864270000E+03 0. -1.
    8880022    1    1    2    0    0 -0.54336154932E+02 -0.68749889997E+02  0.24047083907E+03  0.29815573542E+03  0.15294330000E+03 0. -1.
<mgrwt>
<rscale>  0 0.47685765E+03</rscale>
<asrwt>0</asrwt>
<pdfrwt beam="1">  1        2 0.22689857E+00 0.66444652E+03</pdfrwt>
<pdfrwt beam="2">  1       -2 0.18522714E-01 0.66444652E+03</pdfrwt>
<totfact> 0.32599894E+02</totfact>
</mgrwt>
</event>
<event>
 4    2  0.2930016E-007  0.7637427E+03  0.7818608E-02  0.9795513E-01
          2   -1    0    0  501    0  0.00000000000E+00  0.00000000000E+00  0.45976527945E+03  0.45976527946E+03  0.25500000000E-02 0. -1.
         -2   -1    0    0    0  501 -0.00000000000E+00 -0.00000000000E+00 -0.19532596150E+04  0.19532596150E+04  0.25500000000E-02 0.  1.
    8880023    1    1    2    0    0 -0.14392076500E+03  0.35885862257E+03  0.96269544518E+02  0.76978615801E+03  0.65864270000E+03 0. -1.
    8880022    1    1    2    0    0  0.14392076500E+03 -0.35885862257E+03 -0.15897638800E+04  0.16432387364E+04  0.15294330000E+03 0.  0.
<mgrwt>
<rscale>  0 0.65603916E+03</rscale>
<asrwt>0</asrwt>
<pdfrwt beam="1">  1        2 0.70733121E-01 0.76374269E+03</pdfrwt>
<pdfrwt beam="2">  1       -2 0.30050148E+00 0.76374269E+03</pdfrwt>
<totfact> 0.22253807E+00</totfact>
</mgrwt>
</event>
<event>
 4    2  0.2930016E-007  0.1153345E+04  0.7818608E-02  0.9203865E-01
         -2   -1    0    0    0  501 -0.00000000000E+00  0.00000000000E+00  0.11079881756E+04  0.11079881756E+04  0.25500000000E-02 0.  1.
          2   -1    0    0  501    0  0.00000000000E+00 -0.00000000000E+00 -0.13631254102E+04  0.13631254102E+04  0.25500000000E-02 0. -1.
    8880023    1    1    2    0    0 -0.40196033322E+03  0.85721750731E+03  0.49347082860E+03  0.12544790270E+04  0.65864270000E+03 0.  0.
    8880022    1    1    2    0    0  0.40196033322E+03 -0.85721750731E+03 -0.74860806324E+03  0.12166345588E+04  0.15294330000E+03 0.  0.
<mgrwt>
<rscale>  0 0.11013623E+04</rscale>
<asrwt>0</asrwt>
<pdfrwt beam="1">  1        2 0.20971160E+00 0.11533448E+04</pdfrwt>
<pdfrwt beam="2">  1       -2 0.17045972E+00 0.11533448E+04</pdfrwt>
<totfact> 0.31354776E+00</totfact>
</mgrwt>
</event>
<event>
 4    2  0.2930016E-007  0.7848591E+03  0.7818608E-02  0.9744544E-01
         -2   -1    0    0    0  501 -0.00000000000E+00  0.00000000000E+00  0.22403004344E+03  0.22403004345E+03  0.25500000000E-02 0.  1.
          2   -1    0    0  501    0  0.00000000000E+00 -0.00000000000E+00 -0.26595563388E+04  0.26595563388E+04  0.25500000000E-02 0. -1.
    8880023    1    1    2    0    0 -0.30932157698E+03 -0.29413232202E+03 -0.22684146389E+04  0.24003559821E+04  0.65864270000E+03 0.  0.
    8880022    1    1    2    0    0  0.30932157698E+03  0.29413232202E+03 -0.16711165648E+03  0.48323040011E+03  0.15294330000E+03 0.  0.
<mgrwt>
<rscale>  0 0.68425472E+03</rscale>
<asrwt>0</asrwt>
<pdfrwt beam="1">  1        2 0.40916249E+00 0.78485914E+03</pdfrwt>
<pdfrwt beam="2">  1       -2 0.34466162E-01 0.78485914E+03</pdfrwt>
<totfact> 0.23104271E+01</totfact>
</mgrwt>
</event>
<event>
 4    2  0.2930016E-007  0.7778125E+03  0.7818608E-02  0.9761001E-01
          2   -1    0    0  501    0  0.00000000000E+00  0.00000000000E+00  0.90983826479E+03  0.90983826480E+03  0.25500000000E-02 0. -1.
         -2   -1    0    0    0  501 -0.00000000000E+00 -0.00000000000E+00 -0.55174352408E+03  0.55174352409E+03  0.25500000000E-02 0.  1.
    8880023    1    1    2    0    0 -0.73499218164E+02 -0.40716084530E+03  0.57765545590E+03  0.96885402461E+03  0.65864270000E+03 0. -1.
    8880022    1    1    2    0    0  0.73499218164E+02  0.40716084530E+03 -0.21956071519E+03  0.49272776427E+03  0.15294330000E+03 0.  0.
<mgrwt>
<rscale>  0 0.67498127E+03</rscale>
<asrwt>0</asrwt>
<pdfrwt beam="1">  1        2 0.13997512E+00 0.77781251E+03</pdfrwt>
<pdfrwt beam="2">  1       -2 0.84883620E-01 0.77781251E+03</pdfrwt>
<totfact> 0.35338964E+01</totfact>
</mgrwt>
</event>
<event>
 4    2  0.2930016E-007  0.7499762E+03  0.7818608E-02  0.9831785E-01
          2   -1    0    0  501    0  0.00000000000E+00  0.00000000000E+00  0.49596695555E+03  0.49596695556E+03  0.25500000000E-02 0. -1.
         -2   -1    0    0    0  501 -0.00000000000E+00 -0.00000000000E+00 -0.16983581334E+04  0.16983581334E+04  0.25500000000E-02 0.  1.
    8880023    1    1    2    0    0 -0.86796058510E+02 -0.34802371101E+03  0.16882622665E+03  0.76874349445E+03  0.65864270000E+03 0. -1.
    8880022    1    1    2    0    0  0.86796058510E+02  0.34802371101E+03 -0.13712174045E+04  0.14255815945E+04  0.15294330000E+03 0.  0.
<mgrwt>
<rscale>  0 0.63684299E+03</rscale>
<asrwt>0</asrwt>
<pdfrwt beam="1">  1        2 0.76302609E-01 0.74997618E+03</pdfrwt>
<pdfrwt beam="2">  1       -2 0.26128586E+00 0.74997618E+03</pdfrwt>
<totfact> 0.35142506E+00</totfact>
</mgrwt>
</event>
<event>
 4    2  0.2930016E-007  0.9741855E+03  0.7818608E-02  0.9416139E-01
         -2   -1    0    0    0  501 -0.00000000000E+00  0.00000000000E+00  0.11771270338E+04  0.11771270338E+04  0.25500000000E-02 0.  1.
          2   -1    0    0  501    0  0.00000000000E+00 -0.00000000000E+00 -0.10446801578E+04  0.10446801578E+04  0.25500000000E-02 0. -1.
    8880023    1    1    2    0    0 -0.22300251303E+03  0.68227338681E+03 -0.63267823760E+03  0.11616019343E+04  0.65864270000E+03 0. -1.
    8880022    1    1    2    0    0  0.22300251303E+03 -0.68227338681E+03  0.76512511361E+03  0.10602052573E+04  0.15294330000E+03 0.  0.
<mgrwt>
<rscale>  0 0.90759358E+03</rscale>
<asrwt>0</asrwt>
<pdfrwt beam="1">  1        2 0.16072002E+00 0.97418546E+03</pdfrwt>
<pdfrwt beam="2">  1       -2 0.18109647E+00 0.97418546E+03</pdfrwt>
<totfact> 0.41787658E+00</totfact>
</mgrwt>
</event>
<event>
 4    2  0.2930016E-007  0.6848961E+03  0.7818608E-02  0.1006679E+00
          2   -1    0    0  501    0  0.00000000000E+00  0.00000000000E+00  0.15531539567E+04  0.15531539567E+04  0.25500000000E-02 0. -1.
         -2   -1    0    0    0  501 -0.00000000000E+00 -0.00000000000E+00 -0.49118643020E+03  0.49118643020E+03  0.25500000000E-02 0.  1.
    8880023    1    1    2    0    0 -0.14404484781E+03  0.12051381650E+03  0.14404542298E+04  0.15949893707E+04  0.65864270000E+03 0. -1.
    8880022    1    1    2    0    0  0.14404484781E+03 -0.12051381650E+03 -0.37848670333E+03  0.44935101620E+03  0.15294330000E+03 0.  0.
<mgrwt>
<rscale>  0 0.52815954E+03</rscale>
<asrwt>0</asrwt>
<pdfrwt beam="1">  1        2 0.23894676E+00 0.68489613E+03</pdfrwt>
<pdfrwt beam="2">  1       -2 0.75567143E-01 0.68489613E+03</pdfrwt>
<totfact> 0.19232922E+01</totfact>
</mgrwt>
</event>
<event>
 4    2  0.2930016E-007  0.7194036E+03  0.7818608E-02  0.9924609E-01
          2   -1    0    0  501    0  0.00000000000E+00  0.00000000000E+00  0.19715248583E+04  0.19715248583E+04  0.25500000000E-02 0. -1.
         -2   -1    0    0    0  501 -0.00000000000E+00 -0.00000000000E+00 -0.41539511739E+03  0.41539511740E+03  0.25500000000E-02 0.  1.
    8880023    1    1    2    0    0 -0.20518633245E+03  0.20403421496E+03  0.18260679804E+04  0.19626680481E+04  0.65864270000E+03 0. -1.
    8880022    1    1    2    0    0  0.20518633245E+03 -0.20403421496E+03 -0.26993823948E+03  0.42425192757E+03  0.15294330000E+03 0.  0.
<mgrwt>
<rscale>  0 0.59083313E+03</rscale>
<asrwt>0</asrwt>
<pdfrwt beam="1">  1        2 0.30331152E+00 0.71940364E+03</pdfrwt>
<pdfrwt beam="2">  1       -2 0.63906941E-01 0.71940364E+03</pdfrwt>
<totfact> 0.16293036E+01</totfact>
</mgrwt>
</event>
<event>
 4    2  0.2930016E-007  0.9295915E+03  0.7818608E-02  0.9480106E-01
          2   -1    0    0  501    0  0.00000000000E+00  0.00000000000E+00  0.79990334882E+03  0.79990334882E+03  0.25500000000E-02 0. -1.
         -2   -1    0    0    0  501 -0.00000000000E+00 -0.00000000000E+00 -0.81770465295E+03  0.81770465296E+03  0.25500000000E-02 0.  1.
    8880023    1    1    2    0    0  0.62160242286E+02  0.65304387313E+03 -0.11636412507E+03  0.93684631174E+03  0.65864270000E+03 0.  1.
    8880022    1    1    2    0    0 -0.62160242286E+02 -0.65304387313E+03  0.98562820933E+02  0.68076169004E+03  0.15294330000E+03 0. -1.
<mgrwt>
<rscale>  0 0.85766528E+03</rscale>
<asrwt>0</asrwt>
<pdfrwt beam="1">  1        2 0.12306205E+00 0.92959152E+03</pdfrwt>
<pdfrwt beam="2">  1       -2 0.12580072E+00 0.92959152E+03</pdfrwt>
<totfact> 0.16230797E+01</totfact>
</mgrwt>
</event>
<event>
 4    2  0.2930016E-007  0.6912761E+03  0.7818608E-02  0.1003552E+00
          2   -1    0    0  501    0  0.00000000000E+00  0.00000000000E+00  0.30782848310E+04  0.30782848310E+04  0.25500000000E-02 0. -1.
         -2   -1    0    0    0  501 -0.00000000000E+00 -0.00000000000E+00 -0.91534148363E+02  0.91534148398E+02  0.25500000000E-02 0.  1.
    8880023    1    1    2    0    0  0.19607622022E+03 -0.74877076515E+02  0.26808781721E+04  0.27685683016E+04  0.65864270000E+03 0. -1.
    8880022    1    1    2    0    0 -0.19607622022E+03  0.74877076515E+02  0.30587251057E+03  0.40125067783E+03  0.15294330000E+03 0.  0.
<mgrwt>
<rscale>  0 0.54119861E+03</rscale>
<asrwt>0</asrwt>
<pdfrwt beam="1">  1        2 0.47358222E+00 0.69127611E+03</pdfrwt>
<pdfrwt beam="2">  1       -2 0.14082178E-01 0.69127611E+03</pdfrwt>
<totfact> 0.64622778E+01</totfact>
</mgrwt>
</event>
<event>
 4    2  0.2930016E-007  0.6922609E+03  0.7818608E-02  0.1003096E+00
          2   -1    0    0  501    0  0.00000000000E+00  0.00000000000E+00  0.82854867427E+03  0.82854867428E+03  0.25500000000E-02 0. -1.
         -2   -1    0    0    0  501 -0.00000000000E+00 -0.00000000000E+00 -0.13843990511E+04  0.13843990511E+04  0.25500000000E-02 0.  1.
    8880023    1    1    2    0    0  0.16729346048E+03  0.13201433374E+03  0.66758114362E+03  0.96171184656E+03  0.65864270000E+03 0. -1.
    8880022    1    1    2    0    0 -0.16729346048E+03 -0.13201433374E+03 -0.12234315205E+04  0.12512358788E+04  0.15294330000E+03 0.  0.
<mgrwt>
<rscale>  0 0.54313282E+03</rscale>
<asrwt>0</asrwt>
<pdfrwt beam="1">  1        2 0.12746903E+00 0.69226086E+03</pdfrwt>
<pdfrwt beam="2">  1       -2 0.21298447E+00 0.69226086E+03</pdfrwt>
<totfact> 0.37197902E+00</totfact>
</mgrwt>
</event>
<event>
 4    2  0.2930016E-007  0.6598438E+03  0.7818608E-02  0.1024317E+00
         -2   -1    0    0    0  501 -0.00000000000E+00  0.00000000000E+00  0.45240380787E+03  0.45240380788E+03  0.25500000000E-02 0.  1.
          2   -1    0    0  501    0  0.00000000000E+00 -0.00000000000E+00 -0.81297273932E+03  0.81297273933E+03  0.25500000000E-02 0. -1.
    8880023    1    1    2    0    0 -0.39600217377E+02  0.39306047684E+01 -0.65592817977E+03  0.93039540527E+03  0.65864270000E+03 0. -1.
    8880022    1    1    2    0    0  0.39600217377E+02 -0.39306047684E+01  0.29535924832E+03  0.33498114193E+03  0.15294330000E+03 0.  0.
<mgrwt>
<rscale>  0 0.46160409E+03</rscale>
<asrwt>0</asrwt>
<pdfrwt beam="1">  1        2 0.12507273E+00 0.65984379E+03</pdfrwt>
<pdfrwt beam="2">  1       -2 0.69600586E-01 0.65984379E+03</pdfrwt>
<totfact> 0.64771955E+01</totfact>
</mgrwt>
</event>
<event>
 4    2  0.2930016E-007  0.7783599E+03  0.7818608E-02  0.9759704E-01
         -2   -1    0    0    0  501 -0.00000000000E+00  0.00000000000E+00  0.75373696929E+03  0.75373696930E+03  0.25500000000E-02 0.  1.
          2   -1    0    0  501    0  0.00000000000E+00 -0.00000000000E+00 -0.68535783986E+03  0.68535783987E+03  0.25500000000E-02 0. -1.
    8880023    1    1    2    0    0  0.11620030808E+03  0.39816001118E+03  0.41061919361E+03  0.88002967821E+03  0.65864270000E+03 0.  0.
    8880022    1    1    2    0    0 -0.11620030808E+03 -0.39816001118E+03 -0.34224006418E+03  0.55906513095E+03  0.15294330000E+03 0.  0.
<mgrwt>
<rscale>  0 0.67570636E+03</rscale>
<asrwt>0</asrwt>
<pdfrwt beam="1">  1        2 0.10543967E+00 0.77835989E+03</pdfrwt>
<pdfrwt beam="2">  1       -2 0.11595953E+00 0.77835989E+03</pdfrwt>
<totfact> 0.24582786E+01</totfact>
</mgrwt>
</event>
<event>
 4    2  0.2930016E-007  0.7308951E+03  0.7818608E-02  0.9887310E-01
          2   -1    0    0  501    0  0.00000000000E+00  0.00000000000E+00  0.11506068454E+04  0.11506068454E+04  0.25500000000E-02 0. -1.
         -2   -1    0    0    0  501 -0.00000000000E+00 -0.00000000000E+00 -0.36394617723E+03  0.36394617724E+03  0.25500000000E-02 0.  1.
    8880023    1    1    2    0    0 -0.22343164358E+03  0.22466798517E+03  0.88637879740E+03  0.11488581208E+04  0.65864270000E+03 0. -1.
    8880022    1    1    2    0    0  0.22343164358E+03 -0.22466798517E+03 -0.99718129270E+02  0.36569490184E+03  0.15294330000E+03 0.  0.
<mgrwt>
<rscale>  0 0.60880268E+03</rscale>
<asrwt>0</asrwt>
<pdfrwt beam="1">  1        2 0.17701644E+00 0.73089507E+03</pdfrwt>
<pdfrwt beam="2">  1       -2 0.55991720E-01 0.73089507E+03</pdfrwt>
<totfact> 0.61870268E+01</totfact>
</mgrwt>
</event>
<event>
 4    2  0.3276221E-007  0.7661909E+03  0.7818608E-02  0.9789336E-01
          2   -1    0    0  501    0  0.00000000000E+00  0.00000000000E+00  0.12140367719E+04  0.12140367719E+04  0.25500000000E-02 0. -1.
         -2   -1    0    0    0  501 -0.00000000000E+00 -0.00000000000E+00 -0.11559006806E+04  0.11559006806E+04  0.25500000000E-02 0.  1.
    8880023    1    1    2    0    0  0.22219947391E+03 -0.32228189962E+03  0.10458797554E+04  0.12965002499E+04  0.65864270000E+03 0.  0.
    8880022    1    1    2    0    0 -0.22219947391E+03  0.32228189962E+03 -0.98774366403E+03  0.10734372026E+04  0.15294330000E+03 0.  0.
<mgrwt>
<rscale>  0 0.65937997E+03</rscale>
<asrwt>0</asrwt>
<pdfrwt beam="1">  1        2 0.18677489E+00 0.76619086E+03</pdfrwt>
<pdfrwt beam="2">  1       -2 0.17783087E+00 0.76619086E+03</pdfrwt>
<totfact> 0.35633690E+00</totfact>
</mgrwt>
</event>
<event>
 4    2  0.2930016E-007  0.6887514E+03  0.7818608E-02  0.1004752E+00
          2   -1    0    0  501    0  0.00000000000E+00  0.00000000000E+00  0.76528427555E+03  0.76528427555E+03  0.25500000000E-02 0. -1.
         -2   -1    0    0    0  501 -0.00000000000E+00 -0.00000000000E+00 -0.16588061458E+04  0.16588061458E+04  0.25500000000E-02 0.  1.
    8880023    1    1    2    0    0 -0.16382149498E+03 -0.11717839349E+03  0.59748128731E+03  0.91179073974E+03  0.65864270000E+03 0. -1.
    8880022    1    1    2    0    0  0.16382149498E+03  0.11717839349E+03 -0.14910031576E+04  0.15122996816E+04  0.15294330000E+03 0.  0.
<mgrwt>
<rscale>  0 0.53614881E+03</rscale>
<asrwt>0</asrwt>
<pdfrwt beam="1">  1        2 0.11773604E+00 0.68875138E+03</pdfrwt>
<pdfrwt beam="2">  1       -2 0.25520094E+00 0.68875138E+03</pdfrwt>
<totfact> 0.22745253E+00</totfact>
</mgrwt>
</event>
<event>
 4    2  0.2930016E-007  0.1155389E+04  0.7818608E-02  0.9201757E-01
         -2   -1    0    0    0  501 -0.00000000000E+00  0.00000000000E+00  0.50673543564E+03  0.50673543565E+03  0.25500000000E-02 0.  1.
          2   -1    0    0  501    0  0.00000000000E+00 -0.00000000000E+00 -0.42737730410E+04  0.42737730410E+04  0.25500000000E-02 0. -1.
    8880023    1    1    2    0    0  0.92995599616E+03  0.19051208152E+03 -0.36298049826E+04  0.38092528698E+04  0.65864270000E+03 0.  0.
    8880022    1    1    2    0    0 -0.92995599616E+03 -0.19051208152E+03 -0.13723262269E+03  0.97125560680E+03  0.15294330000E+03 0.  0.
<mgrwt>
<rscale>  0 0.11035315E+04</rscale>
<asrwt>0</asrwt>
<pdfrwt beam="1">  1        2 0.65750352E+00 0.11553888E+04</pdfrwt>
<pdfrwt beam="2">  1       -2 0.77959300E-01 0.11553888E+04</pdfrwt>
<totfact> 0.30309948E-01</totfact>
</mgrwt>
</event>
<event>
 4    2  0.2930016E-007  0.9506364E+03  0.7818608E-02  0.9449199E-01
          2   -1    0    0  501    0  0.00000000000E+00  0.00000000000E+00  0.66773937844E+03  0.66773937845E+03  0.25500000000E-02 0. -1.
         -2   -1    0    0    0  501 -0.00000000000E+00 -0.00000000000E+00 -0.18332135889E+04  0.18332135889E+04  0.25500000000E-02 0.  1.
    8880023    1    1    2    0    0  0.20656298578E+03  0.65362916553E+03  0.19449597933E+03  0.97032893668E+03  0.65864270000E+03 0.  0.
    8880022    1    1    2    0    0 -0.20656298578E+03 -0.65362916553E+03 -0.13599701898E+04  0.15306240307E+04  0.15294330000E+03 0.  0.
<mgrwt>
<rscale>  0 0.88135065E+03</rscale>
<asrwt>0</asrwt>
<pdfrwt beam="1">  1        2 0.10272914E+00 0.95063640E+03</pdfrwt>
<pdfrwt beam="2">  1       -2 0.28203286E+00 0.95063640E+03</pdfrwt>
<totfact> 0.17953766E+00</totfact>
</mgrwt>
</event>
<event>
 4    2  0.2930016E-007  0.8583575E+03  0.7818608E-02  0.9596492E-01
          2   -1    0    0  501    0  0.00000000000E+00  0.00000000000E+00  0.21686873364E+04  0.21686873364E+04  0.25500000000E-02 0. -1.
         -2   -1    0    0    0  501 -0.00000000000E+00 -0.00000000000E+00 -0.82713203568E+03  0.82713203569E+03  0.25500000000E-02 0.  1.
    8880023    1    1    2    0    0  0.23615016353E+03 -0.49719253719E+03  0.19685789524E+04  0.21475755206E+04  0.65864270000E+03 0. -1.
    8880022    1    1    2    0    0 -0.23615016353E+03  0.49719253719E+03 -0.62702365167E+03  0.84824385146E+03  0.15294330000E+03 0.  0.
<mgrwt>
<rscale>  0 0.77528804E+03</rscale>
<asrwt>0</asrwt>
<pdfrwt beam="1">  1        2 0.33364420E+00 0.85835746E+03</pdfrwt>
<pdfrwt beam="2">  1       -2 0.12725109E+00 0.85835746E+03</pdfrwt>
<totfact> 0.25194712E+00</totfact>
</mgrwt>
</event>
<event>
 4    2  0.2930016E-007  0.7605612E+03  0.7818608E-02  0.9803657E-01
          2   -1    0    0  501    0  0.00000000000E+00  0.00000000000E+00  0.98941849366E+03  0.98941849367E+03  0.25500000000E-02 0. -1.
         -2   -1    0    0    0  501 -0.00000000000E+00 -0.00000000000E+00 -0.48655278513E+03  0.48655278513E+03  0.25500000000E-02 0.  1.
    8880023    1    1    2    0    0 -0.34696855090E+03 -0.15574340761E+03  0.68856430365E+03  0.10259503842E+04  0.65864270000E+03 0. -1.
    8880022    1    1    2    0    0  0.34696855090E+03  0.15574340761E+03 -0.18569859511E+03  0.45002089459E+03  0.15294330000E+03 0.  1.
<mgrwt>
<rscale>  0 0.65166674E+03</rscale>
<asrwt>0</asrwt>
<pdfrwt beam="1">  1        2 0.15221823E+00 0.76056123E+03</pdfrwt>
<pdfrwt beam="2">  1       -2 0.74854276E-01 0.76056123E+03</pdfrwt>
<totfact> 0.41637919E+01</totfact>
</mgrwt>
</event>
<event>
 4    2  0.2930016E-007  0.8413938E+03  0.7818608E-02  0.9627558E-01
         -2   -1    0    0    0  501 -0.00000000000E+00  0.00000000000E+00  0.27422924758E+03  0.27422924759E+03  0.25500000000E-02 0.  1.
          2   -1    0    0  501    0  0.00000000000E+00 -0.00000000000E+00 -0.29751556006E+04  0.29751556006E+04  0.25500000000E-02 0. -1.
    8880023    1    1    2    0    0  0.35464452568E+03  0.38517593548E+03 -0.25473620414E+04  0.26827219045E+04  0.65864270000E+03 0. -1.
    8880022    1    1    2    0    0 -0.35464452568E+03 -0.38517593548E+03 -0.15356431160E+03  0.56666294363E+03  0.15294330000E+03 0.  0.
<mgrwt>
<rscale>  0 0.75498770E+03</rscale>
<asrwt>0</asrwt>
<pdfrwt beam="1">  1        2 0.45771622E+00 0.84139375E+03</pdfrwt>
<pdfrwt beam="2">  1       -2 0.42189117E-01 0.84139375E+03</pdfrwt>
<totfact> 0.10052932E+01</totfact>
</mgrwt>
</event>
<event>
 4    2  0.2930016E-007  0.7842558E+03  0.7818608E-02  0.9745933E-01
          2   -1    0    0  501    0  0.00000000000E+00  0.00000000000E+00  0.22360681488E+04  0.22360681488E+04  0.25500000000E-02 0. -1.
         -2   -1    0    0    0  501 -0.00000000000E+00 -0.00000000000E+00 -0.27830847222E+03  0.27830847223E+03  0.25500000000E-02 0.  1.
    8880023    1    1    2    0    0 -0.43090201955E+02 -0.42354471585E+03  0.19035424428E+04  0.20587692755E+04  0.65864270000E+03 0. -1.
    8880022    1    1    2    0    0  0.43090201955E+02  0.42354471585E+03  0.54217233732E+02  0.45560734551E+03  0.15294330000E+03 0.  0.
<mgrwt>
<rscale>  0 0.68346569E+03</rscale>
<asrwt>0</asrwt>
<pdfrwt beam="1">  1        2 0.34401050E+00 0.78425576E+03</pdfrwt>
<pdfrwt beam="2">  1       -2 0.42816686E-01 0.78425576E+03</pdfrwt>
<totfact> 0.26330930E+01</totfact>
</mgrwt>
</event>
<event>
 4    2  0.2930016E-007  0.6740147E+03  0.7818608E-02  0.1012935E+00
          2   -1    0    0  501    0  0.00000000000E+00  0.00000000000E+00  0.14472868705E+04  0.14472868705E+04  0.25500000000E-02 0. -1.
         -2   -1    0    0    0  501 -0.00000000000E+00 -0.00000000000E+00 -0.19251767172E+03  0.19251767174E+03  0.25500000000E-02 0.  1.
    8880023    1    1    2    0    0  0.38367469940E+02 -0.13788944786E+03  0.12614513485E+04  0.14302290983E+04  0.65864270000E+03 0.  0.
    8880022    1    1    2    0    0 -0.38367469940E+02  0.13788944786E+03 -0.66821497359E+01  0.20957544398E+03  0.15294330000E+03 0.  0.
<mgrwt>
<rscale>  0 0.50324781E+03</rscale>
<asrwt>0</asrwt>
<pdfrwt beam="1">  1        2 0.22265951E+00 0.67401467E+03</pdfrwt>
<pdfrwt beam="2">  1       -2 0.29618104E-01 0.67401467E+03</pdfrwt>
<totfact> 0.14593920E+02</totfact>
</mgrwt>
</event>
<event>
 4    2  0.2930016E-007  0.1119785E+04  0.7818608E-02  0.9239342E-01
         -2   -1    0    0    0  501 -0.00000000000E+00  0.00000000000E+00  0.54433351929E+03  0.54433351930E+03  0.25500000000E-02 0.  1.
          2   -1    0    0  501    0  0.00000000000E+00 -0.00000000000E+00 -0.26743912231E+04  0.26743912231E+04  0.25500000000E-02 0. -1.
    8880023    1    1    2    0    0 -0.74628498619E+03  0.51299717455E+03 -0.19986290660E+04  0.22909464706E+04  0.65864270000E+03 0. -1.
    8880022    1    1    2    0    0  0.74628498619E+03 -0.51299717455E+03 -0.13142863784E+03  0.92777827177E+03  0.15294330000E+03 0.  0.
<mgrwt>
<rscale>  0 0.10656423E+04</rscale>
<asrwt>0</asrwt>
<pdfrwt beam="1">  1        2 0.41144480E+00 0.11197846E+04</pdfrwt>
<pdfrwt beam="2">  1       -2 0.83743620E-01 0.11197846E+04</pdfrwt>
<totfact> 0.34196647E+00</totfact>
</mgrwt>
</event>
<event>
 4    2  0.2930016E-007  0.6781766E+03  0.7818608E-02  0.1010374E+00
         -2   -1    0    0    0  501 -0.00000000000E+00  0.00000000000E+00  0.25278275648E+03  0.25278275649E+03  0.25500000000E-02 0.  1.
          2   -1    0    0  501    0  0.00000000000E+00 -0.00000000000E+00 -0.16594113079E+04  0.16594113079E+04  0.25500000000E-02 0. -1.
    8880023    1    1    2    0    0  0.15761932541E+03  0.35629280819E+02 -0.15185707684E+04  0.16631237724E+04  0.65864270000E+03 0.  0.
    8880022    1    1    2    0    0 -0.15761932541E+03 -0.35629280819E+02  0.11194221699E+03  0.24907029200E+03  0.15294330000E+03 0.  0.
<mgrwt>
<rscale>  0 0.51326090E+03</rscale>
<asrwt>0</asrwt>
<pdfrwt beam="1">  1        2 0.25529404E+00 0.67817660E+03</pdfrwt>
<pdfrwt beam="2">  1       -2 0.38889656E-01 0.67817660E+03</pdfrwt>
<totfact> 0.66546205E+01</totfact>
</mgrwt>
</event>
<event>
 4    2  0.2930016E-007  0.7094684E+03  0.7818608E-02  0.9959980E-01
          2   -1    0    0  501    0  0.00000000000E+00  0.00000000000E+00  0.16879862810E+04  0.16879862810E+04  0.25500000000E-02 0. -1.
         -2   -1    0    0    0  501 -0.00000000000E+00 -0.00000000000E+00 -0.60836714845E+03  0.60836714845E+03  0.25500000000E-02 0.  1.
    8880023    1    1    2    0    0 -0.18268387154E+03  0.19016244737E+03  0.15677757957E+04  0.17208330265E+04  0.65864270000E+03 0. -1.
    8880022    1    1    2    0    0  0.18268387154E+03 -0.19016244737E+03 -0.48815666319E+03  0.57552040289E+03  0.15294330000E+03 0.  0.
<mgrwt>
<rscale>  0 0.57440393E+03</rscale>
<asrwt>0</asrwt>
<pdfrwt beam="1">  1        2 0.25969020E+00 0.70946836E+03</pdfrwt>
<pdfrwt beam="2">  1       -2 0.93594945E-01 0.70946836E+03</pdfrwt>
<totfact> 0.99418727E+00</totfact>
</mgrwt>
</event>
<event>
 4    2  0.2930016E-007  0.1086771E+04  0.7818608E-02  0.9275930E-01
          2   -1    0    0  501    0  0.00000000000E+00  0.00000000000E+00  0.15462511037E+04  0.15462511037E+04  0.25500000000E-02 0. -1.
         -2   -1    0    0    0  501 -0.00000000000E+00 -0.00000000000E+00 -0.14301665493E+04  0.14301665493E+04  0.25500000000E-02 0.  1.
    8880023    1    1    2    0    0  0.43169510389E+03  0.74893289913E+03  0.11752687249E+04  0.16007273135E+04  0.65864270000E+03 0.  0.
    8880022    1    1    2    0    0 -0.43169510389E+03 -0.74893289913E+03 -0.10591841706E+04  0.13756903395E+04  0.15294330000E+03 0.  0.
<mgrwt>
<rscale>  0 0.10302933E+04</rscale>
<asrwt>0</asrwt>
<pdfrwt beam="1">  1        2 0.23788478E+00 0.10867711E+04</pdfrwt>
<pdfrwt beam="2">  1       -2 0.22002563E+00 0.10867711E+04</pdfrwt>
<totfact> 0.11619364E+00</totfact>
</mgrwt>
</event>
<event>
 4    2  0.2930016E-007  0.1601513E+04  0.7818608E-02  0.8841092E-01
          2   -1    0    0  501    0  0.00000000000E+00  0.00000000000E+00  0.27296371475E+04  0.27296371475E+04  0.25500000000E-02 0. -1.
         -2   -1    0    0    0  501 -0.00000000000E+00 -0.00000000000E+00 -0.19546555682E+04  0.19546555682E+04  0.25500000000E-02 0.  1.
    8880023    1    1    2    0    0  0.14016402044E+04  0.40796818381E+03  0.21446968069E+04  0.26766710484E+04  0.65864270000E+03 0.  0.
    8880022    1    1    2    0    0 -0.14016402044E+04 -0.40796818381E+03 -0.13697152275E+04  0.20076216673E+04  0.15294330000E+03 0.  0.
<mgrwt>
<rscale>  0 0.15669829E+04</rscale>
<asrwt>0</asrwt>
<pdfrwt beam="1">  1        2 0.41994418E+00 0.16015129E+04</pdfrwt>
<pdfrwt beam="2">  1       -2 0.30071624E+00 0.16015129E+04</pdfrwt>
<totfact> 0.74333358E-02</totfact>
</mgrwt>
</event>
<event>
 4    2  0.2930016E-007  0.8458544E+03  0.7818608E-02  0.9619239E-01
         -2   -1    0    0    0  501 -0.00000000000E+00  0.00000000000E+00  0.11616739951E+04  0.11616739951E+04  0.25500000000E-02 0.  1.
          2   -1    0    0  501    0  0.00000000000E+00 -0.00000000000E+00 -0.16850509355E+04  0.16850509355E+04  0.25500000000E-02 0. -1.
    8880023    1    1    2    0    0 -0.48475221456E+02  0.52849746566E+03 -0.15015438331E+04  0.17233988242E+04  0.65864270000E+03 0.  0.
    8880022    1    1    2    0    0  0.48475221456E+02 -0.52849746566E+03  0.97816689270E+03  0.11233261064E+04  0.15294330000E+03 0.  1.
<mgrwt>
<rscale>  0 0.76035826E+03</rscale>
<asrwt>0</asrwt>
<pdfrwt beam="1">  1        2 0.25923861E+00 0.84585438E+03</pdfrwt>
<pdfrwt beam="2">  1       -2 0.17871908E+00 0.84585438E+03</pdfrwt>
<totfact> 0.18809280E+00</totfact>
</mgrwt>
</event>
<event>
 4    2  0.2930016E-007  0.7057872E+03  0.7818608E-02  0.9973990E-01
          2   -1    0    0  501    0  0.00000000000E+00  0.00000000000E+00  0.10589924509E+04  0.10589924509E+04  0.25500000000E-02 0. -1.
         -2   -1    0    0    0  501 -0.00000000000E+00 -0.00000000000E+00 -0.32888922325E+03  0.32888922326E+03  0.25500000000E-02 0.  1.
    8880023    1    1    2    0    0 -0.25220590907E+03  0.26787944046E+02  0.81660039119E+03  0.10793386029E+04  0.65864270000E+03 0.  0.
    8880022    1    1    2    0    0  0.25220590907E+03 -0.26787944046E+02 -0.86497163541E+02  0.30854307128E+03  0.15294330000E+03 0.  0.
<mgrwt>
<rscale>  0 0.56805562E+03</rscale>
<asrwt>0</asrwt>
<pdfrwt beam="1">  1        2 0.16292191E+00 0.70578723E+03</pdfrwt>
<pdfrwt beam="2">  1       -2 0.50598343E-01 0.70578723E+03</pdfrwt>
<totfact> 0.86885531E+01</totfact>
</mgrwt>
</event>
<event>
 4    2  0.2930016E-007  0.7163475E+03  0.7818608E-02  0.9935144E-01
          2   -1    0    0  501    0  0.00000000000E+00  0.00000000000E+00  0.21091222429E+04  0.21091222429E+04  0.25500000000E-02 0. -1.
         -2   -1    0    0    0  501 -0.00000000000E+00 -0.00000000000E+00 -0.14752812614E+03  0.14752812616E+03  0.25500000000E-02 0.  1.
    8880023    1    1    2    0    0  0.12453053233E+03  0.25265714320E+03  0.16935414293E+04  0.18388138200E+04  0.65864270000E+03 0.  0.
    8880022    1    1    2    0    0 -0.12453053233E+03 -0.25265714320E+03  0.26805268750E+03  0.41783654912E+03  0.15294330000E+03 0.  0.
<mgrwt>
<rscale>  0 0.58587865E+03</rscale>
<asrwt>0</asrwt>
<pdfrwt beam="1">  1        2 0.32448037E+00 0.71634747E+03</pdfrwt>
<pdfrwt beam="2">  1       -2 0.22696633E-01 0.71634747E+03</pdfrwt>
<totfact> 0.10224662E+02</totfact>
</mgrwt>
</event>
<event>
 4    2  0.2930016E-007  0.7706487E+03  0.7818608E-02  0.9778280E-01
         -2   -1    0    0    0  501 -0.00000000000E+00  0.00000000000E+00  0.34875929427E+03  0.34875929428E+03  0.25500000000E-02 0.  1.
          2   -1    0    0  501    0  0.00000000000E+00 -0.00000000000E+00 -0.20467450918E+04  0.20467450918E+04  0.25500000000E-02 0. -1.
    8880023    1    1    2    0    0  0.37729203921E+03 -0.13319120649E+03 -0.14454245494E+03  0.78408667115E+03  0.65864270000E+03 0.  1.
    8880022    1    1    2    0    0 -0.37729203921E+03  0.13319120649E+03 -0.15534433425E+04  0.16114177149E+04  0.15294330000E+03 0.  0.
<mgrwt>
<rscale>  0 0.66541282E+03</rscale>
<asrwt>0</asrwt>
<pdfrwt beam="1">  1        2 0.31488385E+00 0.77064868E+03</pdfrwt>
<pdfrwt beam="2">  1       -2 0.53655277E-01 0.77064868E+03</pdfrwt>
<totfact> 0.21252520E+01</totfact>
</mgrwt>
</event>
<event>
 4    2  0.2930016E-007  0.7384171E+03  0.7818608E-02  0.9864582E-01
         -2   -1    0    0    0  501 -0.00000000000E+00  0.00000000000E+00  0.40518964027E+03  0.40518964028E+03  0.25500000000E-02 0.  1.
          2   -1    0    0  501    0  0.00000000000E+00 -0.00000000000E+00 -0.16340899995E+04  0.16340899995E+04  0.25500000000E-02 0. -1.
    8880023    1    1    2    0    0 -0.17927341400E+03 -0.28162154461E+03 -0.14381455848E+04  0.16166392859E+04  0.65864270000E+03 0.  0.
    8880022    1    1    2    0    0  0.17927341400E+03  0.28162154461E+03  0.20924522553E+03  0.42264035393E+03  0.15294330000E+03 0.  0.
<mgrwt>
<rscale>  0 0.62008923E+03</rscale>
<asrwt>0</asrwt>
<pdfrwt beam="1">  1        2 0.25139846E+00 0.73841713E+03</pdfrwt>
<pdfrwt beam="2">  1       -2 0.62336869E-01 0.73841713E+03</pdfrwt>
<totfact> 0.26183959E+01</totfact>
</mgrwt>
</event>
<event>
 4    2  0.2930016E-007  0.8283484E+03  0.7818608E-02  0.9652555E-01
          2   -1    0    0  501    0  0.00000000000E+00  0.00000000000E+00  0.19015925138E+04  0.19015925138E+04  0.25500000000E-02 0. -1.
         -2   -1    0    0    0  501 -0.00000000000E+00 -0.00000000000E+00 -0.65494241859E+03  0.65494241860E+03  0.25500000000E-02 0.  1.
    8880023    1    1    2    0    0 -0.44188680219E+03  0.23892857956E+03  0.16816854460E+04  0.18746271516E+04  0.65864270000E+03 0.  0.
    8880022    1    1    2    0    0  0.44188680219E+03 -0.23892857956E+03 -0.43503535076E+03  0.68190778080E+03  0.15294330000E+03 0.  1.
<mgrwt>
<rscale>  0 0.73913322E+03</rscale>
<asrwt>0</asrwt>
<pdfrwt beam="1">  1        2 0.29255269E+00 0.82834837E+03</pdfrwt>
<pdfrwt beam="2">  1       -2 0.10076037E+00 0.82834837E+03</pdfrwt>
<totfact> 0.62797486E+00</totfact>
</mgrwt>
</event>
<event>
 4    2  0.2930016E-007  0.6845876E+03  0.7818608E-02  0.1006839E+00
         -2   -1    0    0    0  501 -0.00000000000E+00  0.00000000000E+00  0.24162472109E+03  0.24162472111E+03  0.25500000000E-02 0.  1.
          2   -1    0    0  501    0  0.00000000000E+00 -0.00000000000E+00 -0.17157298829E+04  0.17157298829E+04  0.25500000000E-02 0. -1.
    8880023    1    1    2    0    0 -0.66100822556E+02  0.17458701257E+03 -0.15580677841E+04  0.17018329442E+04  0.65864270000E+03 0. -1.
    8880022    1    1    2    0    0  0.66100822556E+02 -0.17458701257E+03  0.83962622289E+02  0.25552165986E+03  0.15294330000E+03 0.  0.
<mgrwt>
<rscale>  0 0.52750420E+03</rscale>
<asrwt>0</asrwt>
<pdfrwt beam="1">  1        2 0.26395844E+00 0.68458758E+03</pdfrwt>
<pdfrwt beam="2">  1       -2 0.37173035E-01 0.68458758E+03</pdfrwt>
<totfact> 0.67589607E+01</totfact>
</mgrwt>
</event>
<event>
 4    2  0.2930016E-007  0.6669297E+03  0.7818608E-02  0.1017967E+00
          2   -1    0    0  501    0  0.00000000000E+00  0.00000000000E+00  0.29707638804E+04  0.29707638804E+04  0.25500000000E-02 0. -1.
         -2   -1    0    0    0  501 -0.00000000000E+00 -0.00000000000E+00 -0.74104821361E+02  0.74104821404E+02  0.25500000000E-02 0.  1.
    8880023    1    1    2    0    0 -0.79665183166E+02 -0.68106365406E+02  0.26700063291E+04  0.27520408831E+04  0.65864270000E+03 0.  0.
    8880022    1    1    2    0    0  0.79665183166E+02  0.68106365406E+02  0.22665272993E+03  0.29282781872E+03  0.15294330000E+03 0.  0.
<mgrwt>
<rscale>  0 0.48427608E+03</rscale>
<asrwt>0</asrwt>
<pdfrwt beam="1">  1        2 0.45704060E+00 0.66692970E+03</pdfrwt>
<pdfrwt beam="2">  1       -2 0.11400742E-01 0.66692970E+03</pdfrwt>
<totfact> 0.10718988E+02</totfact>
</mgrwt>
</event>
<event>
 4    2  0.2930016E-007  0.8063756E+03  0.7818608E-02  0.9697176E-01
          2   -1    0    0  501    0  0.00000000000E+00  0.00000000000E+00  0.12612710164E+04  0.12612710164E+04  0.25500000000E-02 0. -1.
         -2   -1    0    0    0  501 -0.00000000000E+00 -0.00000000000E+00 -0.58095279969E+03  0.58095279969E+03  0.25500000000E-02 0.  1.
    8880023    1    1    2    0    0 -0.46511475019E+03 -0.99869281431E+01  0.97920922495E+03  0.12685000521E+04  0.65864270000E+03 0.  0.
    8880022    1    1    2    0    0  0.46511475019E+03  0.99869281431E+01 -0.29889100825E+03  0.57372376403E+03  0.15294330000E+03 0.  0.
<mgrwt>
<rscale>  0 0.71185155E+03</rscale>
<asrwt>0</asrwt>
<pdfrwt beam="1">  1        2 0.19404169E+00 0.80637564E+03</pdfrwt>
<pdfrwt beam="2">  1       -2 0.89377354E-01 0.80637564E+03</pdfrwt>
<totfact> 0.18962490E+01</totfact>
</mgrwt>
</event>
<event>
 4    2  0.2930016E-007  0.6935969E+03  0.7818608E-02  0.1002488E+00
          2   -1    0    0  501    0  0.00000000000E+00  0.00000000000E+00  0.77692512435E+03  0.77692512435E+03  0.25500000000E-02 0. -1.
         -2   -1    0    0    0  501 -0.00000000000E+00 -0.00000000000E+00 -0.49928152678E+03  0.49928152679E+03  0.25500000000E-02 0.  1.
    8880023    1    1    2    0    0  0.93053835311E+02  0.19648772339E+03  0.55776063861E+03  0.89004133497E+03  0.65864270000E+03 0.  0.
    8880022    1    1    2    0    0 -0.93053835311E+02 -0.19648772339E+03 -0.28011704105E+03  0.38616531617E+03  0.15294330000E+03 0.  1.
<mgrwt>
<rscale>  0 0.54572719E+03</rscale>
<asrwt>0</asrwt>
<pdfrwt beam="1">  1        2 0.11952694E+00 0.69359689E+03</pdfrwt>
<pdfrwt beam="2">  1       -2 0.76812543E-01 0.69359689E+03</pdfrwt>
<totfact> 0.55191450E+01</totfact>
</mgrwt>
</event>
<event>
 4    2  0.2930016E-007  0.6675802E+03  0.7818608E-02  0.1017460E+00
          2   -1    0    0  501    0  0.00000000000E+00  0.00000000000E+00  0.16552066765E+04  0.16552066765E+04  0.25500000000E-02 0. -1.
         -2   -1    0    0    0  501 -0.00000000000E+00 -0.00000000000E+00 -0.17508864498E+03  0.17508864499E+03  0.25500000000E-02 0.  1.
    8880023    1    1    2    0    0 -0.58833172834E+02 -0.91606543044E+02  0.14996680627E+04  0.16415442746E+04  0.65864270000E+03 0. -1.
    8880022    1    1    2    0    0  0.58833172834E+02  0.91606543044E+02 -0.19550031207E+02  0.18875104686E+03  0.15294330000E+03 0.  0.
<mgrwt>
<rscale>  0 0.48614340E+03</rscale>
<asrwt>0</asrwt>
<pdfrwt beam="1">  1        2 0.25464719E+00 0.66758019E+03</pdfrwt>
<pdfrwt beam="2">  1       -2 0.26936714E-01 0.66758019E+03</pdfrwt>
<totfact> 0.13344587E+02</totfact>
</mgrwt>
</event>
<event>
 4    2  0.2930016E-007  0.1308598E+04  0.7818608E-02  0.9058171E-01
         -2   -1    0    0    0  501 -0.00000000000E+00  0.00000000000E+00  0.15173649729E+04  0.15173649729E+04  0.25500000000E-02 0.  1.
          2   -1    0    0  501    0  0.00000000000E+00 -0.00000000000E+00 -0.17341781586E+04  0.17341781586E+04  0.25500000000E-02 0. -1.
    8880023    1    1    2    0    0  0.76508312431E+02  0.11281683700E+04 -0.11771533549E+04  0.17601470451E+04  0.65864270000E+03 0.  0.
    8880022    1    1    2    0    0 -0.76508312431E+02 -0.11281683700E+04  0.96034016919E+03  0.14913960864E+04  0.15294330000E+03 0.  0.
<mgrwt>
<rscale>  0 0.12645364E+04</rscale>
<asrwt>0</asrwt>
<pdfrwt beam="1">  1        2 0.26679664E+00 0.13085976E+04</pdfrwt>
<pdfrwt beam="2">  1       -2 0.23344076E+00 0.13085976E+04</pdfrwt>
<totfact> 0.73199294E-01</totfact>
</mgrwt>
</event>
<event>
 4    2  0.2930016E-007  0.7653894E+03  0.7818608E-02  0.9791350E-01
         -2   -1    0    0    0  501 -0.00000000000E+00  0.00000000000E+00  0.16680762591E+04  0.16680762591E+04  0.25500000000E-02 0.  1.
          2   -1    0    0  501    0  0.00000000000E+00 -0.00000000000E+00 -0.81719138069E+03  0.81719138070E+03  0.25500000000E-02 0. -1.
    8880023    1    1    2    0    0  0.17371808092E+03 -0.34904544214E+03 -0.60165504115E+03  0.97355517929E+03  0.65864270000E+03 0. -1.
    8880022    1    1    2    0    0 -0.17371808092E+03  0.34904544214E+03  0.14525399195E+04  0.15117124605E+04  0.15294330000E+03 0.  0.
<mgrwt>
<rscale>  0 0.65828847E+03</rscale>
<asrwt>0</asrwt>
<pdfrwt beam="1">  1        2 0.12572175E+00 0.76538938E+03</pdfrwt>
<pdfrwt beam="2">  1       -2 0.25662711E+00 0.76538938E+03</pdfrwt>
<totfact> 0.20194782E+00</totfact>
</mgrwt>
</event>
<event>
 4    2  0.4068849E-007  0.1198176E+04  0.7818608E-02  0.9158898E-01
          2   -1    0    0  501    0  0.00000000000E+00  0.00000000000E+00  0.19750373247E+04  0.19750373247E+04  0.25500000000E-02 0. -1.
         -2   -1    0    0    0  501 -0.00000000000E+00 -0.00000000000E+00 -0.17638389771E+04  0.17638389771E+04  0.25500000000E-02 0.  1.
    8880023    1    1    2    0    0  0.83540475176E+03  0.55128341857E+03  0.16131949373E+04  0.20094831720E+04  0.65864270000E+03 0.  0.
    8880022    1    1    2    0    0 -0.83540475176E+03 -0.55128341857E+03 -0.14019965897E+04  0.17293931298E+04  0.15294330000E+03 0.  0.
<mgrwt>
<rscale>  0 0.11487929E+04</rscale>
<asrwt>0</asrwt>
<pdfrwt beam="1">  1        2 0.30385190E+00 0.11981756E+04</pdfrwt>
<pdfrwt beam="2">  1       -2 0.27135984E+00 0.11981756E+04</pdfrwt>
<totfact> 0.31967633E-01</totfact>
</mgrwt>
</event>
<event>
 4    2  0.2930016E-007  0.9317372E+03  0.7818608E-02  0.9476892E-01
          2   -1    0    0  501    0  0.00000000000E+00  0.00000000000E+00  0.14563785601E+04  0.14563785601E+04  0.25500000000E-02 0. -1.
         -2   -1    0    0    0  501 -0.00000000000E+00 -0.00000000000E+00 -0.64246885026E+03  0.64246885026E+03  0.25500000000E-02 0.  1.
    8880023    1    1    2    0    0 -0.55605088366E+03  0.35373907416E+03  0.10297436938E+04  0.13887066642E+04  0.65864270000E+03 0. -1.
    8880022    1    1    2    0    0  0.55605088366E+03 -0.35373907416E+03 -0.21583398396E+03  0.71014074623E+03  0.15294330000E+03 0.  0.
<mgrwt>
<rscale>  0 0.86009123E+03</rscale>
<asrwt>0</asrwt>
<pdfrwt beam="1">  1        2 0.22405824E+00 0.93173715E+03</pdfrwt>
<pdfrwt beam="2">  1       -2 0.98841363E-01 0.93173715E+03</pdfrwt>
<totfact> 0.11434674E+01</totfact>
</mgrwt>
</event>
<event>
 4    2  0.2930016E-007  0.6592272E+03  0.7818608E-02  0.1024962E+00
          2   -1    0    0  501    0  0.00000000000E+00  0.00000000000E+00  0.19654717618E+04  0.19654717618E+04  0.25500000000E-02 0. -1.
         -2   -1    0    0    0  501 -0.00000000000E+00 -0.00000000000E+00 -0.14713725239E+03  0.14713725241E+03  0.25500000000E-02 0.  1.
    8880023    1    1    2    0    0 -0.27742495441E+02  0.83990519451E+00  0.18410499690E+04  0.19555166955E+04  0.65864270000E+03 0. -1.
    8880022    1    1    2    0    0  0.27742495441E+02 -0.83990519451E+00 -0.22715459608E+02  0.15709231876E+03  0.15294330000E+03 0.  0.
<mgrwt>
<rscale>  0 0.45937566E+03</rscale>
<asrwt>0</asrwt>
<pdfrwt beam="1">  1        2 0.30238026E+00 0.65922724E+03</pdfrwt>
<pdfrwt beam="2">  1       -2 0.22636501E-01 0.65922724E+03</pdfrwt>
<totfact> 0.12382476E+02</totfact>
</mgrwt>
</event>
<event>
 4    2  0.2930016E-007  0.6790020E+03  0.7818608E-02  0.1009894E+00
          2   -1    0    0  501    0  0.00000000000E+00  0.00000000000E+00  0.23302608039E+04  0.23302608039E+04  0.25500000000E-02 0. -1.
         -2   -1    0    0    0  501 -0.00000000000E+00 -0.00000000000E+00 -0.13127998890E+03  0.13127998892E+03  0.25500000000E-02 0.  1.
    8880023    1    1    2    0    0  0.10162237841E+03 -0.13002457817E+03  0.21150947657E+04  0.22214116172E+04  0.65864270000E+03 0. -1.
    8880022    1    1    2    0    0 -0.10162237841E+03  0.13002457817E+03  0.83886049310E+02  0.24012917566E+03  0.15294330000E+03 0.  0.
<mgrwt>
<rscale>  0 0.51516824E+03</rscale>
<asrwt>0</asrwt>
<pdfrwt beam="1">  1        2 0.35850166E+00 0.67900199E+03</pdfrwt>
<pdfrwt beam="2">  1       -2 0.20196921E-01 0.67900199E+03</pdfrwt>
<totfact> 0.95314473E+01</totfact>
</mgrwt>
</event>
<event>
 4    2  0.2930016E-007  0.8942211E+03  0.7818608E-02  0.9535373E-01
          2   -1    0    0  501    0  0.00000000000E+00  0.00000000000E+00  0.66589986083E+03  0.66589986084E+03  0.25500000000E-02 0. -1.
         -2   -1    0    0    0  501 -0.00000000000E+00 -0.00000000000E+00 -0.18732962149E+04  0.18732962149E+04  0.25500000000E-02 0.  1.
    8880023    1    1    2    0    0 -0.58934863529E+03  0.13597542760E+03  0.27114278730E+03  0.93442482213E+03  0.65864270000E+03 0. -1.
    8880022    1    1    2    0    0  0.58934863529E+03 -0.13597542760E+03 -0.14785391414E+04  0.16047712536E+04  0.15294330000E+03 0.  0.
<mgrwt>
<rscale>  0 0.81725402E+03</rscale>
<asrwt>0</asrwt>
<pdfrwt beam="1">  1        2 0.10244613E+00 0.89422108E+03</pdfrwt>
<pdfrwt beam="2">  1       -2 0.28819942E+00 0.89422108E+03</pdfrwt>
<totfact> 0.16660477E+00</totfact>
</mgrwt>
</event>
<event>
 4    2  0.2930016E-007  0.8842709E+03  0.7818608E-02  0.9551769E-01
         -2   -1    0    0    0  501 -0.00000000000E+00  0.00000000000E+00  0.18275861821E+03  0.18275861823E+03  0.25500000000E-02 0.  1.
          2   -1    0    0  501    0  0.00000000000E+00 -0.00000000000E+00 -0.35478753206E+04  0.35478753206E+04  0.25500000000E-02 0. -1.
    8880023    1    1    2    0    0  0.18834679800E+03 -0.55915140505E+03 -0.26356592322E+04  0.27800421947E+04  0.65864270000E+03 0. -1.
    8880022    1    1    2    0    0 -0.18834679800E+03  0.55915140505E+03 -0.72945747021E+03  0.95059174409E+03  0.15294330000E+03 0.  0.
<mgrwt>
<rscale>  0 0.80572392E+03</rscale>
<asrwt>0</asrwt>
<pdfrwt beam="1">  1        2 0.54582692E+00 0.88427090E+03</pdfrwt>
<pdfrwt beam="2">  1       -2 0.28116713E-01 0.88427090E+03</pdfrwt>
<totfact> 0.91877636E+00</totfact>
</mgrwt>
</event>
<event>
 4    2  0.2930016E-007  0.6792204E+03  0.7818608E-02  0.1009768E+00
          2   -1    0    0  501    0  0.00000000000E+00  0.00000000000E+00  0.13026974132E+04  0.13026974132E+04  0.25500000000E-02 0. -1.
         -2   -1    0    0    0  501 -0.00000000000E+00 -0.00000000000E+00 -0.94050563034E+03  0.94050563035E+03  0.25500000000E-02 0.  1.
    8880023    1    1    2    0    0 -0.43008435967E+01 -0.16586625980E+03  0.11981728352E+04  0.13773011518E+04  0.65864270000E+03 0. -1.
    8880022    1    1    2    0    0  0.43008435967E+01  0.16586625980E+03 -0.83598105231E+03  0.86590189181E+03  0.15294330000E+03 0.  0.
<mgrwt>
<rscale>  0 0.51566893E+03</rscale>
<asrwt>0</asrwt>
<pdfrwt beam="1">  1        2 0.20041499E+00 0.67922038E+03</pdfrwt>
<pdfrwt beam="2">  1       -2 0.14469317E+00 0.67922038E+03</pdfrwt>
<totfact> 0.56095848E+00</totfact>
</mgrwt>
</event>
<event>
 4    2  0.2930016E-007  0.7200523E+03  0.7818608E-02  0.9922409E-01
          2   -1    0    0  501    0  0.00000000000E+00  0.00000000000E+00  0.34328851250E+04  0.34328851250E+04  0.25500000000E-02 0. -1.
         -2   -1    0    0    0  501 -0.00000000000E+00 -0.00000000000E+00 -0.94962061675E+02  0.94962061709E+02  0.25500000000E-02 0.  1.
    8880023    1    1    2    0    0  0.22635028227E+03  0.18284059402E+03  0.28497795245E+04  0.29393398370E+04  0.65864270000E+03 0.  0.
    8880022    1    1    2    0    0 -0.22635028227E+03 -0.18284059402E+03  0.48814353886E+03  0.58850734970E+03  0.15294330000E+03 0.  0.
<mgrwt>
<rscale>  0 0.59187438E+03</rscale>
<asrwt>0</asrwt>
<pdfrwt beam="1">  1        2 0.52813611E+00 0.72005232E+03</pdfrwt>
<pdfrwt beam="2">  1       -2 0.14609550E-01 0.72005232E+03</pdfrwt>
<totfact> 0.35745973E+01</totfact>
</mgrwt>
</event>
<event>
 4    2  0.2930016E-007  0.8065359E+03  0.7818608E-02  0.9696838E-01
          2   -1    0    0  501    0  0.00000000000E+00  0.00000000000E+00  0.27698205844E+04  0.27698205844E+04  0.25500000000E-02 0. -1.
         -2   -1    0    0    0  501 -0.00000000000E+00 -0.00000000000E+00 -0.18109106258E+03  0.18109106260E+03  0.25500000000E-02 0.  1.
    8880023    1    1    2    0    0  0.33610452852E+03 -0.32206173787E+03  0.97996797577E+03  0.12691877154E+04  0.65864270000E+03 0.  1.
    8880022    1    1    2    0    0 -0.33610452852E+03  0.32206173787E+03  0.16087615460E+04  0.16817239316E+04  0.15294330000E+03 0.  0.
<mgrwt>
<rscale>  0 0.71205357E+03</rscale>
<asrwt>0</asrwt>
<pdfrwt beam="1">  1        2 0.42612619E+00 0.80653594E+03</pdfrwt>
<pdfrwt beam="2">  1       -2 0.27860167E-01 0.80653594E+03</pdfrwt>
<totfact> 0.29548035E+01</totfact>
</mgrwt>
</event>
<event>
 4    2  0.2930016E-007  0.7507037E+03  0.7818608E-02  0.9829798E-01
         -2   -1    0    0    0  501 -0.00000000000E+00  0.00000000000E+00  0.35624408345E+03  0.35624408346E+03  0.25500000000E-02 0.  1.
          2   -1    0    0  501    0  0.00000000000E+00 -0.00000000000E+00 -0.15290041851E+04  0.15290041851E+04  0.25500000000E-02 0. -1.
    8880023    1    1    2    0    0 -0.22527706593E+02  0.35949724296E+03 -0.12760727711E+04  0.14805126438E+04  0.65864270000E+03 0.  0.
    8880022    1    1    2    0    0  0.22527706593E+02 -0.35949724296E+03  0.10331266940E+03  0.40473562474E+03  0.15294330000E+03 0.  0.
<mgrwt>
<rscale>  0 0.63787644E+03</rscale>
<asrwt>0</asrwt>
<pdfrwt beam="1">  1        2 0.23523141E+00 0.75070365E+03</pdfrwt>
<pdfrwt beam="2">  1       -2 0.54806783E-01 0.75070365E+03</pdfrwt>
<totfact> 0.39162588E+01</totfact>
</mgrwt>
</event>
<event>
 4    2  0.1293780E-006  0.7742387E+03  0.7818608E-02  0.9769549E-01
          2   -1    0    0  501    0  0.00000000000E+00  0.00000000000E+00  0.23565051083E+04  0.23565051083E+04  0.25500000000E-02 0. -1.
         -2   -1    0    0    0  501 -0.00000000000E+00 -0.00000000000E+00 -0.18935104734E+04  0.18935104734E+04  0.25500000000E-02 0.  1.
    8880023    1    1    2    0    0 -0.22340044361E+03  0.34018763337E+03  0.22663709108E+04  0.23949702912E+04  0.65864270000E+03 0.  0.
    8880022    1    1    2    0    0  0.22340044361E+03 -0.34018763337E+03 -0.18033762760E+04  0.18550452905E+04  0.15294330000E+03 0.  1.
<mgrwt>
<rscale>  0 0.67022659E+03</rscale>
<asrwt>0</asrwt>
<pdfrwt beam="1">  1        2 0.36253925E+00 0.77423872E+03</pdfrwt>
<pdfrwt beam="2">  1       -2 0.29130931E+00 0.77423872E+03</pdfrwt>
<totfact> 0.16145488E-01</totfact>
</mgrwt>
</event>
<event>
 4    2  0.2930016E-007  0.1102658E+04  0.7818608E-02  0.9258103E-01
          2   -1    0    0  501    0  0.00000000000E+00  0.00000000000E+00  0.27486748354E+04  0.27486748354E+04  0.25500000000E-02 0. -1.
         -2   -1    0    0    0  501 -0.00000000000E+00 -0.00000000000E+00 -0.76409800407E+03  0.76409800407E+03  0.25500000000E-02 0.  1.
    8880023    1    1    2    0    0 -0.28780693152E+03 -0.83618856902E+03  0.23087568032E+04  0.25585566899E+04  0.65864270000E+03 0.  0.
    8880022    1    1    2    0    0  0.28780693152E+03  0.83618856902E+03 -0.32417997193E+03  0.95421614952E+03  0.15294330000E+03 0.  0.
<mgrwt>
<rscale>  0 0.10473322E+04</rscale>
<asrwt>0</asrwt>
<pdfrwt beam="1">  1        2 0.42287306E+00 0.11026579E+04</pdfrwt>
<pdfrwt beam="2">  1       -2 0.11755354E+00 0.11026579E+04</pdfrwt>
<totfact> 0.13836496E+00</totfact>
</mgrwt>
</event>
<event>
 4    2  0.2930016E-007  0.6714371E+03  0.7818608E-02  0.1014653E+00
          2   -1    0    0  501    0  0.00000000000E+00  0.00000000000E+00  0.17013985151E+04  0.17013985151E+04  0.25500000000E-02 0. -1.
         -2   -1    0    0    0  501 -0.00000000000E+00 -0.00000000000E+00 -0.39184459246E+03  0.39184459247E+03  0.25500000000E-02 0.  1.
    8880023    1    1    2    0    0 -0.11526132489E+03  0.61092832802E+02  0.16027748324E+04  0.17377326828E+04  0.65864270000E+03 0. -1.
    8880022    1    1    2    0    0  0.11526132489E+03 -0.61092832802E+02 -0.29322090972E+03  0.35551042480E+03  0.15294330000E+03 0.  0.
<mgrwt>
<rscale>  0 0.49666546E+03</rscale>
<asrwt>0</asrwt>
<pdfrwt beam="1">  1        2 0.26175362E+00 0.67143705E+03</pdfrwt>
<pdfrwt beam="2">  1       -2 0.60283782E-01 0.67143705E+03</pdfrwt>
<totfact> 0.26052515E+01</totfact>
</mgrwt>
</event>
<event>
 4    2  0.2930016E-007  0.1058042E+04  0.7818608E-02  0.9309275E-01
          2   -1    0    0  501    0  0.00000000000E+00  0.00000000000E+00  0.31780339176E+04  0.31780339176E+04  0.25500000000E-02 0. -1.
         -2   -1    0    0    0  501 -0.00000000000E+00 -0.00000000000E+00 -0.78749291591E+03  0.78749291592E+03  0.25500000000E-02 0.  1.
    8880023    1    1    2    0    0  0.73323895970E+03  0.38471269381E+03  0.28259858331E+04  0.30175568535E+04  0.65864270000E+03 0. -1.
    8880022    1    1    2    0    0 -0.73323895970E+03 -0.38471269381E+03 -0.43544483143E+03  0.94796998003E+03  0.15294330000E+03 0.  0.
<mgrwt>
<rscale>  0 0.99933411E+03</rscale>
<asrwt>0</asrwt>
<pdfrwt beam="1">  1        2 0.48892829E+00 0.10580423E+04</pdfrwt>
<pdfrwt beam="2">  1       -2 0.12115276E+00 0.10580423E+04</pdfrwt>
<totfact> 0.70364469E-01</totfact>
</mgrwt>
</event>
<event>
 4    2  0.2930016E-007  0.8053057E+03  0.7818608E-02  0.9699439E-01
          2   -1    0    0  501    0  0.00000000000E+00  0.00000000000E+00  0.34699587193E+03  0.34699587194E+03  0.25500000000E-02 0. -1.
         -2   -1    0    0    0  501 -0.00000000000E+00 -0.00000000000E+00 -0.13994817612E+04  0.13994817612E+04  0.25500000000E-02 0.  1.
    8880023    1    1    2    0    0  0.34509247885E+03  0.30922209243E+03 -0.32045470293E+03  0.86672287630E+03  0.65864270000E+03 0.  0.
    8880022    1    1    2    0    0 -0.34509247885E+03 -0.30922209243E+03 -0.73203118633E+03  0.87975475684E+03  0.15294330000E+03 0.  0.
<mgrwt>
<rscale>  0 0.71050189E+03</rscale>
<asrwt>0</asrwt>
<pdfrwt beam="1">  1        2 0.53383981E-01 0.80530574E+03</pdfrwt>
<pdfrwt beam="2">  1       -2 0.21530488E+00 0.80530574E+03</pdfrwt>
<totfact> 0.10027797E+01</totfact>
</mgrwt>
</event>
<event>
 4    2  0.2930016E-007  0.7074122E+03  0.7818608E-02  0.9967739E-01
         -2   -1    0    0    0  501 -0.00000000000E+00  0.00000000000E+00  0.13387802798E+04  0.13387802799E+04  0.25500000000E-02 0.  1.
          2   -1    0    0  501    0  0.00000000000E+00 -0.00000000000E+00 -0.58243735375E+03  0.58243735376E+03  0.25500000000E-02 0. -1.
    8880023    1    1    2    0    0 -0.25664797408E+03 -0.27451542130E+02 -0.33977609082E+03  0.78478007615E+03  0.65864270000E+03 0. -1.
    8880022    1    1    2    0    0  0.25664797408E+03  0.27451542130E+02  0.10961190169E+04  0.11364375575E+04  0.15294330000E+03 0.  0.
<mgrwt>
<rscale>  0 0.57087734E+03</rscale>
<asrwt>0</asrwt>
<pdfrwt beam="1">  1        2 0.89605748E-01 0.70741217E+03</pdfrwt>
<pdfrwt beam="2">  1       -2 0.20596619E+00 0.70741217E+03</pdfrwt>
<totfact> 0.64155813E+00</totfact>
</mgrwt>
</event>
<event>
 4    2  0.2930016E-007  0.6984404E+03  0.7818608E-02  0.1000373E+00
          2   -1    0    0  501    0  0.00000000000E+00  0.00000000000E+00  0.77078025229E+03  0.77078025230E+03  0.25500000000E-02 0. -1.
         -2   -1    0    0    0  501 -0.00000000000E+00 -0.00000000000E+00 -0.57858205685E+03  0.57858205685E+03  0.25500000000E-02 0.  1.
    8880023    1    1    2    0    0  0.12500455303E+03  0.19591478671E+03  0.55504826720E+03  0.89213089125E+03  0.65864270000E+03 0. -1.
    8880022    1    1    2    0    0 -0.12500455303E+03 -0.19591478671E+03 -0.36285007176E+03  0.45723141790E+03  0.15294330000E+03 0.  0.
<mgrwt>
<rscale>  0 0.55486828E+03</rscale>
<asrwt>0</asrwt>
<pdfrwt beam="1">  1        2 0.11858158E+00 0.69844037E+03</pdfrwt>
<pdfrwt beam="2">  1       -2 0.89012624E-01 0.69844037E+03</pdfrwt>
<totfact> 0.39937251E+01</totfact>
</mgrwt>
</event>
<event>
 4    2  0.2930016E-007  0.6587943E+03  0.7818608E-02  0.1025427E+00
          2   -1    0    0  501    0  0.00000000000E+00  0.00000000000E+00  0.39257080869E+03  0.39257080870E+03  0.25500000000E-02 0. -1.
         -2   -1    0    0    0  501 -0.00000000000E+00 -0.00000000000E+00 -0.66013782503E+03  0.66013782503E+03  0.25500000000E-02 0.  1.
    8880023    1    1    2    0    0  0.55541509368E+01 -0.12996059998E+02  0.88703704494E+02  0.66473927191E+03  0.65864270000E+03 0. -1.
    8880022    1    1    2    0    0 -0.55541509368E+01  0.12996059998E+02 -0.35627072083E+03  0.38796936181E+03  0.15294330000E+03 0.  0.
<mgrwt>
<rscale>  0 0.45777977E+03</rscale>
<asrwt>0</asrwt>
<pdfrwt beam="1">  1        2 0.60395509E-01 0.65879432E+03</pdfrwt>
<pdfrwt beam="2">  1       -2 0.10155967E+00 0.65879432E+03</pdfrwt>
<totfact> 0.65724293E+01</totfact>
</mgrwt>
</event>
<event>
 4    2  0.2930016E-007  0.8231032E+03  0.7818608E-02  0.9662903E-01
          2   -1    0    0  501    0  0.00000000000E+00  0.00000000000E+00  0.31139636776E+04  0.31139636776E+04  0.25500000000E-02 0. -1.
         -2   -1    0    0    0  501 -0.00000000000E+00 -0.00000000000E+00 -0.18474340911E+03  0.18474340913E+03  0.25500000000E-02 0.  1.
    8880023    1    1    2    0    0 -0.89900648369E+02 -0.48539311721E+03  0.24831747557E+04  0.26160381646E+04  0.65864270000E+03 0.  1.
    8880022    1    1    2    0    0  0.89900648369E+02  0.48539311721E+03  0.44604551278E+03  0.68266892217E+03  0.15294330000E+03 0.  1.
<mgrwt>
<rscale>  0 0.73269111E+03</rscale>
<asrwt>0</asrwt>
<pdfrwt beam="1">  1        2 0.47907130E+00 0.82310316E+03</pdfrwt>
<pdfrwt beam="2">  1       -2 0.28422065E-01 0.82310316E+03</pdfrwt>
<totfact> 0.17559267E+01</totfact>
</mgrwt>
</event>
<event>
 4    2  0.2930016E-007  0.8201740E+03  0.7818608E-02  0.9668762E-01
          2   -1    0    0  501    0  0.00000000000E+00  0.00000000000E+00  0.22268902501E+04  0.22268902501E+04  0.25500000000E-02 0. -1.
         -2   -1    0    0    0  501 -0.00000000000E+00 -0.00000000000E+00 -0.20388205804E+03  0.20388205806E+03  0.25500000000E-02 0.  1.
    8880023    1    1    2    0    0 -0.48874255585E+03  0.24117906158E+01  0.14180583938E+04  0.16381620546E+04  0.65864270000E+03 0.  1.
    8880022    1    1    2    0    0  0.48874255585E+03 -0.24117906158E+01  0.60494979826E+03  0.79261025357E+03  0.15294330000E+03 0. -1.
<mgrwt>
<rscale>  0 0.72907530E+03</rscale>
<asrwt>0</asrwt>
<pdfrwt beam="1">  1        2 0.34259851E+00 0.82017395E+03</pdfrwt>
<pdfrwt beam="2">  1       -2 0.31366470E-01 0.82017395E+03</pdfrwt>
<totfact> 0.48244439E+01</totfact>
</mgrwt>
</event>
<event>
 4    2  0.2930016E-007  0.6683548E+03  0.7818608E-02  0.1016871E+00
         -2   -1    0    0    0  501 -0.00000000000E+00  0.00000000000E+00  0.53268806644E+03  0.53268806645E+03  0.25500000000E-02 0.  1.
          2   -1    0    0  501    0  0.00000000000E+00 -0.00000000000E+00 -0.45942672661E+03  0.45942672662E+03  0.25500000000E-02 0. -1.
    8880023    1    1    2    0    0  0.11318095032E+03  0.88338537233E+01 -0.16368125306E+03  0.68810589545E+03  0.65864270000E+03 0. -1.
    8880022    1    1    2    0    0 -0.11318095032E+03 -0.88338537233E+01  0.23694259290E+03  0.30400889762E+03  0.15294330000E+03 0.  0.
<mgrwt>
<rscale>  0 0.48832972E+03</rscale>
<asrwt>0</asrwt>
<pdfrwt beam="1">  1        2 0.70681035E-01 0.66835482E+03</pdfrwt>
<pdfrwt beam="2">  1       -2 0.81952010E-01 0.66835482E+03</pdfrwt>
<totfact> 0.90292741E+01</totfact>
</mgrwt>
</event>
<event>
 4    2  0.2930016E-007  0.8412778E+03  0.7818608E-02  0.9627775E-01
         -2   -1    0    0    0  501 -0.00000000000E+00  0.00000000000E+00  0.48257536538E+03  0.48257536539E+03  0.25500000000E-02 0.  1.
          2   -1    0    0  501    0  0.00000000000E+00 -0.00000000000E+00 -0.37751926332E+04  0.37751926332E+04  0.25500000000E-02 0. -1.
    8880023    1    1    2    0    0  0.37894132710E+03 -0.36102863015E+03 -0.35546143998E+04  0.36528115115E+04  0.65864270000E+03 0.  0.
    8880022    1    1    2    0    0 -0.37894132710E+03  0.36102863015E+03  0.26199713192E+03  0.60495648713E+03  0.15294330000E+03 0.  0.
<mgrwt>
<rscale>  0 0.75484782E+03</rscale>
<asrwt>0</asrwt>
<pdfrwt beam="1">  1        2 0.58079885E+00 0.84127784E+03</pdfrwt>
<pdfrwt beam="2">  1       -2 0.74242366E-01 0.84127784E+03</pdfrwt>
<totfact> 0.90319727E-01</totfact>
</mgrwt>
</event>
<event>
 4    2  0.2930016E-007  0.1000304E+04  0.7818608E-02  0.9381161E-01
         -2   -1    0    0    0  501 -0.00000000000E+00  0.00000000000E+00  0.16791277895E+04  0.16791277895E+04  0.25500000000E-02 0.  1.
          2   -1    0    0  501    0  0.00000000000E+00 -0.00000000000E+00 -0.63699694832E+03  0.63699694833E+03  0.25500000000E-02 0. -1.
    8880023    1    1    2    0    0 -0.70158340205E+03  0.27308919191E+03 -0.25729730109E+02  0.10006343998E+04  0.65864270000E+03 0.  0.
    8880022    1    1    2    0    0  0.70158340205E+03 -0.27308919191E+03  0.10678605713E+04  0.13154903381E+04  0.15294330000E+03 0.  0.
<mgrwt>
<rscale>  0 0.93642438E+03</rscale>
<asrwt>0</asrwt>
<pdfrwt beam="1">  1        2 0.97999532E-01 0.10003035E+04</pdfrwt>
<pdfrwt beam="2">  1       -2 0.25832735E+00 0.10003035E+04</pdfrwt>
<totfact> 0.26325818E+00</totfact>
</mgrwt>
</event>
<event>
 4    2  0.2930016E-007  0.7016223E+03  0.7818608E-02  0.9990537E-01
         -2   -1    0    0    0  501 -0.00000000000E+00  0.00000000000E+00  0.37505547688E+03  0.37505547689E+03  0.25500000000E-02 0.  1.
          2   -1    0    0  501    0  0.00000000000E+00 -0.00000000000E+00 -0.87168266002E+03  0.87168266003E+03  0.25500000000E-02 0. -1.
    8880023    1    1    2    0    0 -0.22726155132E+03  0.82557753184E+02 -0.61892002116E+03  0.93559381901E+03  0.65864270000E+03 0. -1.
    8880022    1    1    2    0    0  0.22726155132E+03 -0.82557753184E+02  0.12229283802E+03  0.31114431791E+03  0.15294330000E+03 0.  1.
<mgrwt>
<rscale>  0 0.56067132E+03</rscale>
<asrwt>0</asrwt>
<pdfrwt beam="1">  1        2 0.13410502E+00 0.70162226E+03</pdfrwt>
<pdfrwt beam="2">  1       -2 0.57700843E-01 0.70162226E+03</pdfrwt>
<totfact> 0.87664499E+01</totfact>
</mgrwt>
</event>
<event>
 4    2  0.2930016E-007  0.6746472E+03  0.7818608E-02  0.1012530E+00
         -2   -1    0    0    0  501 -0.00000000000E+00  0.00000000000E+00  0.33109374709E+03  0.33109374710E+03  0.25500000000E-02 0.  1.
          2   -1    0    0  501    0  0.00000000000E+00 -0.00000000000E+00 -0.78191430240E+03  0.78191430240E+03  0.25500000000E-02 0. -1.
    8880023    1    1    2    0    0 -0.14287958557E+03 -0.30398832925E+02 -0.71129119585E+02  0.67838648493E+03  0.65864270000E+03 0.  1.
    8880022    1    1    2    0    0  0.14287958557E+03  0.30398832925E+02 -0.37969143572E+03  0.43462156457E+03  0.15294330000E+03 0. -1.
<mgrwt>
<rscale>  0 0.50481564E+03</rscale>
<asrwt>0</asrwt>
<pdfrwt beam="1">  1        2 0.12029451E+00 0.67464722E+03</pdfrwt>
<pdfrwt beam="2">  1       -2 0.50937500E-01 0.67464722E+03</pdfrwt>
<totfact> 0.13144770E+02</totfact>
</mgrwt>
</event>
<event>
 4    2  0.2930016E-007  0.6620901E+03  0.7818608E-02  0.1022110E+00
          2   -1    0    0  501    0  0.00000000000E+00  0.00000000000E+00  0.80637779127E+03  0.80637779128E+03  0.25500000000E-02 0. -1.
         -2   -1    0    0    0  501 -0.00000000000E+00 -0.00000000000E+00 -0.23475754609E+03  0.23475754610E+03  0.25500000000E-02 0.  1.
    8880023    1    1    2    0    0 -0.65889715188E+02 -0.14549746734E+02  0.31096252318E+03  0.73147867145E+03  0.65864270000E+03 0.  1.
    8880022    1    1    2    0    0  0.65889715188E+02  0.14549746734E+02  0.26065772200E+03  0.30965666593E+03  0.15294330000E+03 0.  0.
<mgrwt>
<rscale>  0 0.46932693E+03</rscale>
<asrwt>0</asrwt>
<pdfrwt beam="1">  1        2 0.12405812E+00 0.66209014E+03</pdfrwt>
<pdfrwt beam="2">  1       -2 0.36116545E-01 0.66209014E+03</pdfrwt>
<totfact> 0.24896880E+02</totfact>
</mgrwt>
</event>
<event>
 4    2  0.3006834E-007  0.8635633E+03  0.7818608E-02  0.9587256E-01
          2   -1    0    0  501    0  0.00000000000E+00  0.00000000000E+00  0.21194951017E+04  0.21194951017E+04  0.25500000000E-02 0. -1.
         -2   -1    0    0    0  501 -0.00000000000E+00 -0.00000000000E+00 -0.71417907640E+03  0.71417907641E+03  0.25500000000E-02 0.  1.
    8880023    1    1    2    0    0  0.34730299099E+03  0.43739232572E+03  0.18903796527E+04  0.20782869994E+04  0.65864270000E+03 0.  0.
    8880022    1    1    2    0    0 -0.34730299099E+03 -0.43739232572E+03 -0.48506362741E+03  0.75538717873E+03  0.15294330000E+03 0.  0.
<mgrwt>
<rscale>  0 0.78145428E+03</rscale>
<asrwt>0</asrwt>
<pdfrwt beam="1">  1        2 0.32607617E+00 0.86356333E+03</pdfrwt>
<pdfrwt beam="2">  1       -2 0.10987370E+00 0.86356333E+03</pdfrwt>
<totfact> 0.38525857E+00</totfact>
</mgrwt>
</event>
<event>
 4    2  0.2994654E-007  0.8802615E+03  0.7818608E-02  0.9558491E-01
          2   -1    0    0  501    0  0.00000000000E+00  0.00000000000E+00  0.14210369917E+04  0.14210369917E+04  0.25500000000E-02 0. -1.
         -2   -1    0    0    0  501 -0.00000000000E+00 -0.00000000000E+00 -0.11231805034E+04  0.11231805034E+04  0.25500000000E-02 0.  1.
    8880023    1    1    2    0    0 -0.21059382712E+03  0.54470203466E+03  0.11819186155E+04  0.14737000667E+04  0.65864270000E+03 0. -1.
    8880022    1    1    2    0    0  0.21059382712E+03 -0.54470203466E+03 -0.88406212721E+03  0.10705174283E+04  0.15294330000E+03 0.  0.
<mgrwt>
<rscale>  0 0.80105491E+03</rscale>
<asrwt>0</asrwt>
<pdfrwt beam="1">  1        2 0.21862107E+00 0.88026148E+03</pdfrwt>
<pdfrwt beam="2">  1       -2 0.17279700E+00 0.88026148E+03</pdfrwt>
<totfact> 0.28873734E+00</totfact>
</mgrwt>
</event>
<event>
 4    2  0.2930016E-007  0.9484704E+03  0.7818608E-02  0.9452318E-01
          2   -1    0    0  501    0  0.00000000000E+00  0.00000000000E+00  0.24977528615E+04  0.24977528615E+04  0.25500000000E-02 0. -1.
         -2   -1    0    0    0  501 -0.00000000000E+00 -0.00000000000E+00 -0.36065875094E+03  0.36065875095E+03  0.25500000000E-02 0.  1.
    8880023    1    1    2    0    0 -0.56005272673E+03 -0.39003451293E+03  0.18935456757E+04  0.21178081618E+04  0.65864270000E+03 0.  0.
    8880022    1    1    2    0    0  0.56005272673E+03  0.39003451293E+03  0.24354843489E+03  0.74060345067E+03  0.15294330000E+03 0.  0.
<mgrwt>
<rscale>  0 0.87892370E+03</rscale>
<asrwt>0</asrwt>
<pdfrwt beam="1">  1        2 0.38426968E+00 0.94847044E+03</pdfrwt>
<pdfrwt beam="2">  1       -2 0.55485961E-01 0.94847044E+03</pdfrwt>
<totfact> 0.10855152E+01</totfact>
</mgrwt>
</event>
<event>
 4    2  0.2930016E-007  0.1136199E+04  0.7818608E-02  0.9221784E-01
          2   -1    0    0  501    0  0.00000000000E+00  0.00000000000E+00  0.31227403646E+04  0.31227403646E+04  0.25500000000E-02 0. -1.
         -2   -1    0    0    0  501 -0.00000000000E+00 -0.00000000000E+00 -0.37104807445E+03  0.37104807446E+03  0.25500000000E-02 0.  1.
    8880023    1    1    2    0    0 -0.64769502547E+03  0.66153599690E+03  0.19624935089E+04  0.22676705448E+04  0.65864270000E+03 0.  0.
    8880022    1    1    2    0    0  0.64769502547E+03 -0.66153599690E+03  0.78919878127E+03  0.12261178942E+04  0.15294330000E+03 0.  0.
<mgrwt>
<rscale>  0 0.10831384E+04</rscale>
<asrwt>0</asrwt>
<pdfrwt beam="1">  1        2 0.48042160E+00 0.11361993E+04</pdfrwt>
<pdfrwt beam="2">  1       -2 0.57084319E-01 0.11361993E+04</pdfrwt>
<totfact> 0.42156106E+00</totfact>
</mgrwt>
</event>
<event>
 4    2  0.2930016E-007  0.7772712E+03  0.7818608E-02  0.9762287E-01
          2   -1    0    0  501    0  0.00000000000E+00  0.00000000000E+00  0.16124778498E+04  0.16124778498E+04  0.25500000000E-02 0. -1.
         -2   -1    0    0    0  501 -0.00000000000E+00 -0.00000000000E+00 -0.38046024961E+03  0.38046024962E+03  0.25500000000E-02 0.  1.
    8880023    1    1    2    0    0  0.71739532126E+02  0.40644028028E+03  0.13314258931E+04  0.15417021039E+04  0.65864270000E+03 0.  0.
    8880022    1    1    2    0    0 -0.71739532126E+02 -0.40644028028E+03 -0.99408292994E+02  0.45123599550E+03  0.15294330000E+03 0.  0.
<mgrwt>
<rscale>  0 0.67426337E+03</rscale>
<asrwt>0</asrwt>
<pdfrwt beam="1">  1        2 0.24807352E+00 0.77727117E+03</pdfrwt>
<pdfrwt beam="2">  1       -2 0.58532346E-01 0.77727117E+03</pdfrwt>
<totfact> 0.30604433E+01</totfact>
</mgrwt>
</event>
<event>
 4    2  0.2930016E-007  0.8592307E+03  0.7818608E-02  0.9594933E-01
          2   -1    0    0  501    0  0.00000000000E+00  0.00000000000E+00  0.14215834624E+04  0.14215834624E+04  0.25500000000E-02 0. -1.
         -2   -1    0    0    0  501 -0.00000000000E+00 -0.00000000000E+00 -0.49341273620E+03  0.49341273621E+03  0.25500000000E-02 0.  1.
    8880023    1    1    2    0    0  0.44092695162E+03 -0.33173867610E+03  0.10215347990E+04  0.13348448141E+04  0.65864270000E+03 0.  0.
    8880022    1    1    2    0    0 -0.44092695162E+03  0.33173867610E+03 -0.93364072765E+02  0.58015138455E+03  0.15294330000E+03 0.  0.
<mgrwt>
<rscale>  0 0.77632429E+03</rscale>
<asrwt>0</asrwt>
<pdfrwt beam="1">  1        2 0.21870514E+00 0.85923066E+03</pdfrwt>
<pdfrwt beam="2">  1       -2 0.75909653E-01 0.85923066E+03</pdfrwt>
<totfact> 0.22090388E+01</totfact>
</mgrwt>
</event>
<event>
 4    2  0.2930016E-007  0.7469765E+03  0.7818608E-02  0.9840072E-01
         -2   -1    0    0    0  501 -0.00000000000E+00  0.00000000000E+00  0.70263865145E+03  0.70263865145E+03  0.25500000000E-02 0.  1.
          2   -1    0    0  501    0  0.00000000000E+00 -0.00000000000E+00 -0.87972979931E+03  0.87972979931E+03  0.25500000000E-02 0. -1.
    8880023    1    1    2    0    0  0.19889031326E+03 -0.29087165994E+03 -0.63801525535E+03  0.98236314649E+03  0.65864270000E+03 0.  0.
    8880022    1    1    2    0    0 -0.19889031326E+03  0.29087165994E+03  0.46092410750E+03  0.60000530427E+03  0.15294330000E+03 0.  0.
<mgrwt>
<rscale>  0 0.63255685E+03</rscale>
<asrwt>0</asrwt>
<pdfrwt beam="1">  1        2 0.13534305E+00 0.74697650E+03</pdfrwt>
<pdfrwt beam="2">  1       -2 0.10809825E+00 0.74697650E+03</pdfrwt>
<totfact> 0.21067267E+01</totfact>
</mgrwt>
</event>
<event>
 4    2  0.2930016E-007  0.6742352E+03  0.7818608E-02  0.1012793E+00
         -2   -1    0    0    0  501 -0.00000000000E+00  0.00000000000E+00  0.61807386718E+03  0.61807386719E+03  0.25500000000E-02 0.  1.
          2   -1    0    0  501    0  0.00000000000E+00 -0.00000000000E+00 -0.75439237705E+03  0.75439237706E+03  0.25500000000E-02 0. -1.
    8880023    1    1    2    0    0  0.10186025679E+03 -0.10201639479E+03 -0.57494136197E+03  0.88608726020E+03  0.65864270000E+03 0. -1.
    8880022    1    1    2    0    0 -0.10186025679E+03  0.10201639479E+03  0.43862285210E+03  0.48637898404E+03  0.15294330000E+03 0.  0.
<mgrwt>
<rscale>  0 0.50379635E+03</rscale>
<asrwt>0</asrwt>
<pdfrwt beam="1">  1        2 0.11606037E+00 0.67423517E+03</pdfrwt>
<pdfrwt beam="2">  1       -2 0.95088288E-01 0.67423517E+03</pdfrwt>
<totfact> 0.35319666E+01</totfact>
</mgrwt>
</event>
<event>
 4    2  0.2930016E-007  0.6663617E+03  0.7818608E-02  0.1018417E+00
          2   -1    0    0  501    0  0.00000000000E+00  0.00000000000E+00  0.47347209908E+03  0.47347209909E+03  0.25500000000E-02 0. -1.
         -2   -1    0    0    0  501 -0.00000000000E+00 -0.00000000000E+00 -0.38222548278E+03  0.38222548279E+03  0.25500000000E-02 0.  1.
    8880023    1    1    2    0    0 -0.72448749822E+02  0.70561466687E+02  0.53576880689E+02  0.66851210186E+03  0.65864270000E+03 0.  0.
    8880022    1    1    2    0    0  0.72448749822E+02 -0.70561466687E+02  0.37669735607E+02  0.18718548001E+03  0.15294330000E+03 0. -1.
<mgrwt>
<rscale>  0 0.48262106E+03</rscale>
<asrwt>0</asrwt>
<pdfrwt beam="1">  1        2 0.72841862E-01 0.66636172E+03</pdfrwt>
<pdfrwt beam="2">  1       -2 0.58803920E-01 0.66636172E+03</pdfrwt>
<totfact> 0.17966093E+02</totfact>
</mgrwt>
</event>
<event>
 4    2  0.2930016E-007  0.6725727E+03  0.7818608E-02  0.1013882E+00
          2   -1    0    0  501    0  0.00000000000E+00  0.00000000000E+00  0.46794514874E+03  0.46794514874E+03  0.25500000000E-02 0. -1.
         -2   -1    0    0    0  501 -0.00000000000E+00 -0.00000000000E+00 -0.14896944184E+04  0.14896944184E+04  0.25500000000E-02 0.  1.
    8880023    1    1    2    0    0 -0.70330988273E+02  0.11660777902E+03  0.21341067111E+03  0.70561897852E+03  0.65864270000E+03 0. -1.
    8880022    1    1    2    0    0  0.70330988273E+02 -0.11660777902E+03 -0.12351599408E+04  0.12520205887E+04  0.15294330000E+03 0.  0.
<mgrwt>
<rscale>  0 0.49960539E+03</rscale>
<asrwt>0</asrwt>
<pdfrwt beam="1">  1        2 0.71991562E-01 0.67257269E+03</pdfrwt>
<pdfrwt beam="2">  1       -2 0.22918375E+00 0.67257269E+03</pdfrwt>
<totfact> 0.59516799E+00</totfact>
</mgrwt>
</event>
<event>
 4    2  0.2930016E-007  0.1020552E+04  0.7818608E-02  0.9355150E-01
          2   -1    0    0  501    0  0.00000000000E+00  0.00000000000E+00  0.27084634857E+04  0.27084634857E+04  0.25500000000E-02 0. -1.
         -2   -1    0    0    0  501 -0.00000000000E+00 -0.00000000000E+00 -0.41693064514E+03  0.41693064515E+03  0.25500000000E-02 0.  1.
    8880023    1    1    2    0    0 -0.12519906867E+03 -0.76944208232E+03  0.20583402495E+04  0.22974530928E+04  0.65864270000E+03 0. -1.
    8880022    1    1    2    0    0  0.12519906867E+03  0.76944208232E+03  0.23319259104E+03  0.82794103798E+03  0.15294330000E+03 0.  1.
<mgrwt>
<rscale>  0 0.95860400E+03</rscale>
<asrwt>0</asrwt>
<pdfrwt beam="1">  1        2 0.41668671E+00 0.10205519E+04</pdfrwt>
<pdfrwt beam="2">  1       -2 0.64143173E-01 0.10205519E+04</pdfrwt>
<totfact> 0.59725517E+00</totfact>
</mgrwt>
</event>
<event>
 4    2  0.2930016E-007  0.8417501E+03  0.7818608E-02  0.9626889E-01
          2   -1    0    0  501    0  0.00000000000E+00  0.00000000000E+00  0.12699916685E+04  0.12699916685E+04  0.25500000000E-02 0. -1.
         -2   -1    0    0    0  501 -0.00000000000E+00 -0.00000000000E+00 -0.40533725939E+03  0.40533725939E+03  0.25500000000E-02 0.  1.
    8880023    1    1    2    0    0  0.12355056336E+03 -0.50938033716E+03  0.72699671746E+03  0.11122353632E+04  0.65864270000E+03 0.  0.
    8880022    1    1    2    0    0 -0.12355056336E+03  0.50938033716E+03  0.13765769168E+03  0.56309356477E+03  0.15294330000E+03 0.  0.
<mgrwt>
<rscale>  0 0.75541767E+03</rscale>
<asrwt>0</asrwt>
<pdfrwt beam="1">  1        2 0.19538333E+00 0.84175013E+03</pdfrwt>
<pdfrwt beam="2">  1       -2 0.62359579E-01 0.84175013E+03</pdfrwt>
<totfact> 0.41495534E+01</totfact>
</mgrwt>
</event>
<event>
 4    2  0.2930016E-007  0.9650473E+03  0.7818608E-02  0.9428787E-01
         -2   -1    0    0    0  501 -0.00000000000E+00  0.00000000000E+00  0.57874146357E+03  0.57874146357E+03  0.25500000000E-02 0.  1.
          2   -1    0    0  501    0  0.00000000000E+00 -0.00000000000E+00 -0.21160242811E+04  0.21160242811E+04  0.25500000000E-02 0. -1.
    8880023    1    1    2    0    0 -0.66929380414E+03  0.22260249541E+03 -0.17000911535E+04  0.19548980034E+04  0.65864270000E+03 0.  0.
    8880022    1    1    2    0    0  0.66929380414E+03 -0.22260249541E+03  0.16280833600E+03  0.73986774123E+03  0.15294330000E+03 0.  0.
<mgrwt>
<rscale>  0 0.89744017E+03</rscale>
<asrwt>0</asrwt>
<pdfrwt beam="1">  1        2 0.32554219E+00 0.96504729E+03</pdfrwt>
<pdfrwt beam="2">  1       -2 0.89037149E-01 0.96504729E+03</pdfrwt>
<totfact> 0.62815140E+00</totfact>
</mgrwt>
</event>
<event>
 4    2  0.3857353E-007  0.9756820E+03  0.7818608E-02  0.9414088E-01
          2   -1    0    0  501    0  0.00000000000E+00  0.00000000000E+00  0.34363637921E+04  0.34363637921E+04  0.25500000000E-02 0. -1.
         -2   -1    0    0    0  501 -0.00000000000E+00 -0.00000000000E+00 -0.10314913334E+04  0.10314913334E+04  0.25500000000E-02 0.  1.
    8880023    1    1    2    0    0 -0.29774319512E+03  0.65535803160E+03  0.32230089336E+04  0.33674533333E+04  0.65864270000E+03 0. -1.
    8880022    1    1    2    0    0  0.29774319512E+03 -0.65535803160E+03 -0.81813647484E+03  0.11004017922E+04  0.15294330000E+03 0.  0.
<mgrwt>
<rscale>  0 0.90925295E+03</rscale>
<asrwt>0</asrwt>
<pdfrwt beam="1">  1        2 0.52867134E+00 0.97568200E+03</pdfrwt>
<pdfrwt beam="2">  1       -2 0.15869098E+00 0.97568200E+03</pdfrwt>
<totfact> 0.23964476E-01</totfact>
</mgrwt>
</event>
<event>
 4    2  0.2930016E-007  0.1113330E+04  0.7818608E-02  0.9246358E-01
         -2   -1    0    0    0  501 -0.00000000000E+00  0.00000000000E+00  0.77407843297E+03  0.77407843297E+03  0.25500000000E-02 0.  1.
          2   -1    0    0  501    0  0.00000000000E+00 -0.00000000000E+00 -0.14795732686E+04  0.14795732686E+04  0.25500000000E-02 0. -1.
    8880023    1    1    2    0    0  0.20514245971E+02  0.89736968037E+03 -0.19296812582E+02  0.11134970816E+04  0.65864270000E+03 0.  0.
    8880022    1    1    2    0    0 -0.20514245971E+02 -0.89736968037E+03 -0.68619802303E+03  0.11401546199E+04  0.15294330000E+03 0.  0.
<mgrwt>
<rscale>  0 0.10587484E+04</rscale>
<asrwt>0</asrwt>
<pdfrwt beam="1">  1        2 0.22762666E+00 0.11133299E+04</pdfrwt>
<pdfrwt beam="2">  1       -2 0.11908899E+00 0.11133299E+04</pdfrwt>
<totfact> 0.69333817E+00</totfact>
</mgrwt>
</event>
<event>
 4    2  0.2930016E-007  0.6795300E+03  0.7818608E-02  0.1009591E+00
          2   -1    0    0  501    0  0.00000000000E+00  0.00000000000E+00  0.17834566714E+03  0.17834566716E+03  0.25500000000E-02 0. -1.
         -2   -1    0    0    0  501 -0.00000000000E+00 -0.00000000000E+00 -0.13193022906E+04  0.13193022906E+04  0.25500000000E-02 0.  1.
    8880023    1    1    2    0    0  0.11586108426E+03 -0.12052811853E+03 -0.58268106605E+03  0.89514146882E+03  0.65864270000E+03 0. -1.
    8880022    1    1    2    0    0 -0.11586108426E+03  0.12052811853E+03 -0.55827555739E+03  0.60250648892E+03  0.15294330000E+03 0.  1.
<mgrwt>
<rscale>  0 0.51637603E+03</rscale>
<asrwt>0</asrwt>
<pdfrwt beam="1">  1        2 0.27437796E-01 0.67953000E+03</pdfrwt>
<pdfrwt beam="2">  1       -2 0.20296958E+00 0.67953000E+03</pdfrwt>
<totfact> 0.25613539E+01</totfact>
</mgrwt>
</event>
<event>
 4    2  0.2930016E-007  0.6913888E+03  0.7818608E-02  0.1003499E+00
         -2   -1    0    0    0  501 -0.00000000000E+00  0.00000000000E+00  0.20066098664E+03  0.20066098666E+03  0.25500000000E-02 0.  1.
          2   -1    0    0  501    0  0.00000000000E+00 -0.00000000000E+00 -0.12874592727E+04  0.12874592727E+04  0.25500000000E-02 0. -1.
    8880023    1    1    2    0    0 -0.16944143968E+03  0.12449023470E+03 -0.99655248667E+03  0.12129036586E+04  0.65864270000E+03 0. -1.
    8880022    1    1    2    0    0  0.16944143968E+03 -0.12449023470E+03 -0.90245799354E+02  0.27521660076E+03  0.15294330000E+03 0. -1.
<mgrwt>
<rscale>  0 0.54142085E+03</rscale>
<asrwt>0</asrwt>
<pdfrwt beam="1">  1        2 0.19807065E+00 0.69138877E+03</pdfrwt>
<pdfrwt beam="2">  1       -2 0.30870922E-01 0.69138877E+03</pdfrwt>
<totfact> 0.16626272E+02</totfact>
</mgrwt>
</event>
<event>
 4    2  0.2930016E-007  0.1040755E+04  0.7818608E-02  0.9330078E-01
          2   -1    0    0  501    0  0.00000000000E+00  0.00000000000E+00  0.26489124109E+04  0.26489124109E+04  0.25500000000E-02 0. -1.
         -2   -1    0    0    0  501 -0.00000000000E+00 -0.00000000000E+00 -0.74828366178E+03  0.74828366179E+03  0.25500000000E-02 0.  1.
    8880023    1    1    2    0    0  0.58094473923E+03  0.55844836248E+03  0.22703291876E+04  0.24975119999E+04  0.65864270000E+03 0.  0.
    8880022    1    1    2    0    0 -0.58094473923E+03 -0.55844836248E+03 -0.36970043844E+03  0.89968407277E+03  0.15294330000E+03 0.  0.
<mgrwt>
<rscale>  0 0.98060347E+03</rscale>
<asrwt>0</asrwt>
<pdfrwt beam="1">  1        2 0.40752498E+00 0.10407553E+04</pdfrwt>
<pdfrwt beam="2">  1       -2 0.11512057E+00 0.10407553E+04</pdfrwt>
<totfact> 0.16820601E+00</totfact>
</mgrwt>
</event>
<event>
 4    2  0.2930016E-007  0.8459115E+03  0.7818608E-02  0.9619133E-01
         -2   -1    0    0    0  501 -0.00000000000E+00  0.00000000000E+00  0.81374941389E+03  0.81374941389E+03  0.25500000000E-02 0.  1.
          2   -1    0    0  501    0  0.00000000000E+00 -0.00000000000E+00 -0.97145799920E+03  0.97145799921E+03  0.25500000000E-02 0. -1.
    8880023    1    1    2    0    0  0.91309787872E+02  0.52289448713E+03 -0.63295683682E+03  0.10565039922E+04  0.65864270000E+03 0.  0.
    8880022    1    1    2    0    0 -0.91309787872E+02 -0.52289448713E+03  0.47524825151E+03  0.72870342088E+03  0.15294330000E+03 0.  1.
<mgrwt>
<rscale>  0 0.76042693E+03</rscale>
<asrwt>0</asrwt>
<pdfrwt beam="1">  1        2 0.14945508E+00 0.84591154E+03</pdfrwt>
<pdfrwt beam="2">  1       -2 0.12519222E+00 0.84591154E+03</pdfrwt>
<totfact> 0.12635242E+01</totfact>
</mgrwt>
</event>
<event>
 4    2  0.2930016E-007  0.1028033E+04  0.7818608E-02  0.9345767E-01
          2   -1    0    0  501    0  0.00000000000E+00  0.00000000000E+00  0.28390735527E+04  0.28390735527E+04  0.25500000000E-02 0. -1.
         -2   -1    0    0    0  501 -0.00000000000E+00 -0.00000000000E+00 -0.68251533891E+03  0.68251533892E+03  0.25500000000E-02 0.  1.
    8880023    1    1    2    0    0 -0.76393126548E+03 -0.19862082511E+03  0.24569037497E+04  0.26633113698E+04  0.65864270000E+03 0.  0.
    8880022    1    1    2    0    0  0.76393126548E+03  0.19862082511E+03 -0.30034553596E+03  0.85827752186E+03  0.15294330000E+03 0.  0.
<mgrwt>
<rscale>  0 0.96676441E+03</rscale>
<asrwt>0</asrwt>
<pdfrwt beam="1">  1        2 0.43678055E+00 0.10280328E+04</pdfrwt>
<pdfrwt beam="2">  1       -2 0.10500236E+00 0.10280328E+04</pdfrwt>
<totfact> 0.16269496E+00</totfact>
</mgrwt>
</event>
<event>
 4    2  0.3845421E-007  0.1089673E+04  0.7818608E-02  0.9272642E-01
         -2   -1    0    0    0  501 -0.00000000000E+00  0.00000000000E+00  0.16499368418E+04  0.16499368419E+04  0.25500000000E-02 0.  1.
          2   -1    0    0  501    0  0.00000000000E+00 -0.00000000000E+00 -0.19832689727E+04  0.19832689727E+04  0.25500000000E-02 0. -1.
    8880023    1    1    2    0    0 -0.84178768608E+02  0.86399662636E+03 -0.16926734037E+04  0.20130895890E+04  0.65864270000E+03 0.  0.
    8880022    1    1    2    0    0  0.84178768608E+02 -0.86399662636E+03  0.13593412728E+04  0.16201162256E+04  0.15294330000E+03 0.  0.
<mgrwt>
<rscale>  0 0.10334094E+04</rscale>
<asrwt>0</asrwt>
<pdfrwt beam="1">  1        2 0.30511830E+00 0.10896726E+04</pdfrwt>
<pdfrwt beam="2">  1       -2 0.25383644E+00 0.10896726E+04</pdfrwt>
<totfact> 0.41091365E-01</totfact>
</mgrwt>
</event>
<event>
 4    2  0.2930016E-007  0.8237225E+03  0.7818608E-02  0.9661672E-01
         -2   -1    0    0    0  501 -0.00000000000E+00  0.00000000000E+00  0.44060050249E+03  0.44060050250E+03  0.25500000000E-02 0.  1.
          2   -1    0    0  501    0  0.00000000000E+00 -0.00000000000E+00 -0.18633721139E+04  0.18633721139E+04  0.25500000000E-02 0. -1.
    8880023    1    1    2    0    0 -0.79974614531E+02  0.48817276396E+03 -0.36917034381E+02  0.82454936792E+03  0.65864270000E+03 0.  1.
    8880022    1    1    2    0    0  0.79974614531E+02 -0.48817276396E+03 -0.13858545770E+04  0.14794232485E+04  0.15294330000E+03 0.  0.
<mgrwt>
<rscale>  0 0.73345396E+03</rscale>
<asrwt>0</asrwt>
<pdfrwt beam="1">  1        2 0.28667263E+00 0.82372252E+03</pdfrwt>
<pdfrwt beam="2">  1       -2 0.67784694E-01 0.82372252E+03</pdfrwt>
<totfact> 0.16208284E+01</totfact>
</mgrwt>
</event>
<event>
 4    2  0.2930016E-007  0.7716513E+03  0.7818608E-02  0.9775827E-01
         -2   -1    0    0    0  501 -0.00000000000E+00  0.00000000000E+00  0.25442350916E+03  0.25442350918E+03  0.25500000000E-02 0.  1.
          2   -1    0    0  501    0  0.00000000000E+00 -0.00000000000E+00 -0.14380098948E+04  0.14380098948E+04  0.25500000000E-02 0. -1.
    8880023    1    1    2    0    0 -0.29676737807E+03 -0.27122807511E+03 -0.66493733694E+03  0.10186203482E+04  0.65864270000E+03 0. -1.
    8880022    1    1    2    0    0  0.29676737807E+03  0.27122807511E+03 -0.51864904866E+03  0.67381305576E+03  0.15294330000E+03 0.  0.
<mgrwt>
<rscale>  0 0.66676113E+03</rscale>
<asrwt>0</asrwt>
<pdfrwt beam="1">  1        2 0.22123229E+00 0.77165131E+03</pdfrwt>
<pdfrwt beam="2">  1       -2 0.39142079E-01 0.77165131E+03</pdfrwt>
<totfact> 0.86324593E+01</totfact>
</mgrwt>
</event>
<event>
 4    2  0.2930016E-007  0.8218759E+03  0.7818608E-02  0.9665351E-01
          2   -1    0    0  501    0  0.00000000000E+00  0.00000000000E+00  0.16709829990E+04  0.16709829990E+04  0.25500000000E-02 0. -1.
         -2   -1    0    0    0  501 -0.00000000000E+00 -0.00000000000E+00 -0.32598809423E+03  0.32598809424E+03  0.25500000000E-02 0.  1.
    8880023    1    1    2    0    0  0.47724496108E+03 -0.11792780491E+03  0.12134584691E+04  0.14655925022E+04  0.65864270000E+03 0.  0.
    8880022    1    1    2    0    0 -0.47724496108E+03  0.11792780491E+03  0.13153643563E+03  0.53137859099E+03  0.15294330000E+03 0.  0.
<mgrwt>
<rscale>  0 0.73117776E+03</rscale>
<asrwt>0</asrwt>
<pdfrwt beam="1">  1        2 0.25707431E+00 0.82187586E+03</pdfrwt>
<pdfrwt beam="2">  1       -2 0.50152014E-01 0.82187586E+03</pdfrwt>
<totfact> 0.38943078E+01</totfact>
</mgrwt>
</event>
<event>
 4    2  0.2930016E-007  0.6601306E+03  0.7818608E-02  0.1024023E+00
          2   -1    0    0  501    0  0.00000000000E+00  0.00000000000E+00  0.16206196760E+04  0.16206196761E+04  0.25500000000E-02 0. -1.
         -2   -1    0    0    0  501 -0.00000000000E+00 -0.00000000000E+00 -0.11252498569E+04  0.11252498569E+04  0.25500000000E-02 0.  1.
    8880023    1    1    2    0    0 -0.39806041193E+02 -0.19433125002E+02  0.15471548472E+04  0.16821000252E+04  0.65864270000E+03 0. -1.
    8880022    1    1    2    0    0  0.39806041193E+02  0.19433125002E+02 -0.10517850281E+04  0.10637695078E+04  0.15294330000E+03 0.  0.
<mgrwt>
<rscale>  0 0.46262363E+03</rscale>
<asrwt>0</asrwt>
<pdfrwt beam="1">  1        2 0.24932610E+00 0.66013057E+03</pdfrwt>
<pdfrwt beam="2">  1       -2 0.17311536E+00 0.66013057E+03</pdfrwt>
<totfact> 0.23067376E+00</totfact>
</mgrwt>
</event>
<event>
 4    2  0.2930016E-007  0.7383723E+03  0.7818608E-02  0.9864714E-01
          2   -1    0    0  501    0  0.00000000000E+00  0.00000000000E+00  0.90967637459E+03  0.90967637459E+03  0.25500000000E-02 0. -1.
         -2   -1    0    0    0  501 -0.00000000000E+00 -0.00000000000E+00 -0.72840588822E+03  0.72840588822E+03  0.25500000000E-02 0.  1.
    8880023    1    1    2    0    0 -0.30755338904E+03  0.12959307639E+03  0.69008790993E+03  0.10106507717E+04  0.65864270000E+03 0. -1.
    8880022    1    1    2    0    0  0.30755338904E+03 -0.12959307639E+03 -0.50881742356E+03  0.62743149115E+03  0.15294330000E+03 0.  0.
<mgrwt>
<rscale>  0 0.62002294E+03</rscale>
<asrwt>0</asrwt>
<pdfrwt beam="1">  1        2 0.13995021E+00 0.73837230E+03</pdfrwt>
<pdfrwt beam="2">  1       -2 0.11206244E+00 0.73837230E+03</pdfrwt>
<totfact> 0.18446184E+01</totfact>
</mgrwt>
</event>
<event>
 4    2  0.2930016E-007  0.7180417E+03  0.7818608E-02  0.9929269E-01
         -2   -1    0    0    0  501 -0.00000000000E+00  0.00000000000E+00  0.19602669483E+03  0.19602669485E+03  0.25500000000E-02 0.  1.
          2   -1    0    0  501    0  0.00000000000E+00 -0.00000000000E+00 -0.18186054350E+04  0.18186054350E+04  0.25500000000E-02 0. -1.
    8880023    1    1    2    0    0  0.17862035838E+02  0.28540255874E+03 -0.15088230643E+04  0.16709670608E+04  0.65864270000E+03 0.  0.
    8880022    1    1    2    0    0 -0.17862035838E+02 -0.28540255874E+03 -0.11375567592E+03  0.34366506904E+03  0.15294330000E+03 0.  0.
<mgrwt>
<rscale>  0 0.58863532E+03</rscale>
<asrwt>0</asrwt>
<pdfrwt beam="1">  1        2 0.27978544E+00 0.71804170E+03</pdfrwt>
<pdfrwt beam="2">  1       -2 0.30157954E-01 0.71804170E+03</pdfrwt>
<totfact> 0.87847988E+01</totfact>
</mgrwt>
</event>
<event>
 4    2  0.2930016E-007  0.8043438E+03  0.7818608E-02  0.9701481E-01
         -2   -1    0    0    0  501 -0.00000000000E+00  0.00000000000E+00  0.57959666235E+03  0.57959666235E+03  0.25500000000E-02 0.  1.
          2   -1    0    0  501    0  0.00000000000E+00 -0.00000000000E+00 -0.11025761790E+04  0.11025761790E+04  0.25500000000E-02 0. -1.
    8880023    1    1    2    0    0  0.26115893411E+02  0.46095199559E+03 -0.78992658501E+03  0.11273655122E+04  0.65864270000E+03 0. -1.
    8880022    1    1    2    0    0 -0.26115893411E+02 -0.46095199559E+03  0.26694706838E+03  0.55480732913E+03  0.15294330000E+03 0.  0.
<mgrwt>
<rscale>  0 0.70928662E+03</rscale>
<asrwt>0</asrwt>
<pdfrwt beam="1">  1        2 0.16962710E+00 0.80434382E+03</pdfrwt>
<pdfrwt beam="2">  1       -2 0.89168718E-01 0.80434382E+03</pdfrwt>
<totfact> 0.23718098E+01</totfact>
</mgrwt>
</event>
<event>
 4    2  0.2930016E-007  0.6644500E+03  0.7818608E-02  0.1019999E+00
         -2   -1    0    0    0  501 -0.00000000000E+00  0.00000000000E+00  0.28299416945E+03  0.28299416946E+03  0.25500000000E-02 0.  1.
          2   -1    0    0  501    0  0.00000000000E+00 -0.00000000000E+00 -0.10675152568E+04  0.10675152568E+04  0.25500000000E-02 0. -1.
    8880023    1    1    2    0    0  0.16674646818E+02  0.86055364456E+02 -0.91527617066E+03  0.11310279592E+04  0.65864270000E+03 0. -1.
    8880022    1    1    2    0    0 -0.16674646818E+02 -0.86055364456E+02  0.13075508327E+03  0.21948146713E+03  0.15294330000E+03 0.  0.
<mgrwt>
<rscale>  0 0.47686835E+03</rscale>
<asrwt>0</asrwt>
<pdfrwt beam="1">  1        2 0.16423311E+00 0.66444998E+03</pdfrwt>
<pdfrwt beam="2">  1       -2 0.43537565E-01 0.66444998E+03</pdfrwt>
<totfact> 0.11646810E+02</totfact>
</mgrwt>
</event>
<event>
 4    2  0.2930016E-007  0.7591463E+03  0.7818608E-02  0.9807323E-01
          2   -1    0    0  501    0  0.00000000000E+00  0.00000000000E+00  0.19870475053E+04  0.19870475053E+04  0.25500000000E-02 0. -1.
         -2   -1    0    0    0  501 -0.00000000000E+00 -0.00000000000E+00 -0.33848803142E+03  0.33848803143E+03  0.25500000000E-02 0.  1.
    8880023    1    1    2    0    0  0.34480723399E+03  0.15362589354E+03  0.17484783893E+04  0.19061688875E+04  0.65864270000E+03 0. -1.
    8880022    1    1    2    0    0 -0.34480723399E+03 -0.15362589354E+03 -0.99918915400E+02  0.41936664918E+03  0.15294330000E+03 0.  0.
<mgrwt>
<rscale>  0 0.64971049E+03</rscale>
<asrwt>0</asrwt>
<pdfrwt beam="1">  1        2 0.30569962E+00 0.75914633E+03</pdfrwt>
<pdfrwt beam="2">  1       -2 0.52075081E-01 0.75914633E+03</pdfrwt>
<totfact> 0.24402249E+01</totfact>
</mgrwt>
</event>
<event>
 4    2  0.2930016E-007  0.8910728E+03  0.7818608E-02  0.9540517E-01
          2   -1    0    0  501    0  0.00000000000E+00  0.00000000000E+00  0.36393183308E+04  0.36393183308E+04  0.25500000000E-02 0. -1.
         -2   -1    0    0    0  501 -0.00000000000E+00 -0.00000000000E+00 -0.30257976333E+03  0.30257976334E+03  0.25500000000E-02 0.  1.
    8880023    1    1    2    0    0  0.21413031877E+03  0.56066806149E+03  0.31807509151E+04  0.33032086005E+04  0.65864270000E+03 0. -1.
    8880022    1    1    2    0    0 -0.21413031877E+03 -0.56066806149E+03  0.15598765245E+03  0.63868949367E+03  0.15294330000E+03 0.  0.
<mgrwt>
<rscale>  0 0.81361433E+03</rscale>
<asrwt>0</asrwt>
<pdfrwt beam="1">  1        2 0.55989513E+00 0.89107277E+03</pdfrwt>
<pdfrwt beam="2">  1       -2 0.46550732E-01 0.89107277E+03</pdfrwt>
<totfact> 0.30025784E+00</totfact>
</mgrwt>
</event>
<event>
 4    2  0.3629409E-007  0.1216180E+04  0.7818608E-02  0.9141552E-01
          2   -1    0    0  501    0  0.00000000000E+00  0.00000000000E+00  0.17128368224E+04  0.17128368224E+04  0.25500000000E-02 0. -1.
         -2   -1    0    0    0  501 -0.00000000000E+00 -0.00000000000E+00 -0.22468987669E+04  0.22468987669E+04  0.25500000000E-02 0.  1.
    8880023    1    1    2    0    0  0.70161888028E+03 -0.74364980212E+03  0.13460891523E+04  0.18141252144E+04  0.65864270000E+03 0.  0.
    8880022    1    1    2    0    0 -0.70161888028E+03  0.74364980212E+03 -0.18801510967E+04  0.21456103749E+04  0.15294330000E+03 0.  0.
<mgrwt>
<rscale>  0 0.11677616E+04</rscale>
<asrwt>0</asrwt>
<pdfrwt beam="1">  1        2 0.26351336E+00 0.12161802E+04</pdfrwt>
<pdfrwt beam="2">  1       -2 0.34567674E+00 0.12161802E+04</pdfrwt>
<totfact> 0.15620610E-01</totfact>
</mgrwt>
</event>
<event>
 4    2  0.2930016E-007  0.9642100E+03  0.7818608E-02  0.9429957E-01
         -2   -1    0    0    0  501 -0.00000000000E+00  0.00000000000E+00  0.45733804159E+03  0.45733804160E+03  0.25500000000E-02 0.  1.
          2   -1    0    0  501    0  0.00000000000E+00 -0.00000000000E+00 -0.28635670743E+04  0.28635670743E+04  0.25500000000E-02 0. -1.
    8880023    1    1    2    0    0 -0.39316716156E+03  0.58421767174E+03 -0.24148606594E+04  0.26002409341E+04  0.65864270000E+03 0.  0.
    8880022    1    1    2    0    0  0.39316716156E+03 -0.58421767174E+03  0.86316266948E+01  0.72066418177E+03  0.15294330000E+03 0.  0.
<mgrwt>
<rscale>  0 0.89650800E+03</rscale>
<asrwt>0</asrwt>
<pdfrwt beam="1">  1        2 0.44054877E+00 0.96420999E+03</pdfrwt>
<pdfrwt beam="2">  1       -2 0.70359700E-01 0.96420999E+03</pdfrwt>
<totfact> 0.39819319E+00</totfact>
</mgrwt>
</event>
<event>
 4    2  0.2930016E-007  0.6883280E+03  0.7818608E-02  0.1004958E+00
         -2   -1    0    0    0  501 -0.00000000000E+00  0.00000000000E+00  0.27241350777E+03  0.27241350779E+03  0.25500000000E-02 0.  1.
          2   -1    0    0  501    0  0.00000000000E+00 -0.00000000000E+00 -0.15827445270E+04  0.15827445270E+04  0.25500000000E-02 0. -1.
    8880023    1    1    2    0    0 -0.98748829708E+02 -0.17387904844E+03 -0.14219384651E+04  0.15797798770E+04  0.65864270000E+03 0. -1.
    8880022    1    1    2    0    0  0.98748829708E+02  0.17387904844E+03  0.11160744583E+03  0.27537815787E+03  0.15294330000E+03 0.  0.
<mgrwt>
<rscale>  0 0.53528857E+03</rscale>
<asrwt>0</asrwt>
<pdfrwt beam="1">  1        2 0.24349915E+00 0.68832802E+03</pdfrwt>
<pdfrwt beam="2">  1       -2 0.41909771E-01 0.68832802E+03</pdfrwt>
<totfact> 0.63285499E+01</totfact>
</mgrwt>
</event>
<event>
 4    2  0.2930016E-007  0.1201752E+04  0.7818608E-02  0.9155421E-01
         -2   -1    0    0    0  501 -0.00000000000E+00  0.00000000000E+00  0.62473614213E+03  0.62473614214E+03  0.25500000000E-02 0.  1.
          2   -1    0    0  501    0  0.00000000000E+00 -0.00000000000E+00 -0.25012366986E+04  0.25012366986E+04  0.25500000000E-02 0. -1.
    8880023    1    1    2    0    0 -0.12076056634E+03  0.99790482429E+03 -0.17185089014E+04  0.20970169774E+04  0.65864270000E+03 0.  0.
    8880022    1    1    2    0    0  0.12076056634E+03 -0.99790482429E+03 -0.15799165504E+03  0.10289558634E+04  0.15294330000E+03 0.  0.
<mgrwt>
<rscale>  0 0.11525640E+04</rscale>
<asrwt>0</asrwt>
<pdfrwt beam="1">  1        2 0.38480564E+00 0.12017518E+04</pdfrwt>
<pdfrwt beam="2">  1       -2 0.96113254E-01 0.12017518E+04</pdfrwt>
<totfact> 0.31006212E+00</totfact>
</mgrwt>
</event>
<event>
 4    2  0.2930016E-007  0.6646777E+03  0.7818608E-02  0.1019805E+00
         -2   -1    0    0    0  501 -0.00000000000E+00  0.00000000000E+00  0.37920808609E+03  0.37920808610E+03  0.25500000000E-02 0.  1.
          2   -1    0    0  501    0  0.00000000000E+00 -0.00000000000E+00 -0.14649690716E+04  0.14649690716E+04  0.25500000000E-02 0. -1.
    8880023    1    1    2    0    0 -0.69614758630E+02 -0.56035916030E+02 -0.13622808329E+04  0.15157854441E+04  0.65864270000E+03 0. -1.
    8880022    1    1    2    0    0  0.69614758630E+02  0.56035916030E+02  0.27651984744E+03  0.32839171358E+03  0.15294330000E+03 0.  0.
<mgrwt>
<rscale>  0 0.47756919E+03</rscale>
<asrwt>0</asrwt>
<pdfrwt beam="1">  1        2 0.22537985E+00 0.66467770E+03</pdfrwt>
<pdfrwt beam="2">  1       -2 0.58339706E-01 0.66467770E+03</pdfrwt>
<totfact> 0.37694155E+01</totfact>
</mgrwt>
</event>
<event>
 4    2  0.2930016E-007  0.7017740E+03  0.7818608E-02  0.9989920E-01
         -2   -1    0    0    0  501 -0.00000000000E+00  0.00000000000E+00  0.17370802560E+03  0.17370802562E+03  0.25500000000E-02 0.  1.
          2   -1    0    0  501    0  0.00000000000E+00 -0.00000000000E+00 -0.14085899765E+04  0.14085899765E+04  0.25500000000E-02 0. -1.
    8880023    1    1    2    0    0  0.23897186293E+03  0.39609600242E+02 -0.84311985430E+03  0.10969675322E+04  0.65864270000E+03 0.  0.
    8880022    1    1    2    0    0 -0.23897186293E+03 -0.39609600242E+02 -0.39176209662E+03  0.48533046995E+03  0.15294330000E+03 0. -1.
<mgrwt>
<rscale>  0 0.56094431E+03</rscale>
<asrwt>0</asrwt>
<pdfrwt beam="1">  1        2 0.21670614E+00 0.70177395E+03</pdfrwt>
<pdfrwt beam="2">  1       -2 0.26724313E-01 0.70177395E+03</pdfrwt>
<totfact> 0.18483663E+02</totfact>
</mgrwt>
</event>
<event>
 4    2  0.2930016E-007  0.6823275E+03  0.7818608E-02  0.1008037E+00
         -2   -1    0    0    0  501 -0.00000000000E+00  0.00000000000E+00  0.22364053003E+03  0.22364053004E+03  0.25500000000E-02 0.  1.
          2   -1    0    0  501    0  0.00000000000E+00 -0.00000000000E+00 -0.94164600337E+03  0.94164600337E+03  0.25500000000E-02 0. -1.
    8880023    1    1    2    0    0 -0.16789512668E+03  0.59764738697E+02 -0.55275558064E+03  0.87812842782E+03  0.65864270000E+03 0.  1.
    8880022    1    1    2    0    0  0.16789512668E+03 -0.59764738697E+02 -0.16524989270E+03  0.28715810559E+03  0.15294330000E+03 0.  0.
<mgrwt>
<rscale>  0 0.52262485E+03</rscale>
<asrwt>0</asrwt>
<pdfrwt beam="1">  1        2 0.14486861E+00 0.68232749E+03</pdfrwt>
<pdfrwt beam="2">  1       -2 0.34406236E-01 0.68232749E+03</pdfrwt>
<totfact> 0.22053350E+02</totfact>
</mgrwt>
</event>
<event>
 4    2  0.2930016E-007  0.8473733E+03  0.7818608E-02  0.9616431E-01
         -2   -1    0    0    0  501 -0.00000000000E+00  0.00000000000E+00  0.26188093542E+03  0.26188093543E+03  0.25500000000E-02 0.  1.
          2   -1    0    0  501    0  0.00000000000E+00 -0.00000000000E+00 -0.30313052857E+04  0.30313052857E+04  0.25500000000E-02 0. -1.
    8880023    1    1    2    0    0  0.35389114122E+02  0.53195770310E+03 -0.25662069968E+04  0.27024914327E+04  0.65864270000E+03 0.  0.
    8880022    1    1    2    0    0 -0.35389114122E+02 -0.53195770310E+03 -0.20321735349E+03  0.59069478842E+03  0.15294330000E+03 0.  0.
<mgrwt>
<rscale>  0 0.76218160E+03</rscale>
<asrwt>0</asrwt>
<pdfrwt beam="1">  1        2 0.46635464E+00 0.84737335E+03</pdfrwt>
<pdfrwt beam="2">  1       -2 0.40289377E-01 0.84737335E+03</pdfrwt>
<totfact> 0.10155530E+01</totfact>
</mgrwt>
</event>
<event>
 4    2  0.2930016E-007  0.1193117E+04  0.7818608E-02  0.9163842E-01
          2   -1    0    0  501    0  0.00000000000E+00  0.00000000000E+00  0.21914466056E+04  0.21914466056E+04  0.25500000000E-02 0. -1.
         -2   -1    0    0    0  501 -0.00000000000E+00 -0.00000000000E+00 -0.10617387190E+04  0.10617387190E+04  0.25500000000E-02 0.  1.
    8880023    1    1    2    0    0 -0.20077271528E+03 -0.97437636631E+03  0.17147357424E+04  0.20889824937E+04  0.65864270000E+03 0.  0.
    8880022    1    1    2    0    0  0.20077271528E+03  0.97437636631E+03 -0.58502785586E+03  0.11642028309E+04  0.15294330000E+03 0.  0.
<mgrwt>
<rscale>  0 0.11434561E+04</rscale>
<asrwt>0</asrwt>
<pdfrwt beam="1">  1        2 0.33714563E+00 0.11931174E+04</pdfrwt>
<pdfrwt beam="2">  1       -2 0.16334442E+00 0.11931174E+04</pdfrwt>
<totfact> 0.12113059E+00</totfact>
</mgrwt>
</event>
<event>
 4    2  0.2930016E-007  0.7640595E+03  0.7818608E-02  0.9794709E-01
         -2   -1    0    0    0  501 -0.00000000000E+00  0.00000000000E+00  0.22303206718E+03  0.22303206720E+03  0.25500000000E-02 0.  1.
          2   -1    0    0  501    0  0.00000000000E+00 -0.00000000000E+00 -0.25011513162E+04  0.25011513162E+04  0.25500000000E-02 0. -1.
    8880023    1    1    2    0    0 -0.37705655097E+03 -0.88346238173E+02 -0.21603341242E+04  0.22914690561E+04  0.65864270000E+03 0. -1.
    8880022    1    1    2    0    0  0.37705655097E+03  0.88346238173E+02 -0.11778512480E+03  0.43271432732E+03  0.15294330000E+03 0.  0.
<mgrwt>
<rscale>  0 0.65647261E+03</rscale>
<asrwt>0</asrwt>
<pdfrwt beam="1">  1        2 0.38479249E+00 0.76405949E+03</pdfrwt>
<pdfrwt beam="2">  1       -2 0.34312627E-01 0.76405949E+03</pdfrwt>
<totfact> 0.28806113E+01</totfact>
</mgrwt>
</event>
<event>
 4    2  0.2930016E-007  0.1005908E+04  0.7818608E-02  0.9373869E-01
          2   -1    0    0  501    0  0.00000000000E+00  0.00000000000E+00  0.13255700154E+04  0.13255700154E+04  0.25500000000E-02 0. -1.
         -2   -1    0    0    0  501 -0.00000000000E+00 -0.00000000000E+00 -0.71575672330E+03  0.71575672330E+03  0.25500000000E-02 0.  1.
    8880023    1    1    2    0    0 -0.64768343109E+03 -0.39817878868E+03  0.74807042003E+03  0.12535787707E+04  0.65864270000E+03 0.  0.
    8880022    1    1    2    0    0  0.64768343109E+03  0.39817878868E+03 -0.13825712795E+03  0.78774796801E+03  0.15294330000E+03 0.  0.
<mgrwt>
<rscale>  0 0.94257716E+03</rscale>
<asrwt>0</asrwt>
<pdfrwt beam="1">  1        2 0.20393385E+00 0.10059077E+04</pdfrwt>
<pdfrwt beam="2">  1       -2 0.11011642E+00 0.10059077E+04</pdfrwt>
<totfact> 0.10397442E+01</totfact>
</mgrwt>
</event>
<event>
 4    2  0.2930016E-007  0.9818047E+03  0.7818608E-02  0.9405760E-01
         -2   -1    0    0    0  501 -0.00000000000E+00  0.00000000000E+00  0.42486518815E+03  0.42486518816E+03  0.25500000000E-02 0.  1.
          2   -1    0    0  501    0  0.00000000000E+00 -0.00000000000E+00 -0.18753296278E+04  0.18753296278E+04  0.25500000000E-02 0. -1.
    8880023    1    1    2    0    0 -0.36452849524E+03 -0.63027705393E+03 -0.11102962038E+04  0.14821261940E+04  0.65864270000E+03 0.  0.
    8880022    1    1    2    0    0  0.36452849524E+03  0.63027705393E+03 -0.34016823585E+03  0.81806862196E+03  0.15294330000E+03 0.  0.
<mgrwt>
<rscale>  0 0.91603204E+03</rscale>
<asrwt>0</asrwt>
<pdfrwt beam="1">  1        2 0.28851225E+00 0.98180466E+03</pdfrwt>
<pdfrwt beam="2">  1       -2 0.65363876E-01 0.98180466E+03</pdfrwt>
<totfact> 0.16965488E+01</totfact>
</mgrwt>
</event>
<event>
 4    2  0.2930016E-007  0.1756419E+04  0.7818608E-02  0.8747034E-01
          2   -1    0    0  501    0  0.00000000000E+00  0.00000000000E+00  0.24961191338E+04  0.24961191338E+04  0.25500000000E-02 0. -1.
         -2   -1    0    0    0  501 -0.00000000000E+00 -0.00000000000E+00 -0.20483150447E+04  0.20483150447E+04  0.25500000000E-02 0.  1.
    8880023    1    1    2    0    0  0.10921402239E+04 -0.12076542473E+04  0.17307311427E+04  0.24658547290E+04  0.65864270000E+03 0.  0.
    8880022    1    1    2    0    0 -0.10921402239E+04  0.12076542473E+04 -0.12829270536E+04  0.20785794495E+04  0.15294330000E+03 0.  0.
<mgrwt>
<rscale>  0 0.17253545E+04</rscale>
<asrwt>0</asrwt>
<pdfrwt beam="1">  1        2 0.38401833E+00 0.17564194E+04</pdfrwt>
<pdfrwt beam="2">  1       -2 0.31512539E+00 0.17564194E+04</pdfrwt>
<totfact> 0.81636052E-02</totfact>
</mgrwt>
</event>
<event>
 4    2  0.2930016E-007  0.7854265E+03  0.7818608E-02  0.9743241E-01
          2   -1    0    0  501    0  0.00000000000E+00  0.00000000000E+00  0.25399316712E+04  0.25399316712E+04  0.25500000000E-02 0. -1.
         -2   -1    0    0    0  501 -0.00000000000E+00 -0.00000000000E+00 -0.17347017471E+03  0.17347017473E+03  0.25500000000E-02 0.  1.
    8880023    1    1    2    0    0  0.42147811085E+03 -0.73761930963E+02  0.19284752727E+04  0.20822852120E+04  0.65864270000E+03 0.  0.
    8880022    1    1    2    0    0 -0.42147811085E+03  0.73761930963E+02  0.43798622378E+03  0.63111663393E+03  0.15294330000E+03 0.  0.
<mgrwt>
<rscale>  0 0.68499585E+03</rscale>
<asrwt>0</asrwt>
<pdfrwt beam="1">  1        2 0.39075868E+00 0.78542653E+03</pdfrwt>
<pdfrwt beam="2">  1       -2 0.26687722E-01 0.78542653E+03</pdfrwt>
<totfact> 0.43570078E+01</totfact>
</mgrwt>
</event>
<event>
 4    2  0.2930016E-007  0.9139677E+03  0.7818608E-02  0.9503971E-01
          2   -1    0    0  501    0  0.00000000000E+00  0.00000000000E+00  0.26261960470E+04  0.26261960470E+04  0.25500000000E-02 0. -1.
         -2   -1    0    0    0  501 -0.00000000000E+00 -0.00000000000E+00 -0.31914570656E+03  0.31914570657E+03  0.25500000000E-02 0.  1.
    8880023    1    1    2    0    0  0.55560530006E+03  0.30467948435E+03  0.20502193630E+04  0.22447130062E+04  0.65864270000E+03 0.  0.
    8880022    1    1    2    0    0 -0.55560530006E+03 -0.30467948435E+03  0.25683097745E+03  0.70062874736E+03  0.15294330000E+03 0.  0.
<mgrwt>
<rscale>  0 0.83991697E+03</rscale>
<asrwt>0</asrwt>
<pdfrwt beam="1">  1        2 0.40403016E+00 0.91396775E+03</pdfrwt>
<pdfrwt beam="2">  1       -2 0.49099339E-01 0.91396775E+03</pdfrwt>
<totfact> 0.11833905E+01</totfact>
</mgrwt>
</event>
<event>
 4    2  0.2930016E-007  0.9527533E+03  0.7818608E-02  0.9446164E-01
         -2   -1    0    0    0  501 -0.00000000000E+00  0.00000000000E+00  0.34393633563E+03  0.34393633564E+03  0.25500000000E-02 0.  1.
          2   -1    0    0  501    0  0.00000000000E+00 -0.00000000000E+00 -0.37414995487E+04  0.37414995487E+04  0.25500000000E-02 0. -1.
    8880023    1    1    2    0    0 -0.68314527628E+03 -0.85095534567E+02 -0.32203070512E+04  0.33582907005E+04  0.65864270000E+03 0. -1.
    8880022    1    1    2    0    0  0.68314527628E+03  0.85095534567E+02 -0.17725616188E+03  0.72714518389E+03  0.15294330000E+03 0.  0.
<mgrwt>
<rscale>  0 0.88372042E+03</rscale>
<asrwt>0</asrwt>
<pdfrwt beam="1">  1        2 0.57561529E+00 0.95275334E+03</pdfrwt>
<pdfrwt beam="2">  1       -2 0.52913285E-01 0.95275334E+03</pdfrwt>
<totfact> 0.19298701E+00</totfact>
</mgrwt>
</event>
<event>
 4    2  0.2930016E-007  0.8519229E+03  0.7818608E-02  0.9608096E-01
          2   -1    0    0  501    0  0.00000000000E+00  0.00000000000E+00  0.92402319028E+03  0.92402319029E+03  0.25500000000E-02 0. -1.
         -2   -1    0    0    0  501 -0.00000000000E+00 -0.00000000000E+00 -0.12273277499E+04  0.12273277499E+04  0.25500000000E-02 0.  1.
    8880023    1    1    2    0    0  0.31160346865E+03 -0.44143598869E+03  0.63176510536E+03  0.10606129400E+04  0.65864270000E+03 0. -1.
    8880022    1    1    2    0    0 -0.31160346865E+03  0.44143598869E+03 -0.93506966497E+03  0.10907380002E+04  0.15294330000E+03 0.  0.
<mgrwt>
<rscale>  0 0.76762664E+03</rscale>
<asrwt>0</asrwt>
<pdfrwt beam="1">  1        2 0.14215741E+00 0.85192292E+03</pdfrwt>
<pdfrwt beam="2">  1       -2 0.18881965E+00 0.85192292E+03</pdfrwt>
<totfact> 0.44962705E+00</totfact>
</mgrwt>
</event>
<event>
 4    2  0.2930016E-007  0.7375532E+03  0.7818608E-02  0.9867133E-01
         -2   -1    0    0    0  501 -0.00000000000E+00  0.00000000000E+00  0.19746569222E+04  0.19746569222E+04  0.25500000000E-02 0.  1.
          2   -1    0    0  501    0  0.00000000000E+00 -0.00000000000E+00 -0.66984415547E+03  0.66984415548E+03  0.25500000000E-02 0. -1.
    8880023    1    1    2    0    0 -0.13047472958E+03  0.30520621471E+03 -0.44200837715E+03  0.85985818615E+03  0.65864270000E+03 0.  0.
    8880022    1    1    2    0    0  0.13047472958E+03 -0.30520621471E+03  0.17468211439E+04  0.17846428915E+04  0.15294330000E+03 0.  0.
<mgrwt>
<rscale>  0 0.61880961E+03</rscale>
<asrwt>0</asrwt>
<pdfrwt beam="1">  1        2 0.10305295E+00 0.73755318E+03</pdfrwt>
<pdfrwt beam="2">  1       -2 0.30379337E+00 0.73755318E+03</pdfrwt>
<totfact> 0.13649413E+00</totfact>
</mgrwt>
</event>
<event>
 4    2  0.2930016E-007  0.9884191E+03  0.7818608E-02  0.9396868E-01
         -2   -1    0    0    0  501 -0.00000000000E+00  0.00000000000E+00  0.59766432410E+03  0.59766432410E+03  0.25500000000E-02 0.  1.
          2   -1    0    0  501    0  0.00000000000E+00 -0.00000000000E+00 -0.17683119281E+04  0.17683119281E+04  0.25500000000E-02 0. -1.
    8880023    1    1    2    0    0 -0.64863441425E+03  0.34990787640E+03 -0.12672130082E+04  0.16071095606E+04  0.65864270000E+03 0.  0.
    8880022    1    1    2    0    0  0.64863441425E+03 -0.34990787640E+03  0.96565404210E+02  0.75886669161E+03  0.15294330000E+03 0.  0.
<mgrwt>
<rscale>  0 0.92333860E+03</rscale>
<asrwt>0</asrwt>
<pdfrwt beam="1">  1        2 0.27204799E+00 0.98841911E+03</pdfrwt>
<pdfrwt beam="2">  1       -2 0.91948358E-01 0.98841911E+03</pdfrwt>
<totfact> 0.90338665E+00</totfact>
</mgrwt>
</event>
<event>
 4    2  0.2930016E-007  0.7120836E+03  0.7818608E-02  0.9950344E-01
         -2   -1    0    0    0  501 -0.00000000000E+00  0.00000000000E+00  0.45125787716E+03  0.45125787717E+03  0.25500000000E-02 0.  1.
          2   -1    0    0  501    0  0.00000000000E+00 -0.00000000000E+00 -0.14253369439E+04  0.14253369439E+04  0.25500000000E-02 0. -1.
    8880023    1    1    2    0    0  0.26997711876E+03 -0.19109838512E+02 -0.12644695078E+04  0.14511878490E+04  0.65864270000E+03 0.  0.
    8880022    1    1    2    0    0 -0.26997711876E+03  0.19109838512E+02  0.29039044110E+03  0.42540697206E+03  0.15294330000E+03 0.  0.
<mgrwt>
<rscale>  0 0.57882245E+03</rscale>
<asrwt>0</asrwt>
<pdfrwt beam="1">  1        2 0.21928260E+00 0.71208359E+03</pdfrwt>
<pdfrwt beam="2">  1       -2 0.69424289E-01 0.71208359E+03</pdfrwt>
<totfact> 0.27199663E+01</totfact>
</mgrwt>
</event>
<event>
 4    2  0.2930016E-007  0.8840188E+03  0.7818608E-02  0.9552189E-01
          2   -1    0    0  501    0  0.00000000000E+00  0.00000000000E+00  0.11315035244E+04  0.11315035244E+04  0.25500000000E-02 0. -1.
         -2   -1    0    0    0  501 -0.00000000000E+00 -0.00000000000E+00 -0.82576690677E+03  0.82576690678E+03  0.25500000000E-02 0.  1.
    8880023    1    1    2    0    0 -0.18248422506E+03 -0.56069476475E+03  0.78494616987E+03  0.11822139432E+04  0.65864270000E+03 0. -1.
    8880022    1    1    2    0    0  0.18248422506E+03  0.56069476475E+03 -0.47920955224E+03  0.77505648800E+03  0.15294330000E+03 0.  0.
<mgrwt>
<rscale>  0 0.80543080E+03</rscale>
<asrwt>0</asrwt>
<pdfrwt beam="1">  1        2 0.17407746E+00 0.88401884E+03</pdfrwt>
<pdfrwt beam="2">  1       -2 0.12704106E+00 0.88401884E+03</pdfrwt>
<totfact> 0.96255318E+00</totfact>
</mgrwt>
</event>
<event>
 4    2  0.2930016E-007  0.7002671E+03  0.7818608E-02  0.9996095E-01
         -2   -1    0    0    0  501 -0.00000000000E+00  0.00000000000E+00  0.18936423265E+03  0.18936423266E+03  0.25500000000E-02 0.  1.
          2   -1    0    0  501    0  0.00000000000E+00 -0.00000000000E+00 -0.35842037562E+04  0.35842037562E+04  0.25500000000E-02 0. -1.
    8880023    1    1    2    0    0  0.16220780331E+03  0.17393209678E+03 -0.34188097360E+04  0.34897899597E+04  0.65864270000E+03 0. -1.
    8880022    1    1    2    0    0 -0.16220780331E+03 -0.17393209678E+03  0.23970212417E+02  0.28377802917E+03  0.15294330000E+03 0.  0.
<mgrwt>
<rscale>  0 0.55821788E+03</rscale>
<asrwt>0</asrwt>
<pdfrwt beam="1">  1        2 0.55141591E+00 0.70026706E+03</pdfrwt>
<pdfrwt beam="2">  1       -2 0.29132962E-01 0.70026706E+03</pdfrwt>
<totfact> 0.84019280E+00</totfact>
</mgrwt>
</event>
<event>
 4    2  0.2930016E-007  0.9010549E+03  0.7818608E-02  0.9524340E-01
          2   -1    0    0  501    0  0.00000000000E+00  0.00000000000E+00  0.16827902913E+04  0.16827902913E+04  0.25500000000E-02 0. -1.
         -2   -1    0    0    0  501 -0.00000000000E+00 -0.00000000000E+00 -0.39649266299E+03  0.39649266300E+03  0.25500000000E-02 0.  1.
    8880023    1    1    2    0    0  0.44302635970E+03 -0.42640054493E+03  0.10936282843E+04  0.14170119303E+04  0.65864270000E+03 0.  0.
    8880022    1    1    2    0    0 -0.44302635970E+03  0.42640054493E+03  0.19266934401E+03  0.66227102401E+03  0.15294330000E+03 0.  0.
<mgrwt>
<rscale>  0 0.82512859E+03</rscale>
<asrwt>0</asrwt>
<pdfrwt beam="1">  1        2 0.25889081E+00 0.90105493E+03</pdfrwt>
<pdfrwt beam="2">  1       -2 0.60998872E-01 0.90105493E+03</pdfrwt>
<totfact> 0.25313636E+01</totfact>
</mgrwt>
</event>
<event>
 4    2  0.2930016E-007  0.8972573E+03  0.7818608E-02  0.9530449E-01
          2   -1    0    0  501    0  0.00000000000E+00  0.00000000000E+00  0.72826915297E+03  0.72826915297E+03  0.25500000000E-02 0. -1.
         -2   -1    0    0    0  501 -0.00000000000E+00 -0.00000000000E+00 -0.93251535642E+03  0.93251535642E+03  0.25500000000E-02 0.  1.
    8880023    1    1    2    0    0  0.56444695784E+03 -0.22947803002E+03  0.19263780397E+03  0.91770369088E+03  0.65864270000E+03 0.  0.
    8880022    1    1    2    0    0 -0.56444695784E+03  0.22947803002E+03 -0.39688400742E+03  0.74308081851E+03  0.15294330000E+03 0.  0.
<mgrwt>
<rscale>  0 0.82075697E+03</rscale>
<asrwt>0</asrwt>
<pdfrwt beam="1">  1        2 0.11204141E+00 0.89725734E+03</pdfrwt>
<pdfrwt beam="2">  1       -2 0.14346390E+00 0.89725734E+03</pdfrwt>
<totfact> 0.13138531E+01</totfact>
</mgrwt>
</event>
<event>
 4    2  0.2930016E-007  0.6602019E+03  0.7818608E-02  0.1023950E+00
         -2   -1    0    0    0  501 -0.00000000000E+00  0.00000000000E+00  0.26239694838E+03  0.26239694839E+03  0.25500000000E-02 0.  1.
          2   -1    0    0  501    0  0.00000000000E+00 -0.00000000000E+00 -0.19883469628E+04  0.19883469628E+04  0.25500000000E-02 0. -1.
    8880023    1    1    2    0    0 -0.43517377812E+02  0.12752796688E+02 -0.19019087182E+04  0.20132370388E+04  0.65864270000E+03 0. -1.
    8880022    1    1    2    0    0  0.43517377812E+02 -0.12752796688E+02  0.17595870373E+03  0.23750687238E+03  0.15294330000E+03 0.  0.
<mgrwt>
<rscale>  0 0.46287573E+03</rscale>
<asrwt>0</asrwt>
<pdfrwt beam="1">  1        2 0.30589952E+00 0.66020194E+03</pdfrwt>
<pdfrwt beam="2">  1       -2 0.40368763E-01 0.66020194E+03</pdfrwt>
<totfact> 0.41093250E+01</totfact>
</mgrwt>
</event>
<event>
 4    2  0.2930016E-007  0.7056395E+03  0.7818608E-02  0.9974564E-01
          2   -1    0    0  501    0  0.00000000000E+00  0.00000000000E+00  0.42767084185E+03  0.42767084186E+03  0.25500000000E-02 0. -1.
         -2   -1    0    0    0  501 -0.00000000000E+00 -0.00000000000E+00 -0.65045835670E+03  0.65045835670E+03  0.25500000000E-02 0.  1.
    8880023    1    1    2    0    0 -0.19413870539E+03 -0.16256398584E+03  0.35603387244E+01  0.70564847389E+03  0.65864270000E+03 0.  1.
    8880022    1    1    2    0    0  0.19413870539E+03  0.16256398584E+03 -0.22634785357E+03  0.37248072468E+03  0.15294330000E+03 0. -1.
<mgrwt>
<rscale>  0 0.56779748E+03</rscale>
<asrwt>0</asrwt>
<pdfrwt beam="1">  1        2 0.65795514E-01 0.70563949E+03</pdfrwt>
<pdfrwt beam="2">  1       -2 0.10007052E+00 0.70563949E+03</pdfrwt>
<totfact> 0.61627719E+01</totfact>
</mgrwt>
</event>
<event>
 4    2  0.2930016E-007  0.7936906E+03  0.7818608E-02  0.9724608E-01
         -2   -1    0    0    0  501 -0.00000000000E+00  0.00000000000E+00  0.37700720235E+03  0.37700720236E+03  0.25500000000E-02 0.  1.
          2   -1    0    0  501    0  0.00000000000E+00 -0.00000000000E+00 -0.31808511988E+04  0.31808511988E+04  0.25500000000E-02 0. -1.
    8880023    1    1    2    0    0  0.12794703738E+03 -0.42398592102E+03 -0.29595492950E+04  0.30641274029E+04  0.65864270000E+03 0. -1.
    8880022    1    1    2    0    0 -0.12794703738E+03  0.42398592102E+03  0.15570529855E+03  0.49373099823E+03  0.15294330000E+03 0.  0.
<mgrwt>
<rscale>  0 0.69570352E+03</rscale>
<asrwt>0</asrwt>
<pdfrwt beam="1">  1        2 0.48936171E+00 0.79369056E+03</pdfrwt>
<pdfrwt beam="2">  1       -2 0.58001110E-01 0.79369056E+03</pdfrwt>
<totfact> 0.39498716E+00</totfact>
</mgrwt>
</event>
<event>
 4    2  0.2930016E-007  0.7671489E+03  0.7818608E-02  0.9786939E-01
         -2   -1    0    0    0  501 -0.00000000000E+00  0.00000000000E+00  0.49048578478E+03  0.49048578478E+03  0.25500000000E-02 0.  1.
          2   -1    0    0  501    0  0.00000000000E+00 -0.00000000000E+00 -0.21617159523E+04  0.21617159523E+04  0.25500000000E-02 0. -1.
    8880023    1    1    2    0    0  0.29575821186E+03 -0.25929566796E+03 -0.19838467240E+04  0.21270085082E+04  0.65864270000E+03 0.  0.
    8880022    1    1    2    0    0 -0.29575821186E+03  0.25929566796E+03  0.31261655646E+03  0.52519322891E+03  0.15294330000E+03 0.  0.
<mgrwt>
<rscale>  0 0.66068183E+03</rscale>
<asrwt>0</asrwt>
<pdfrwt beam="1">  1        2 0.33257168E+00 0.76714886E+03</pdfrwt>
<pdfrwt beam="2">  1       -2 0.75459353E-01 0.76714886E+03</pdfrwt>
<totfact> 0.88626043E+00</totfact>
</mgrwt>
</event>
<event>
 4    2  0.2930016E-007  0.7096184E+03  0.7818608E-02  0.9959421E-01
          2   -1    0    0  501    0  0.00000000000E+00  0.00000000000E+00  0.12515951011E+04  0.12515951011E+04  0.25500000000E-02 0. -1.
         -2   -1    0    0    0  501 -0.00000000000E+00 -0.00000000000E+00 -0.81117041284E+03  0.81117041284E+03  0.25500000000E-02 0.  1.
    8880023    1    1    2    0    0  0.44738985013E+02 -0.26028149577E+03  0.11154026951E+04  0.13219990213E+04  0.65864270000E+03 0. -1.
    8880022    1    1    2    0    0 -0.44738985013E+02  0.26028149577E+03 -0.67497800687E+03  0.74076649262E+03  0.15294330000E+03 0.  0.
<mgrwt>
<rscale>  0 0.57465936E+03</rscale>
<asrwt>0</asrwt>
<pdfrwt beam="1">  1        2 0.19255309E+00 0.70961838E+03</pdfrwt>
<pdfrwt beam="2">  1       -2 0.12479545E+00 0.70961838E+03</pdfrwt>
<totfact> 0.87212233E+00</totfact>
</mgrwt>
</event>
<event>
 4    2  0.2943612E-007  0.8263880E+03  0.7818608E-02  0.9656402E-01
          2   -1    0    0  501    0  0.00000000000E+00  0.00000000000E+00  0.17574876227E+04  0.17574876227E+04  0.25500000000E-02 0. -1.
         -2   -1    0    0    0  501 -0.00000000000E+00 -0.00000000000E+00 -0.13278461205E+04  0.13278461205E+04  0.25500000000E-02 0.  1.
    8880023    1    1    2    0    0 -0.37133404963E+03 -0.33349347563E+03  0.16016789756E+04  0.18023020340E+04  0.65864270000E+03 0. -1.
    8880022    1    1    2    0    0  0.37133404963E+03  0.33349347563E+03 -0.11720374734E+04  0.12830317092E+04  0.15294330000E+03 0.  0.
<mgrwt>
<rscale>  0 0.73673026E+03</rscale>
<asrwt>0</asrwt>
<pdfrwt beam="1">  1        2 0.27038271E+00 0.82638797E+03</pdfrwt>
<pdfrwt beam="2">  1       -2 0.20428402E+00 0.82638797E+03</pdfrwt>
<totfact> 0.11632813E+00</totfact>
</mgrwt>
</event>
<event>
 4    2  0.2930016E-007  0.1067389E+04  0.7818608E-02  0.9298263E-01
         -2   -1    0    0    0  501 -0.00000000000E+00  0.00000000000E+00  0.19854153505E+04  0.19854153505E+04  0.25500000000E-02 0.  1.
          2   -1    0    0  501    0  0.00000000000E+00 -0.00000000000E+00 -0.58069440536E+03  0.58069440536E+03  0.25500000000E-02 0. -1.
    8880023    1    1    2    0    0 -0.82531142220E+03  0.15611168481E+03  0.13353680953E+04  0.17095402768E+04  0.65864270000E+03 0.  1.
    8880022    1    1    2    0    0  0.82531142220E+03 -0.15611168481E+03  0.69352849873E+02  0.85656947911E+03  0.15294330000E+03 0.  0.
<mgrwt>
<rscale>  0 0.10094289E+04</rscale>
<asrwt>0</asrwt>
<pdfrwt beam="1">  1        2 0.89337602E-01 0.10673893E+04</pdfrwt>
<pdfrwt beam="2">  1       -2 0.30544851E+00 0.10673893E+04</pdfrwt>
<totfact> 0.15169745E+00</totfact>
</mgrwt>
</event>
<event>
 4    2  0.2930016E-007  0.6860261E+03  0.7818608E-02  0.1006102E+00
         -2   -1    0    0    0  501 -0.00000000000E+00  0.00000000000E+00  0.17959670628E+03  0.17959670630E+03  0.25500000000E-02 0.  1.
          2   -1    0    0  501    0  0.00000000000E+00 -0.00000000000E+00 -0.12723743543E+04  0.12723743543E+04  0.25500000000E-02 0. -1.
    8880023    1    1    2    0    0 -0.28068946427E+02 -0.18982547896E+03 -0.93708879410E+03  0.11613643668E+04  0.65864270000E+03 0.  0.
    8880022    1    1    2    0    0  0.28068946427E+02  0.18982547896E+03 -0.15568885390E+03  0.29060669377E+03  0.15294330000E+03 0. -1.
<mgrwt>
<rscale>  0 0.53053857E+03</rscale>
<asrwt>0</asrwt>
<pdfrwt beam="1">  1        2 0.19574989E+00 0.68602608E+03</pdfrwt>
<pdfrwt beam="2">  1       -2 0.27630263E-01 0.68602608E+03</pdfrwt>
<totfact> 0.20825278E+02</totfact>
</mgrwt>
</event>
<event>
 4    2  0.2930016E-007  0.7358654E+03  0.7818608E-02  0.9872159E-01
          2   -1    0    0  501    0  0.00000000000E+00  0.00000000000E+00  0.20482200825E+04  0.20482200825E+04  0.25500000000E-02 0. -1.
         -2   -1    0    0    0  501 -0.00000000000E+00 -0.00000000000E+00 -0.16079816130E+03  0.16079816132E+03  0.25500000000E-02 0.  1.
    8880023    1    1    2    0    0  0.31504232637E+03 -0.91847837044E+02  0.15421789209E+04  0.17087462429E+04  0.65864270000E+03 0.  1.
    8880022    1    1    2    0    0 -0.31504232637E+03  0.91847837044E+02  0.34524300038E+03  0.50027200091E+03  0.15294330000E+03 0.  0.
<mgrwt>
<rscale>  0 0.61629774E+03</rscale>
<asrwt>0</asrwt>
<pdfrwt beam="1">  1        2 0.31511078E+00 0.73586541E+03</pdfrwt>
<pdfrwt beam="2">  1       -2 0.24738179E-01 0.73586541E+03</pdfrwt>
<totfact> 0.94422838E+01</totfact>
</mgrwt>
</event>
<event>
 4    2  0.2930016E-007  0.1050729E+04  0.7818608E-02  0.9318006E-01
          2   -1    0    0  501    0  0.00000000000E+00  0.00000000000E+00  0.31449497467E+04  0.31449497467E+04  0.25500000000E-02 0. -1.
         -2   -1    0    0    0  501 -0.00000000000E+00 -0.00000000000E+00 -0.35205620608E+03  0.35205620609E+03  0.25500000000E-02 0.  1.
    8880023    1    1    2    0    0  0.41238693951E+03 -0.70721853913E+03  0.23015095185E+04  0.25300152805E+04  0.65864270000E+03 0. -1.
    8880022    1    1    2    0    0 -0.41238693951E+03  0.70721853913E+03  0.49138402217E+03  0.96699067226E+03  0.15294330000E+03 0.  0.
<mgrwt>
<rscale>  0 0.99141993E+03</rscale>
<asrwt>0</asrwt>
<pdfrwt beam="1">  1        2 0.48383844E+00 0.10507289E+04</pdfrwt>
<pdfrwt beam="2">  1       -2 0.54162492E-01 0.10507289E+04</pdfrwt>
<totfact> 0.46065572E+00</totfact>
</mgrwt>
</event>
<event>
 4    2  0.2930016E-007  0.8356317E+03  0.7818608E-02  0.9638473E-01
          2   -1    0    0  501    0  0.00000000000E+00  0.00000000000E+00  0.25110892600E+04  0.25110892600E+04  0.25500000000E-02 0. -1.
         -2   -1    0    0    0  501 -0.00000000000E+00 -0.00000000000E+00 -0.43222756817E+03  0.43222756818E+03  0.25500000000E-02 0.  1.
    8880023    1    1    2    0    0  0.43047906737E+03 -0.28135021591E+03  0.22337035333E+04  0.23848924194E+04  0.65864270000E+03 0.  0.
    8880022    1    1    2    0    0 -0.43047906737E+03  0.28135021591E+03 -0.15484184143E+03  0.55842440877E+03  0.15294330000E+03 0.  0.
<mgrwt>
<rscale>  0 0.74801309E+03</rscale>
<asrwt>0</asrwt>
<pdfrwt beam="1">  1        2 0.38632142E+00 0.83563172E+03</pdfrwt>
<pdfrwt beam="2">  1       -2 0.66496549E-01 0.83563172E+03</pdfrwt>
<totfact> 0.73788685E+00</totfact>
</mgrwt>
</event>
<event>
 4    2  0.2930016E-007  0.1222830E+04  0.7818608E-02  0.9135244E-01
         -2   -1    0    0    0  501 -0.00000000000E+00  0.00000000000E+00  0.51152048113E+03  0.51152048114E+03  0.25500000000E-02 0.  1.
          2   -1    0    0  501    0  0.00000000000E+00 -0.00000000000E+00 -0.25445241540E+04  0.25445241540E+04  0.25500000000E-02 0. -1.
    8880023    1    1    2    0    0  0.44366035992E+03  0.92987491371E+03 -0.90930697023E+03  0.15238606375E+04  0.65864270000E+03 0.  0.
    8880022    1    1    2    0    0 -0.44366035992E+03 -0.92987491371E+03 -0.11236967026E+04  0.15321839976E+04  0.15294330000E+03 0.  0.
<mgrwt>
<rscale>  0 0.11747564E+04</rscale>
<asrwt>0</asrwt>
<pdfrwt beam="1">  1        2 0.39146525E+00 0.12228295E+04</pdfrwt>
<pdfrwt beam="2">  1       -2 0.78695460E-01 0.12228295E+04</pdfrwt>
<totfact> 0.46313265E+00</totfact>
</mgrwt>
</event>
<event>
 4    2  0.2930016E-007  0.7008274E+03  0.7818608E-02  0.9993786E-01
         -2   -1    0    0    0  501 -0.00000000000E+00  0.00000000000E+00  0.85757954272E+02  0.85757954310E+02  0.25500000000E-02 0.  1.
          2   -1    0    0  501    0  0.00000000000E+00 -0.00000000000E+00 -0.37330648490E+04  0.37330648490E+04  0.25500000000E-02 0. -1.
    8880023    1    1    2    0    0 -0.12700328207E+03  0.20302447112E+03 -0.32821300348E+04  0.33561192680E+04  0.65864270000E+03 0.  0.
    8880022    1    1    2    0    0  0.12700328207E+03 -0.20302447112E+03 -0.36517685988E+03  0.46270353525E+03  0.15294330000E+03 0.  0.
<mgrwt>
<rscale>  0 0.55923541E+03</rscale>
<asrwt>0</asrwt>
<pdfrwt beam="1">  1        2 0.57431754E+00 0.70082735E+03</pdfrwt>
<pdfrwt beam="2">  1       -2 0.13193534E-01 0.70082735E+03</pdfrwt>
<totfact> 0.26295940E+01</totfact>
</mgrwt>
</event>
<event>
 4    2  0.2930016E-007  0.7350480E+03  0.7818608E-02  0.9874614E-01
          2   -1    0    0  501    0  0.00000000000E+00  0.00000000000E+00  0.11759662715E+04  0.11759662715E+04  0.25500000000E-02 0. -1.
         -2   -1    0    0    0  501 -0.00000000000E+00 -0.00000000000E+00 -0.74010727317E+03  0.74010727318E+03  0.25500000000E-02 0.  1.
    8880023    1    1    2    0    0  0.49876139524E+02 -0.32248680996E+03  0.10033706152E+04  0.12438039112E+04  0.65864270000E+03 0. -1.
    8880022    1    1    2    0    0 -0.49876139524E+02  0.32248680996E+03 -0.56751161681E+03  0.67226963350E+03  0.15294330000E+03 0.  0.
<mgrwt>
<rscale>  0 0.61507535E+03</rscale>
<asrwt>0</asrwt>
<pdfrwt beam="1">  1        2 0.18091789E+00 0.73504801E+03</pdfrwt>
<pdfrwt beam="2">  1       -2 0.11386266E+00 0.73504801E+03</pdfrwt>
<totfact> 0.12079466E+01</totfact>
</mgrwt>
</event>
<event>
 4    2  0.2930016E-007  0.8827102E+03  0.7818608E-02  0.9554377E-01
          2   -1    0    0  501    0  0.00000000000E+00  0.00000000000E+00  0.34468017645E+04  0.34468017645E+04  0.25500000000E-02 0. -1.
         -2   -1    0    0    0  501 -0.00000000000E+00 -0.00000000000E+00 -0.24561982415E+03  0.24561982417E+03  0.25500000000E-02 0.  1.
    8880023    1    1    2    0    0 -0.20773562510E+03  0.54973901116E+03  0.72326058655E+03  0.11411762145E+04  0.65864270000E+03 0.  1.
    8880022    1    1    2    0    0  0.20773562510E+03 -0.54973901116E+03  0.24779213538E+04  0.25512453741E+04  0.15294330000E+03 0.  0.
<mgrwt>
<rscale>  0 0.80390808E+03</rscale>
<asrwt>0</asrwt>
<pdfrwt beam="1">  1        2 0.53027719E+00 0.88271019E+03</pdfrwt>
<pdfrwt beam="2">  1       -2 0.37787666E-01 0.88271019E+03</pdfrwt>
<totfact> 0.61696027E+00</totfact>
</mgrwt>
</event>
<event>
 4    2  0.2930016E-007  0.7181256E+03  0.7818608E-02  0.9928980E-01
         -2   -1    0    0    0  501 -0.00000000000E+00  0.00000000000E+00  0.22069011468E+03  0.22069011470E+03  0.25500000000E-02 0.  1.
          2   -1    0    0  501    0  0.00000000000E+00 -0.00000000000E+00 -0.27345513615E+04  0.27345513615E+04  0.25500000000E-02 0. -1.
    8880023    1    1    2    0    0  0.18247590952E+03  0.22044669284E+03 -0.25304136563E+04  0.26303417421E+04  0.65864270000E+03 0. -1.
    8880022    1    1    2    0    0 -0.18247590952E+03 -0.22044669284E+03  0.16552409501E+02  0.32489973409E+03  0.15294330000E+03 0.  0.
<mgrwt>
<rscale>  0 0.58877122E+03</rscale>
<asrwt>0</asrwt>
<pdfrwt beam="1">  1        2 0.42070018E+00 0.71812562E+03</pdfrwt>
<pdfrwt beam="2">  1       -2 0.33952327E-01 0.71812562E+03</pdfrwt>
<totfact> 0.21721284E+01</totfact>
</mgrwt>
</event>
<event>
 4    2  0.2930016E-007  0.7626185E+03  0.7818608E-02  0.9798375E-01
         -2   -1    0    0    0  501 -0.00000000000E+00  0.00000000000E+00  0.29938800055E+03  0.29938800056E+03  0.25500000000E-02 0.  1.
          2   -1    0    0  501    0  0.00000000000E+00 -0.00000000000E+00 -0.14094033777E+04  0.14094033777E+04  0.25500000000E-02 0. -1.
    8880023    1    1    2    0    0 -0.36054063117E+03  0.13336852537E+03 -0.10392761990E+04  0.12890624245E+04  0.65864270000E+03 0.  0.
    8880022    1    1    2    0    0  0.36054063117E+03 -0.13336852537E+03 -0.70739178209E+02  0.41972895377E+03  0.15294330000E+03 0.  0.
<mgrwt>
<rscale>  0 0.65449815E+03</rscale>
<asrwt>0</asrwt>
<pdfrwt beam="1">  1        2 0.21683129E+00 0.76261846E+03</pdfrwt>
<pdfrwt beam="2">  1       -2 0.46059693E-01 0.76261846E+03</pdfrwt>
<totfact> 0.65038264E+01</totfact>
</mgrwt>
</event>
<event>
 4    2  0.2930016E-007  0.8588087E+03  0.7818608E-02  0.9595686E-01
          2   -1    0    0  501    0  0.00000000000E+00  0.00000000000E+00  0.83063751146E+03  0.83063751146E+03  0.25500000000E-02 0. -1.
         -2   -1    0    0    0  501 -0.00000000000E+00 -0.00000000000E+00 -0.15094275349E+04  0.15094275349E+04  0.25500000000E-02 0.  1.
    8880023    1    1    2    0    0  0.27208310241E+03  0.47928383211E+03 -0.12598584453E+04  0.15247280790E+04  0.65864270000E+03 0.  0.
    8880022    1    1    2    0    0 -0.27208310241E+03 -0.47928383211E+03  0.58106842192E+03  0.81533696734E+03  0.15294330000E+03 0.  0.
<mgrwt>
<rscale>  0 0.77582366E+03</rscale>
<asrwt>0</asrwt>
<pdfrwt beam="1">  1        2 0.12779039E+00 0.85880872E+03</pdfrwt>
<pdfrwt beam="2">  1       -2 0.23221962E+00 0.85880872E+03</pdfrwt>
<totfact> 0.27458421E+00</totfact>
</mgrwt>
</event>
<event>
 4    2  0.2930016E-007  0.1415100E+04  0.7818608E-02  0.8972037E-01
         -2   -1    0    0    0  501 -0.00000000000E+00  0.00000000000E+00  0.11890023639E+04  0.11890023639E+04  0.25500000000E-02 0.  1.
          2   -1    0    0  501    0  0.00000000000E+00 -0.00000000000E+00 -0.43771486133E+04  0.43771486133E+04  0.25500000000E-02 0. -1.
    8880023    1    1    2    0    0  0.49576717531E+03  0.11501797573E+04 -0.38779849055E+04  0.41281080048E+04  0.65864270000E+03 0.  0.
    8880022    1    1    2    0    0 -0.49576717531E+03 -0.11501797573E+04  0.68983865602E+03  0.14380429724E+04  0.15294330000E+03 0.  1.
<mgrwt>
<rscale>  0 0.13751066E+04</rscale>
<asrwt>0</asrwt>
<pdfrwt beam="1">  1        2 0.67340747E+00 0.14151003E+04</pdfrwt>
<pdfrwt beam="2">  1       -2 0.18292344E+00 0.14151003E+04</pdfrwt>
<totfact> 0.27302372E-02</totfact>
</mgrwt>
</event>
<event>
 4    2  0.2930016E-007  0.7529812E+03  0.7818608E-02  0.9823629E-01
          2   -1    0    0  501    0  0.00000000000E+00  0.00000000000E+00  0.42859838962E+04  0.42859838962E+04  0.25500000000E-02 0. -1.
         -2   -1    0    0    0  501 -0.00000000000E+00 -0.00000000000E+00 -0.31680606610E+03  0.31680606611E+03  0.25500000000E-02 0.  1.
    8880023    1    1    2    0    0  0.35756815124E+03  0.72907742170E+02  0.41133209437E+04  0.41816730999E+04  0.65864270000E+03 0. -1.
    8880022    1    1    2    0    0 -0.35756815124E+03 -0.72907742170E+02 -0.14414311360E+03  0.42111686248E+03  0.15294330000E+03 0.  0.
<mgrwt>
<rscale>  0 0.64109733E+03</rscale>
<asrwt>0</asrwt>
<pdfrwt beam="1">  1        2 0.65938218E+00 0.75298123E+03</pdfrwt>
<pdfrwt beam="2">  1       -2 0.48739392E-01 0.75298123E+03</pdfrwt>
<totfact> 0.87722324E-01</totfact>
</mgrwt>
</event>
<event>
 4    2  0.2930016E-007  0.1130101E+04  0.7818608E-02  0.9228260E-01
         -2   -1    0    0    0  501 -0.00000000000E+00  0.00000000000E+00  0.12711609124E+04  0.12711609124E+04  0.25500000000E-02 0.  1.
          2   -1    0    0  501    0  0.00000000000E+00 -0.00000000000E+00 -0.10509580484E+04  0.10509580485E+04  0.25500000000E-02 0. -1.
    8880023    1    1    2    0    0  0.89083604245E+03 -0.22299804726E+03 -0.40524244500E+03  0.12005617973E+04  0.65864270000E+03 0.  0.
    8880022    1    1    2    0    0 -0.89083604245E+03  0.22299804726E+03  0.62544530894E+03  0.11215571635E+04  0.15294330000E+03 0.  0.
<mgrwt>
<rscale>  0 0.10766436E+04</rscale>
<asrwt>0</asrwt>
<pdfrwt beam="1">  1        2 0.16168585E+00 0.11301005E+04</pdfrwt>
<pdfrwt beam="2">  1       -2 0.19556322E+00 0.11301005E+04</pdfrwt>
<totfact> 0.32549483E+00</totfact>
</mgrwt>
</event>
<event>
 4    2  0.2930016E-007  0.7786163E+03  0.7818608E-02  0.9759097E-01
          2   -1    0    0  501    0  0.00000000000E+00  0.00000000000E+00  0.33600955474E+03  0.33600955475E+03  0.25500000000E-02 0. -1.
         -2   -1    0    0    0  501 -0.00000000000E+00 -0.00000000000E+00 -0.14087649850E+04  0.14087649850E+04  0.25500000000E-02 0.  1.
    8880023    1    1    2    0    0  0.20058520710E+03  0.36359144320E+03 -0.26271907287E+03  0.82174489982E+03  0.65864270000E+03 0.  1.
    8880022    1    1    2    0    0 -0.20058520710E+03 -0.36359144320E+03 -0.81003635740E+03  0.92302963994E+03  0.15294330000E+03 0.  0.
<mgrwt>
<rscale>  0 0.67604576E+03</rscale>
<asrwt>0</asrwt>
<pdfrwt beam="1">  1        2 0.51693778E-01 0.77861632E+03</pdfrwt>
<pdfrwt beam="2">  1       -2 0.21673307E+00 0.77861632E+03</pdfrwt>
<totfact> 0.10207830E+01</totfact>
</mgrwt>
</event>
<event>
 4    2  0.2930016E-007  0.1070666E+04  0.7818608E-02  0.9294441E-01
         -2   -1    0    0    0  501 -0.00000000000E+00  0.00000000000E+00  0.93644853763E+03  0.93644853763E+03  0.25500000000E-02 0.  1.
          2   -1    0    0  501    0  0.00000000000E+00 -0.00000000000E+00 -0.11596136978E+04  0.11596136978E+04  0.25500000000E-02 0. -1.
    8880023    1    1    2    0    0  0.77175848063E+02 -0.84057084594E+03 -0.51743349542E+03  0.11891438462E+04  0.65864270000E+03 0.  0.
    8880022    1    1    2    0    0 -0.77175848063E+02  0.84057084594E+03  0.29426833524E+03  0.90691838922E+03  0.15294330000E+03 0.  0.
<mgrwt>
<rscale>  0 0.10129625E+04</rscale>
<asrwt>0</asrwt>
<pdfrwt beam="1">  1        2 0.17840211E+00 0.10706660E+04</pdfrwt>
<pdfrwt beam="2">  1       -2 0.14406901E+00 0.10706660E+04</pdfrwt>
<totfact> 0.65742009E+00</totfact>
</mgrwt>
</event>
<event>
 4    2  0.2930016E-007  0.6920486E+03  0.7818608E-02  0.1003194E+00
          2   -1    0    0  501    0  0.00000000000E+00  0.00000000000E+00  0.63741163165E+03  0.63741163166E+03  0.25500000000E-02 0. -1.
         -2   -1    0    0    0  501 -0.00000000000E+00 -0.00000000000E+00 -0.56237513525E+03  0.56237513526E+03  0.25500000000E-02 0.  1.
    8880023    1    1    2    0    0  0.29290486179E+02  0.21038811796E+03  0.38672353991E+03  0.79277133863E+03  0.65864270000E+03 0. -1.
    8880022    1    1    2    0    0 -0.29290486179E+02 -0.21038811796E+03 -0.31168704351E+03  0.40701542829E+03  0.15294330000E+03 0.  0.
<mgrwt>
<rscale>  0 0.54271757E+03</rscale>
<asrwt>0</asrwt>
<pdfrwt beam="1">  1        2 0.98063328E-01 0.69204862E+03</pdfrwt>
<pdfrwt beam="2">  1       -2 0.86519252E-01 0.69204862E+03</pdfrwt>
<totfact> 0.54194535E+01</totfact>
</mgrwt>
</event>
<event>
 4    2  0.2930016E-007  0.9896291E+03  0.7818608E-02  0.9395253E-01
          2   -1    0    0  501    0  0.00000000000E+00  0.00000000000E+00  0.22653884066E+04  0.22653884066E+04  0.25500000000E-02 0. -1.
         -2   -1    0    0    0  501 -0.00000000000E+00 -0.00000000000E+00 -0.34213575740E+03  0.34213575741E+03  0.25500000000E-02 0.  1.
    8880023    1    1    2    0    0 -0.52045223726E+03 -0.52410410202E+03  0.12672320701E+04  0.16078690764E+04  0.65864270000E+03 0.  0.
    8880022    1    1    2    0    0  0.52045223726E+03  0.52410410202E+03  0.65602057914E+03  0.99965508767E+03  0.15294330000E+03 0.  0.
<mgrwt>
<rscale>  0 0.92467340E+03</rscale>
<asrwt>0</asrwt>
<pdfrwt beam="1">  1        2 0.34852129E+00 0.98962915E+03</pdfrwt>
<pdfrwt beam="2">  1       -2 0.52636271E-01 0.98962915E+03</pdfrwt>
<totfact> 0.16298473E+01</totfact>
</mgrwt>
</event>
<event>
 4    2  0.2930016E-007  0.6852670E+03  0.7818608E-02  0.1006489E+00
          2   -1    0    0  501    0  0.00000000000E+00  0.00000000000E+00  0.23051861192E+04  0.23051861192E+04  0.25500000000E-02 0. -1.
         -2   -1    0    0    0  501 -0.00000000000E+00 -0.00000000000E+00 -0.57971783409E+03  0.57971783409E+03  0.25500000000E-02 0.  1.
    8880023    1    1    2    0    0  0.14274473271E+03  0.12411511016E+03  0.22256235937E+04  0.23287316733E+04  0.65864270000E+03 0. -1.
    8880022    1    1    2    0    0 -0.14274473271E+03 -0.12411511016E+03 -0.50015530858E+03  0.55617227997E+03  0.15294330000E+03 0.  0.
<mgrwt>
<rscale>  0 0.52894392E+03</rscale>
<asrwt>0</asrwt>
<pdfrwt beam="1">  1        2 0.35464402E+00 0.68526697E+03</pdfrwt>
<pdfrwt beam="2">  1       -2 0.89187359E-01 0.68526697E+03</pdfrwt>
<totfact> 0.51341172E+00</totfact>
</mgrwt>
</event>
<event>
 4    2  0.2930016E-007  0.7840309E+03  0.7818608E-02  0.9746452E-01
         -2   -1    0    0    0  501 -0.00000000000E+00  0.00000000000E+00  0.13410952569E+04  0.13410952569E+04  0.25500000000E-02 0.  1.
          2   -1    0    0  501    0  0.00000000000E+00 -0.00000000000E+00 -0.35781097038E+03  0.35781097039E+03  0.25500000000E-02 0. -1.
    8880023    1    1    2    0    0 -0.11732552543E+03  0.40881412295E+03  0.22421194238E+03  0.81546027948E+03  0.65864270000E+03 0. -1.
    8880022    1    1    2    0    0  0.11732552543E+03 -0.40881412295E+03  0.75907234417E+03  0.88344594783E+03  0.15294330000E+03 0.  1.
<mgrwt>
<rscale>  0 0.68317143E+03</rscale>
<asrwt>0</asrwt>
<pdfrwt beam="1">  1        2 0.55047841E-01 0.78403091E+03</pdfrwt>
<pdfrwt beam="2">  1       -2 0.20632235E+00 0.78403091E+03</pdfrwt>
<totfact> 0.11075687E+01</totfact>
</mgrwt>
</event>
<event>
 4    2  0.2930016E-007  0.6737737E+03  0.7818608E-02  0.1013091E+00
          2   -1    0    0  501    0  0.00000000000E+00  0.00000000000E+00  0.13742793039E+04  0.13742793039E+04  0.25500000000E-02 0. -1.
         -2   -1    0    0    0  501 -0.00000000000E+00 -0.00000000000E+00 -0.41060769991E+03  0.41060769992E+03  0.25500000000E-02 0.  1.
    8880023    1    1    2    0    0  0.13780017213E+03  0.34233133400E+02  0.12562361072E+04  0.14255175053E+04  0.65864270000E+03 0. -1.
    8880022    1    1    2    0    0 -0.13780017213E+03 -0.34233133400E+02 -0.29256450320E+03  0.35936949844E+03  0.15294330000E+03 0.  0.
<mgrwt>
<rscale>  0 0.50264586E+03</rscale>
<asrwt>0</asrwt>
<pdfrwt beam="1">  1        2 0.21142758E+00 0.67377370E+03</pdfrwt>
<pdfrwt beam="2">  1       -2 0.63170417E-01 0.67377370E+03</pdfrwt>
<totfact> 0.35783067E+01</totfact>
</mgrwt>
</event>
<event>
 4    2  0.2930016E-007  0.6702926E+03  0.7818608E-02  0.1015454E+00
         -2   -1    0    0    0  501 -0.00000000000E+00  0.00000000000E+00  0.12330631174E+03  0.12330631176E+03  0.25500000000E-02 0.  1.
          2   -1    0    0  501    0  0.00000000000E+00 -0.00000000000E+00 -0.18107903538E+04  0.18107903538E+04  0.25500000000E-02 0. -1.
    8880023    1    1    2    0    0 -0.11630337003E+02  0.12388172752E+03 -0.15636686489E+04  0.17012794588E+04  0.65864270000E+03 0. -1.
    8880022    1    1    2    0    0  0.11630337003E+02 -0.12388172752E+03 -0.12381539313E+03  0.23281720672E+03  0.15294330000E+03 0. -1.
<mgrwt>
<rscale>  0 0.49363411E+03</rscale>
<asrwt>0</asrwt>
<pdfrwt beam="1">  1        2 0.27858311E+00 0.67029259E+03</pdfrwt>
<pdfrwt beam="2">  1       -2 0.18970203E-01 0.67029259E+03</pdfrwt>
<totfact> 0.20461978E+02</totfact>
</mgrwt>
</event>
<event>
 4    2  0.2930016E-007  0.7308545E+03  0.7818608E-02  0.9887436E-01
          2   -1    0    0  501    0  0.00000000000E+00  0.00000000000E+00  0.19801693743E+04  0.19801693743E+04  0.25500000000E-02 0. -1.
         -2   -1    0    0    0  501 -0.00000000000E+00 -0.00000000000E+00 -0.33178168752E+03  0.33178168753E+03  0.25500000000E-02 0.  1.
    8880023    1    1    2    0    0 -0.24556145233E+03 -0.20009425781E+03  0.17894668567E+04  0.19329614524E+04  0.65864270000E+03 0.  0.
    8880022    1    1    2    0    0  0.24556145233E+03  0.20009425781E+03 -0.14107916992E+03  0.37898960946E+03  0.15294330000E+03 0.  0.
<mgrwt>
<rscale>  0 0.60874092E+03</rscale>
<asrwt>0</asrwt>
<pdfrwt beam="1">  1        2 0.30464144E+00 0.73085453E+03</pdfrwt>
<pdfrwt beam="2">  1       -2 0.51043337E-01 0.73085453E+03</pdfrwt>
<totfact> 0.25740623E+01</totfact>
</mgrwt>
</event>
<event>
 4    2  0.2930016E-007  0.9410041E+03  0.7818608E-02  0.9463177E-01
         -2   -1    0    0    0  501 -0.00000000000E+00  0.00000000000E+00  0.23424206709E+04  0.23424206709E+04  0.25500000000E-02 0.  1.
          2   -1    0    0  501    0  0.00000000000E+00 -0.00000000000E+00 -0.33527699700E+03  0.33527699701E+03  0.25500000000E-02 0. -1.
    8880023    1    1    2    0    0  0.60015447112E+03  0.30247817613E+03  0.61465376450E+03  0.11239608057E+04  0.65864270000E+03 0. -1.
    8880022    1    1    2    0    0 -0.60015447112E+03 -0.30247817613E+03  0.13924899094E+04  0.15537368622E+04  0.15294330000E+03 0.  0.
<mgrwt>
<rscale>  0 0.87053920E+03</rscale>
<asrwt>0</asrwt>
<pdfrwt beam="1">  1        2 0.51581077E-01 0.94100406E+03</pdfrwt>
<pdfrwt beam="2">  1       -2 0.36037241E+00 0.94100406E+03</pdfrwt>
<totfact> 0.13302371E+00</totfact>
</mgrwt>
</event>
<event>
 4    2  0.2930016E-007  0.6876531E+03  0.7818608E-02  0.1005289E+00
         -2   -1    0    0    0  501 -0.00000000000E+00  0.00000000000E+00  0.44869409582E+03  0.44869409583E+03  0.25500000000E-02 0.  1.
          2   -1    0    0  501    0  0.00000000000E+00 -0.00000000000E+00 -0.19162338883E+04  0.19162338883E+04  0.25500000000E-02 0. -1.
    8880023    1    1    2    0    0 -0.19515618046E+03  0.31155044300E+02 -0.18127300209E+04  0.19387771678E+04  0.65864270000E+03 0. -1.
    8880022    1    1    2    0    0  0.19515618046E+03 -0.31155044300E+02  0.34519022834E+03  0.42615081639E+03  0.15294330000E+03 0.  0.
<mgrwt>
<rscale>  0 0.53390878E+03</rscale>
<asrwt>0</asrwt>
<pdfrwt beam="1">  1        2 0.29480521E+00 0.68765309E+03</pdfrwt>
<pdfrwt beam="2">  1       -2 0.69029862E-01 0.68765309E+03</pdfrwt>
<totfact> 0.14858632E+01</totfact>
</mgrwt>
</event>
<event>
 4    2  0.2930016E-007  0.6775254E+03  0.7818608E-02  0.1010759E+00
         -2   -1    0    0    0  501 -0.00000000000E+00  0.00000000000E+00  0.22304790637E+03  0.22304790638E+03  0.25500000000E-02 0.  1.
          2   -1    0    0  501    0  0.00000000000E+00 -0.00000000000E+00 -0.31692924063E+04  0.31692924063E+04  0.25500000000E-02 0. -1.
    8880023    1    1    2    0    0 -0.11114309857E+03 -0.11348011100E+03 -0.30669945345E+04  0.31409387458E+04  0.65864270000E+03 0. -1.
    8880022    1    1    2    0    0  0.11114309857E+03  0.11348011100E+03  0.12075003459E+03  0.25140156687E+03  0.15294330000E+03 0.  0.
<mgrwt>
<rscale>  0 0.51173899E+03</rscale>
<asrwt>0</asrwt>
<pdfrwt beam="1">  1        2 0.48758341E+00 0.67752545E+03</pdfrwt>
<pdfrwt beam="2">  1       -2 0.34315065E-01 0.67752545E+03</pdfrwt>
<totfact> 0.11693839E+01</totfact>
</mgrwt>
</event>
<event>
 4    2  0.2930016E-007  0.7492460E+03  0.7818608E-02  0.9833789E-01
         -2   -1    0    0    0  501 -0.00000000000E+00  0.00000000000E+00  0.66247807886E+03  0.66247807887E+03  0.25500000000E-02 0.  1.
          2   -1    0    0  501    0  0.00000000000E+00 -0.00000000000E+00 -0.12971114566E+04  0.12971114566E+04  0.25500000000E-02 0. -1.
    8880023    1    1    2    0    0  0.24320155777E+03 -0.26155748279E+03 -0.11140145880E+04  0.13425341795E+04  0.65864270000E+03 0. -1.
    8880022    1    1    2    0    0 -0.24320155777E+03  0.26155748279E+03  0.47938121031E+03  0.61705535596E+03  0.15294330000E+03 0.  0.
<mgrwt>
<rscale>  0 0.63580333E+03</rscale>
<asrwt>0</asrwt>
<pdfrwt beam="1">  1        2 0.19955561E+00 0.74924597E+03</pdfrwt>
<pdfrwt beam="2">  1       -2 0.10191970E+00 0.74924597E+03</pdfrwt>
<totfact> 0.13376761E+01</totfact>
</mgrwt>
</event>
<event>
 4    2  0.2930016E-007  0.7252038E+03  0.7818608E-02  0.9905356E-01
          2   -1    0    0  501    0  0.00000000000E+00  0.00000000000E+00  0.97416128164E+03  0.97416128164E+03  0.25500000000E-02 0. -1.
         -2   -1    0    0    0  501 -0.00000000000E+00 -0.00000000000E+00 -0.85972017298E+03  0.85972017299E+03  0.25500000000E-02 0.  1.
    8880023    1    1    2    0    0  0.22946431366E+03 -0.19863665128E+03  0.79322639234E+03  0.10747691409E+04  0.65864270000E+03 0. -1.
    8880022    1    1    2    0    0 -0.22946431366E+03  0.19863665128E+03 -0.67878528369E+03  0.75911231372E+03  0.15294330000E+03 0.  0.
<mgrwt>
<rscale>  0 0.60002421E+03</rscale>
<asrwt>0</asrwt>
<pdfrwt beam="1">  1        2 0.14987097E+00 0.72520383E+03</pdfrwt>
<pdfrwt beam="2">  1       -2 0.13226464E+00 0.72520383E+03</pdfrwt>
<totfact> 0.11099480E+01</totfact>
</mgrwt>
</event>
<event>
 4    2  0.2930016E-007  0.7669325E+03  0.7818608E-02  0.9787480E-01
          2   -1    0    0  501    0  0.00000000000E+00  0.00000000000E+00  0.13082594409E+04  0.13082594409E+04  0.25500000000E-02 0. -1.
         -2   -1    0    0    0  501 -0.00000000000E+00 -0.00000000000E+00 -0.83645152172E+03  0.83645152173E+03  0.25500000000E-02 0.  1.
    8880023    1    1    2    0    0  0.36606366429E+03  0.14273269218E+03  0.11284273190E+04  0.13643803166E+04  0.65864270000E+03 0. -1.
    8880022    1    1    2    0    0 -0.36606366429E+03 -0.14273269218E+03 -0.65661939990E+03  0.78033064599E+03  0.15294330000E+03 0.  0.
<mgrwt>
<rscale>  0 0.66038805E+03</rscale>
<asrwt>0</asrwt>
<pdfrwt beam="1">  1        2 0.20127068E+00 0.76693248E+03</pdfrwt>
<pdfrwt beam="2">  1       -2 0.12868485E+00 0.76693248E+03</pdfrwt>
<totfact> 0.74281864E+00</totfact>
</mgrwt>
</event>
<event>
 4    2  0.2930016E-007  0.9689535E+03  0.7818608E-02  0.9423353E-01
         -2   -1    0    0    0  501 -0.00000000000E+00  0.00000000000E+00  0.92783931424E+03  0.92783931425E+03  0.25500000000E-02 0.  1.
          2   -1    0    0  501    0  0.00000000000E+00 -0.00000000000E+00 -0.10889085028E+04  0.10889085028E+04  0.25500000000E-02 0. -1.
    8880023    1    1    2    0    0  0.42781443211E+03  0.56748166190E+03  0.44881211922E+03  0.10678497785E+04  0.65864270000E+03 0.  0.
    8880022    1    1    2    0    0 -0.42781443211E+03 -0.56748166190E+03 -0.60988130781E+03  0.94889803854E+03  0.15294330000E+03 0.  0.
<mgrwt>
<rscale>  0 0.90178481E+03</rscale>
<asrwt>0</asrwt>
<pdfrwt beam="1">  1        2 0.16752439E+00 0.96895347E+03</pdfrwt>
<pdfrwt beam="2">  1       -2 0.14274451E+00 0.96895347E+03</pdfrwt>
<totfact> 0.75149351E+00</totfact>
</mgrwt>
</event>
<event>
 4    2  0.2930016E-007  0.6596192E+03  0.7818608E-02  0.1024550E+00
          2   -1    0    0  501    0  0.00000000000E+00  0.00000000000E+00  0.21082146537E+04  0.21082146537E+04  0.25500000000E-02 0. -1.
         -2   -1    0    0    0  501 -0.00000000000E+00 -0.00000000000E+00 -0.44143066218E+03  0.44143066219E+03  0.25500000000E-02 0.  1.
    8880023    1    1    2    0    0  0.32083504295E+02  0.16058202232E+02  0.20403861626E+04  0.21443584392E+04  0.65864270000E+03 0. -1.
    8880022    1    1    2    0    0 -0.32083504295E+02 -0.16058202232E+02 -0.37360217110E+03  0.40528687664E+03  0.15294330000E+03 0.  0.
<mgrwt>
<rscale>  0 0.46079802E+03</rscale>
<asrwt>0</asrwt>
<pdfrwt beam="1">  1        2 0.32434071E+00 0.65961915E+03</pdfrwt>
<pdfrwt beam="2">  1       -2 0.67912410E-01 0.65961915E+03</pdfrwt>
<totfact> 0.12158056E+01</totfact>
</mgrwt>
</event>
<event>
 4    2  0.2930016E-007  0.7268073E+03  0.7818608E-02  0.9900191E-01
         -2   -1    0    0    0  501 -0.00000000000E+00  0.00000000000E+00  0.59949201658E+03  0.59949201658E+03  0.25500000000E-02 0.  1.
          2   -1    0    0  501    0  0.00000000000E+00 -0.00000000000E+00 -0.78465471613E+03  0.78465471614E+03  0.25500000000E-02 0. -1.
    8880023    1    1    2    0    0 -0.10655248176E+03  0.28824494659E+03 -0.52850172452E+03  0.89864501317E+03  0.65864270000E+03 0. -1.
    8880022    1    1    2    0    0  0.10655248176E+03 -0.28824494659E+03  0.34333902497E+03  0.48550171955E+03  0.15294330000E+03 0.  0.
<mgrwt>
<rscale>  0 0.60252009E+03</rscale>
<asrwt>0</asrwt>
<pdfrwt beam="1">  1        2 0.12071611E+00 0.72680726E+03</pdfrwt>
<pdfrwt beam="2">  1       -2 0.92229540E-01 0.72680726E+03</pdfrwt>
<totfact> 0.35854656E+01</totfact>
</mgrwt>
</event>
<event>
 4    2  0.2930016E-007  0.7533912E+03  0.7818608E-02  0.9822527E-01
          2   -1    0    0  501    0  0.00000000000E+00  0.00000000000E+00  0.88068875806E+03  0.88068875806E+03  0.25500000000E-02 0. -1.
         -2   -1    0    0    0  501 -0.00000000000E+00 -0.00000000000E+00 -0.50554102798E+03  0.50554102799E+03  0.25500000000E-02 0.  1.
    8880023    1    1    2    0    0  0.36481658204E+03  0.26400313898E+02  0.56976424554E+03  0.94457906861E+03  0.65864270000E+03 0. -1.
    8880022    1    1    2    0    0 -0.36481658204E+03 -0.26400313898E+02 -0.19461651546E+03  0.44165071743E+03  0.15294330000E+03 0.  0.
<mgrwt>
<rscale>  0 0.64167481E+03</rscale>
<asrwt>0</asrwt>
<pdfrwt beam="1">  1        2 0.13549058E+00 0.75339121E+03</pdfrwt>
<pdfrwt beam="2">  1       -2 0.77775543E-01 0.75339121E+03</pdfrwt>
<totfact> 0.45138786E+01</totfact>
</mgrwt>
</event>
<event>
 4    2  0.2930016E-007  0.6889423E+03  0.7818608E-02  0.1004659E+00
         -2   -1    0    0    0  501 -0.00000000000E+00  0.00000000000E+00  0.19133457518E+04  0.19133457518E+04  0.25500000000E-02 0.  1.
          2   -1    0    0  501    0  0.00000000000E+00 -0.00000000000E+00 -0.15573633937E+03  0.15573633939E+03  0.25500000000E-02 0. -1.
    8880023    1    1    2    0    0 -0.73122692183E+02 -0.18837287456E+03  0.16603972266E+04  0.17976541448E+04  0.65864270000E+03 0.  1.
    8880022    1    1    2    0    0  0.73122692183E+02  0.18837287456E+03  0.97212185802E+02  0.27142794636E+03  0.15294330000E+03 0.  0.
<mgrwt>
<rscale>  0 0.53653541E+03</rscale>
<asrwt>0</asrwt>
<pdfrwt beam="1">  1        2 0.23959438E-01 0.68894229E+03</pdfrwt>
<pdfrwt beam="2">  1       -2 0.29436087E+00 0.68894229E+03</pdfrwt>
<totfact> 0.82729928E+00</totfact>
</mgrwt>
</event>
<event>
 4    2  0.2930016E-007  0.7875641E+03  0.7818608E-02  0.9738360E-01
          2   -1    0    0  501    0  0.00000000000E+00  0.00000000000E+00  0.21002929187E+04  0.21002929187E+04  0.25500000000E-02 0. -1.
         -2   -1    0    0    0  501 -0.00000000000E+00 -0.00000000000E+00 -0.19149924637E+03  0.19149924639E+03  0.25500000000E-02 0.  1.
    8880023    1    1    2    0    0 -0.31560055297E+03 -0.29469181936E+03  0.14064923955E+04  0.16119795415E+04  0.65864270000E+03 0.  1.
    8880022    1    1    2    0    0  0.31560055297E+03  0.29469181936E+03  0.50230127682E+03  0.67981262355E+03  0.15294330000E+03 0.  0.
<mgrwt>
<rscale>  0 0.68778089E+03</rscale>
<asrwt>0</asrwt>
<pdfrwt beam="1">  1        2 0.32312199E+00 0.78756408E+03</pdfrwt>
<pdfrwt beam="2">  1       -2 0.29461422E-01 0.78756408E+03</pdfrwt>
<totfact> 0.63902096E+01</totfact>
</mgrwt>
</event>
<event>
 4    2  0.2930016E-007  0.7050262E+03  0.7818608E-02  0.9976956E-01
          2   -1    0    0  501    0  0.00000000000E+00  0.00000000000E+00  0.19773125235E+04  0.19773125235E+04  0.25500000000E-02 0. -1.
         -2   -1    0    0    0  501 -0.00000000000E+00 -0.00000000000E+00 -0.15702865618E+03  0.15702865621E+03  0.25500000000E-02 0.  1.
    8880023    1    1    2    0    0  0.15737899102E+03  0.19617241456E+03  0.16499249087E+04  0.17942447363E+04  0.65864270000E+03 0. -1.
    8880022    1    1    2    0    0 -0.15737899102E+03 -0.19617241456E+03  0.17035895865E+03  0.34009644346E+03  0.15294330000E+03 0.  0.
<mgrwt>
<rscale>  0 0.56672308E+03</rscale>
<asrwt>0</asrwt>
<pdfrwt beam="1">  1        2 0.30420192E+00 0.70502622E+03</pdfrwt>
<pdfrwt beam="2">  1       -2 0.24158256E-01 0.70502622E+03</pdfrwt>
<totfact> 0.10807557E+02</totfact>
</mgrwt>
</event>
<event>
 4    2  0.2930016E-007  0.8547236E+03  0.7818608E-02  0.9603019E-01
          2   -1    0    0  501    0  0.00000000000E+00  0.00000000000E+00  0.89965694696E+03  0.89965694697E+03  0.25500000000E-02 0. -1.
         -2   -1    0    0    0  501 -0.00000000000E+00 -0.00000000000E+00 -0.12963403650E+04  0.12963403650E+04  0.25500000000E-02 0.  1.
    8880023    1    1    2    0    0 -0.54367602643E+03  0.34038156632E+02  0.60388474594E+03  0.10465319921E+04  0.65864270000E+03 0. -1.
    8880022    1    1    2    0    0  0.54367602643E+03 -0.34038156632E+02 -0.10005681640E+04  0.11494653199E+04  0.15294330000E+03 0.  0.
<mgrwt>
<rscale>  0 0.77096688E+03</rscale>
<asrwt>0</asrwt>
<pdfrwt beam="1">  1        2 0.13840876E+00 0.85472360E+03</pdfrwt>
<pdfrwt beam="2">  1       -2 0.19943698E+00 0.85472360E+03</pdfrwt>
<totfact> 0.39701148E+00</totfact>
</mgrwt>
</event>
<event>
 4    2  0.2930016E-007  0.6928955E+03  0.7818608E-02  0.1002806E+00
         -2   -1    0    0    0  501 -0.00000000000E+00  0.00000000000E+00  0.38785657807E+03  0.38785657808E+03  0.25500000000E-02 0.  1.
          2   -1    0    0  501    0  0.00000000000E+00 -0.00000000000E+00 -0.15920662104E+04  0.15920662104E+04  0.25500000000E-02 0. -1.
    8880023    1    1    2    0    0  0.19068569422E+03  0.99664298989E+02 -0.14576632067E+04  0.16139659962E+04  0.65864270000E+03 0. -1.
    8880022    1    1    2    0    0 -0.19068569422E+03 -0.99664298989E+02  0.25345357434E+03  0.36595679230E+03  0.15294330000E+03 0.  0.
<mgrwt>
<rscale>  0 0.54436945E+03</rscale>
<asrwt>0</asrwt>
<pdfrwt beam="1">  1        2 0.24493326E+00 0.69289553E+03</pdfrwt>
<pdfrwt beam="2">  1       -2 0.59670244E-01 0.69289553E+03</pdfrwt>
<totfact> 0.30466747E+01</totfact>
</mgrwt>
</event>
<event>
 4    2  0.2930016E-007  0.7016773E+03  0.7818608E-02  0.9990313E-01
         -2   -1    0    0    0  501 -0.00000000000E+00  0.00000000000E+00  0.58564837196E+03  0.58564837197E+03  0.25500000000E-02 0.  1.
          2   -1    0    0  501    0  0.00000000000E+00 -0.00000000000E+00 -0.17830177332E+04  0.17830177332E+04  0.25500000000E-02 0. -1.
    8880023    1    1    2    0    0  0.20065985026E+03 -0.13519023357E+03 -0.16726395161E+04  0.18138560946E+04  0.65864270000E+03 0. -1.
    8880022    1    1    2    0    0 -0.20065985026E+03  0.13519023357E+03  0.47527015485E+03  0.55481001060E+03  0.15294330000E+03 0.  0.
<mgrwt>
<rscale>  0 0.56077033E+03</rscale>
<asrwt>0</asrwt>
<pdfrwt beam="1">  1        2 0.27431042E+00 0.70167726E+03</pdfrwt>
<pdfrwt beam="2">  1       -2 0.90099750E-01 0.70167726E+03</pdfrwt>
<totfact> 0.96482078E+00</totfact>
</mgrwt>
</event>
<event>
 4    2  0.2930016E-007  0.6738456E+03  0.7818608E-02  0.1013044E+00
          2   -1    0    0  501    0  0.00000000000E+00  0.00000000000E+00  0.19835505367E+03  0.19835505369E+03  0.25500000000E-02 0. -1.
         -2   -1    0    0    0  501 -0.00000000000E+00 -0.00000000000E+00 -0.14966943209E+04  0.14966943209E+04  0.25500000000E-02 0.  1.
    8880023    1    1    2    0    0  0.12192982108E+03  0.73422404621E+02 -0.42410892017E+03  0.79620117634E+03  0.65864270000E+03 0.  0.
    8880022    1    1    2    0    0 -0.12192982108E+03 -0.73422404621E+02 -0.87423034706E+03  0.89884819825E+03  0.15294330000E+03 0.  0.
<mgrwt>
<rscale>  0 0.50282583E+03</rscale>
<asrwt>0</asrwt>
<pdfrwt beam="1">  1        2 0.30516163E-01 0.67384563E+03</pdfrwt>
<pdfrwt beam="2">  1       -2 0.23026066E+00 0.67384563E+03</pdfrwt>
<totfact> 0.15305971E+01</totfact>
</mgrwt>
</event>
<event>
 4    2  0.2930016E-007  0.6909500E+03  0.7818608E-02  0.1003704E+00
          2   -1    0    0  501    0  0.00000000000E+00  0.00000000000E+00  0.23458827532E+04  0.23458827532E+04  0.25500000000E-02 0. -1.
         -2   -1    0    0    0  501 -0.00000000000E+00 -0.00000000000E+00 -0.47573090996E+03  0.47573090996E+03  0.25500000000E-02 0.  1.
    8880023    1    1    2    0    0 -0.76695444162E+02  0.19421500417E+03  0.22546312504E+04  0.23581293307E+04  0.65864270000E+03 0. -1.
    8880022    1    1    2    0    0  0.76695444162E+02 -0.19421500417E+03 -0.38447940707E+03  0.46348433250E+03  0.15294330000E+03 0.  0.
<mgrwt>
<rscale>  0 0.54055375E+03</rscale>
<asrwt>0</asrwt>
<pdfrwt beam="1">  1        2 0.36090503E+00 0.69094997E+03</pdfrwt>
<pdfrwt beam="2">  1       -2 0.73189372E-01 0.69094997E+03</pdfrwt>
<totfact> 0.75963536E+00</totfact>
</mgrwt>
</event>
<event>
 4    2  0.2930016E-007  0.7153109E+03  0.7818608E-02  0.9938784E-01
         -2   -1    0    0    0  501 -0.00000000000E+00  0.00000000000E+00  0.58281772765E+03  0.58281772766E+03  0.25500000000E-02 0.  1.
          2   -1    0    0  501    0  0.00000000000E+00 -0.00000000000E+00 -0.59020007232E+03  0.59020007233E+03  0.25500000000E-02 0. -1.
    8880023    1    1    2    0    0 -0.26111703615E+02 -0.27780854728E+03 -0.26580388769E+03  0.76309981194E+03  0.65864270000E+03 0. -1.
    8880022    1    1    2    0    0  0.26111703615E+02  0.27780854728E+03  0.25842154302E+03  0.40991798804E+03  0.15294330000E+03 0.  0.
<mgrwt>
<rscale>  0 0.58417916E+03</rscale>
<asrwt>0</asrwt>
<pdfrwt beam="1">  1        2 0.90800011E-01 0.71531085E+03</pdfrwt>
<pdfrwt beam="2">  1       -2 0.89664266E-01 0.71531085E+03</pdfrwt>
<totfact> 0.54720432E+01</totfact>
</mgrwt>
</event>
<event>
 4    2  0.2930016E-007  0.1021952E+04  0.7818608E-02  0.9353385E-01
         -2   -1    0    0    0  501 -0.00000000000E+00  0.00000000000E+00  0.67207215459E+03  0.67207215460E+03  0.25500000000E-02 0.  1.
          2   -1    0    0  501    0  0.00000000000E+00 -0.00000000000E+00 -0.22757948946E+04  0.22757948946E+04  0.25500000000E-02 0. -1.
    8880023    1    1    2    0    0 -0.47400871350E+03  0.62120194612E+03 -0.18507916600E+04  0.21141939583E+04  0.65864270000E+03 0. -1.
    8880022    1    1    2    0    0  0.47400871350E+03 -0.62120194612E+03  0.24706891995E+03  0.83367309094E+03  0.15294330000E+03 0.  0.
<mgrwt>
<rscale>  0 0.96013287E+03</rscale>
<asrwt>0</asrwt>
<pdfrwt beam="1">  1        2 0.35012229E+00 0.10219522E+04</pdfrwt>
<pdfrwt beam="2">  1       -2 0.10339572E+00 0.10219522E+04</pdfrwt>
<totfact> 0.35741866E+00</totfact>
</mgrwt>
</event>
<event>
 4    2  0.2930016E-007  0.6939376E+03  0.7818608E-02  0.1002334E+00
         -2   -1    0    0    0  501 -0.00000000000E+00  0.00000000000E+00  0.17609094986E+04  0.17609094986E+04  0.25500000000E-02 0.  1.
          2   -1    0    0  501    0  0.00000000000E+00 -0.00000000000E+00 -0.27213953535E+03  0.27213953536E+03  0.25500000000E-02 0. -1.
    8880023    1    1    2    0    0  0.89933365929E+01  0.21830779369E+03  0.20747281872E+03  0.72428885789E+03  0.65864270000E+03 0. -1.
    8880022    1    1    2    0    0 -0.89933365929E+01 -0.21830779369E+03  0.12812971445E+04  0.13087601760E+04  0.15294330000E+03 0.  0.
<mgrwt>
<rscale>  0 0.54638346E+03</rscale>
<asrwt>0</asrwt>
<pdfrwt beam="1">  1        2 0.41867620E-01 0.69393759E+03</pdfrwt>
<pdfrwt beam="2">  1       -2 0.27090916E+00 0.69393759E+03</pdfrwt>
<totfact> 0.60860390E+00</totfact>
</mgrwt>
</event>
<event>
 4    2  0.2930016E-007  0.8227512E+03  0.7818608E-02  0.9663604E-01
          2   -1    0    0  501    0  0.00000000000E+00  0.00000000000E+00  0.18305777630E+04  0.18305777630E+04  0.25500000000E-02 0. -1.
         -2   -1    0    0    0  501 -0.00000000000E+00 -0.00000000000E+00 -0.28894809768E+03  0.28894809770E+03  0.25500000000E-02 0.  1.
    8880023    1    1    2    0    0  0.17620731948E+03 -0.46050005487E+03  0.13250357649E+04  0.15596920544E+04  0.65864270000E+03 0. -1.
    8880022    1    1    2    0    0 -0.17620731948E+03  0.46050005487E+03  0.21659390040E+03  0.55983380630E+03  0.15294330000E+03 0.  0.
<mgrwt>
<rscale>  0 0.73225735E+03</rscale>
<asrwt>0</asrwt>
<pdfrwt beam="1">  1        2 0.28162734E+00 0.82275119E+03</pdfrwt>
<pdfrwt beam="2">  1       -2 0.44453555E-01 0.82275119E+03</pdfrwt>
<totfact> 0.40598369E+01</totfact>
</mgrwt>
</event>
<event>
 4    2  0.2930016E-007  0.7208019E+03  0.7818608E-02  0.9919882E-01
          2   -1    0    0  501    0  0.00000000000E+00  0.00000000000E+00  0.79709848751E+03  0.79709848751E+03  0.25500000000E-02 0. -1.
         -2   -1    0    0    0  501 -0.00000000000E+00 -0.00000000000E+00 -0.16177429108E+04  0.16177429108E+04  0.25500000000E-02 0.  1.
    8880023    1    1    2    0    0  0.29280720590E+03  0.30117203007E+01  0.61140346503E+03  0.94518227533E+03  0.65864270000E+03 0. -1.
    8880022    1    1    2    0    0 -0.29280720590E+03 -0.30117203007E+01 -0.14320478883E+04  0.14696591230E+04  0.15294330000E+03 0.  0.
<mgrwt>
<rscale>  0 0.59307323E+03</rscale>
<asrwt>0</asrwt>
<pdfrwt beam="1">  1        2 0.12263054E+00 0.72080187E+03</pdfrwt>
<pdfrwt beam="2">  1       -2 0.24888352E+00 0.72080187E+03</pdfrwt>
<totfact> 0.23416728E+00</totfact>
</mgrwt>
</event>
<event>
 4    2  0.3090411E-007  0.8478306E+03  0.7818608E-02  0.9615588E-01
          2   -1    0    0  501    0  0.00000000000E+00  0.00000000000E+00  0.26121315526E+04  0.26121315526E+04  0.25500000000E-02 0. -1.
         -2   -1    0    0    0  501 -0.00000000000E+00 -0.00000000000E+00 -0.57316096071E+03  0.57316096071E+03  0.25500000000E-02 0.  1.
    8880023    1    1    2    0    0  0.42743664618E+03 -0.31985065584E+03  0.23848362464E+04  0.25310591967E+04  0.65864270000E+03 0. -1.
    8880022    1    1    2    0    0 -0.42743664618E+03  0.31985065584E+03 -0.34586565456E+03  0.65423331661E+03  0.15294330000E+03 0.  0.
<mgrwt>
<rscale>  0 0.76272994E+03</rscale>
<asrwt>0</asrwt>
<pdfrwt beam="1">  1        2 0.40186639E+00 0.84783061E+03</pdfrwt>
<pdfrwt beam="2">  1       -2 0.88178609E-01 0.84783061E+03</pdfrwt>
<totfact> 0.34341225E+00</totfact>
</mgrwt>
</event>
<event>
 4    2  0.2930016E-007  0.6675887E+03  0.7818608E-02  0.1017454E+00
         -2   -1    0    0    0  501 -0.00000000000E+00  0.00000000000E+00  0.53982309519E+03  0.53982309519E+03  0.25500000000E-02 0.  1.
          2   -1    0    0  501    0  0.00000000000E+00 -0.00000000000E+00 -0.13461113657E+04  0.13461113657E+04  0.25500000000E-02 0. -1.
    8880023    1    1    2    0    0 -0.49858804890E+02 -0.96843264586E+02 -0.12427987748E+04  0.14107528201E+04  0.65864270000E+03 0. -1.
    8880022    1    1    2    0    0  0.49858804890E+02  0.96843264586E+02  0.43651050436E+03  0.47518164080E+03  0.15294330000E+03 0.  0.
<mgrwt>
<rscale>  0 0.48616775E+03</rscale>
<asrwt>0</asrwt>
<pdfrwt beam="1">  1        2 0.20709406E+00 0.66758874E+03</pdfrwt>
<pdfrwt beam="2">  1       -2 0.83049707E-01 0.66758874E+03</pdfrwt>
<totfact> 0.20370054E+01</totfact>
</mgrwt>
</event>
<event>
 4    2  0.2930016E-007  0.7904182E+03  0.7818608E-02  0.9731910E-01
         -2   -1    0    0    0  501 -0.00000000000E+00  0.00000000000E+00  0.41339899300E+03  0.41339899301E+03  0.25500000000E-02 0.  1.
          2   -1    0    0  501    0  0.00000000000E+00 -0.00000000000E+00 -0.21766181361E+04  0.21766181361E+04  0.25500000000E-02 0. -1.
    8880023    1    1    2    0    0 -0.14708508090E+03  0.41148119272E+03 -0.19396891095E+04  0.20945536138E+04  0.65864270000E+03 0. -1.
    8880022    1    1    2    0    0  0.14708508090E+03 -0.41148119272E+03  0.17646996643E+03  0.49546351536E+03  0.15294330000E+03 0.  0.
<mgrwt>
<rscale>  0 0.69148257E+03</rscale>
<asrwt>0</asrwt>
<pdfrwt beam="1">  1        2 0.33486432E+00 0.79041824E+03</pdfrwt>
<pdfrwt beam="2">  1       -2 0.63599846E-01 0.79041824E+03</pdfrwt>
<totfact> 0.12580164E+01</totfact>
</mgrwt>
</event>
<event>
 4    2  0.2930016E-007  0.7266236E+03  0.7818608E-02  0.9900780E-01
         -2   -1    0    0    0  501 -0.00000000000E+00  0.00000000000E+00  0.28636939025E+04  0.28636939025E+04  0.25500000000E-02 0.  1.
          2   -1    0    0  501    0  0.00000000000E+00 -0.00000000000E+00 -0.15583442069E+03  0.15583442071E+03  0.25500000000E-02 0. -1.
    8880023    1    1    2    0    0 -0.11670945629E+03  0.28381422722E+03  0.79848007098E+03  0.10796074485E+04  0.65864270000E+03 0.  0.
    8880022    1    1    2    0    0  0.11670945629E+03 -0.28381422722E+03  0.19093794108E+04  0.19399208748E+04  0.15294330000E+03 0.  0.
<mgrwt>
<rscale>  0 0.60223511E+03</rscale>
<asrwt>0</asrwt>
<pdfrwt beam="1">  1        2 0.23974526E-01 0.72662357E+03</pdfrwt>
<pdfrwt beam="2">  1       -2 0.44056829E+00 0.72662357E+03</pdfrwt>
<totfact> 0.98433840E-01</totfact>
</mgrwt>
</event>
<event>
 4    2  0.2930016E-007  0.8256934E+03  0.7818608E-02  0.9657771E-01
          2   -1    0    0  501    0  0.00000000000E+00  0.00000000000E+00  0.95164143846E+03  0.95164143846E+03  0.25500000000E-02 0. -1.
         -2   -1    0    0    0  501 -0.00000000000E+00 -0.00000000000E+00 -0.62737833354E+03  0.62737833355E+03  0.25500000000E-02 0.  1.
    8880023    1    1    2    0    0 -0.49769758530E+03 -0.16015326320E+02  0.56972227555E+03  0.10031714981E+04  0.65864270000E+03 0.  0.
    8880022    1    1    2    0    0  0.49769758530E+03  0.16015326320E+02 -0.24545917063E+03  0.57584827390E+03  0.15294330000E+03 0.  0.
<mgrwt>
<rscale>  0 0.73587753E+03</rscale>
<asrwt>0</asrwt>
<pdfrwt beam="1">  1        2 0.14640638E+00 0.82569340E+03</pdfrwt>
<pdfrwt beam="2">  1       -2 0.96519743E-01 0.82569340E+03</pdfrwt>
<totfact> 0.24528286E+01</totfact>
</mgrwt>
</event>
<event>
 4    2  0.2930016E-007  0.6628917E+03  0.7818608E-02  0.1021372E+00
         -2   -1    0    0    0  501 -0.00000000000E+00  0.00000000000E+00  0.69082165306E+03  0.69082165306E+03  0.25500000000E-02 0.  1.
          2   -1    0    0  501    0  0.00000000000E+00 -0.00000000000E+00 -0.13331911236E+04  0.13331911236E+04  0.25500000000E-02 0. -1.
    8880023    1    1    2    0    0 -0.74523683923E+02  0.78347356624E+01 -0.12381123418E+04  0.14044029122E+04  0.65864270000E+03 0. -1.
    8880022    1    1    2    0    0  0.74523683923E+02 -0.78347356624E+01  0.59574287124E+03  0.61960986451E+03  0.15294330000E+03 0.  0.
<mgrwt>
<rscale>  0 0.47194830E+03</rscale>
<asrwt>0</asrwt>
<pdfrwt beam="1">  1        2 0.20510633E+00 0.66289167E+03</pdfrwt>
<pdfrwt beam="2">  1       -2 0.10628025E+00 0.66289167E+03</pdfrwt>
<totfact> 0.11671431E+01</totfact>
</mgrwt>
</event>
<event>
 4    2  0.2930016E-007  0.9709241E+03  0.7818608E-02  0.9420627E-01
          2   -1    0    0  501    0  0.00000000000E+00  0.00000000000E+00  0.97861995574E+03  0.97861995574E+03  0.25500000000E-02 0. -1.
         -2   -1    0    0    0  501 -0.00000000000E+00 -0.00000000000E+00 -0.14634386584E+04  0.14634386584E+04  0.25500000000E-02 0.  1.
    8880023    1    1    2    0    0 -0.66643298046E+03  0.25446133918E+03  0.59510431746E+03  0.11387900797E+04  0.65864270000E+03 0. -1.
    8880022    1    1    2    0    0  0.66643298046E+03 -0.25446133918E+03 -0.10799230201E+04  0.13032685345E+04  0.15294330000E+03 0.  0.
<mgrwt>
<rscale>  0 0.90397412E+03</rscale>
<asrwt>0</asrwt>
<pdfrwt beam="1">  1        2 0.15055692E+00 0.97092415E+03</pdfrwt>
<pdfrwt beam="2">  1       -2 0.22514441E+00 0.97092415E+03</pdfrwt>
<totfact> 0.23791126E+00</totfact>
</mgrwt>
</event>
<event>
 4    2  0.2930016E-007  0.6846989E+03  0.7818608E-02  0.1006781E+00
         -2   -1    0    0    0  501 -0.00000000000E+00  0.00000000000E+00  0.63972865169E+03  0.63972865169E+03  0.25500000000E-02 0.  1.
          2   -1    0    0  501    0  0.00000000000E+00 -0.00000000000E+00 -0.14465245942E+04  0.14465245942E+04  0.25500000000E-02 0. -1.
    8880023    1    1    2    0    0 -0.18123264836E+03  0.46444583609E+02 -0.13378067890E+04  0.15028438319E+04  0.65864270000E+03 0. -1.
    8880022    1    1    2    0    0  0.18123264836E+03 -0.46444583609E+02  0.53101084650E+03  0.58340941396E+03  0.15294330000E+03 0.  0.
<mgrwt>
<rscale>  0 0.52774092E+03</rscale>
<asrwt>0</asrwt>
<pdfrwt beam="1">  1        2 0.22254224E+00 0.68469890E+03</pdfrwt>
<pdfrwt beam="2">  1       -2 0.98419793E-01 0.68469890E+03</pdfrwt>
<totfact> 0.12057135E+01</totfact>
</mgrwt>
</event>
<event>
 4    2  0.2930016E-007  0.6617606E+03  0.7818608E-02  0.1022421E+00
          2   -1    0    0  501    0  0.00000000000E+00  0.00000000000E+00  0.21929249934E+04  0.21929249934E+04  0.25500000000E-02 0. -1.
         -2   -1    0    0    0  501 -0.00000000000E+00 -0.00000000000E+00 -0.47625977547E+03  0.47625977548E+03  0.25500000000E-02 0.  1.
    8880023    1    1    2    0    0  0.44900061568E+02 -0.45835041771E+02  0.21264848699E+04  0.22270754309E+04  0.65864270000E+03 0. -1.
    8880022    1    1    2    0    0 -0.44900061568E+02  0.45835041771E+02 -0.40981965198E+03  0.44210933800E+03  0.15294330000E+03 0.  0.
<mgrwt>
<rscale>  0 0.46822983E+03</rscale>
<asrwt>0</asrwt>
<pdfrwt beam="1">  1        2 0.33737307E+00 0.66176059E+03</pdfrwt>
<pdfrwt beam="2">  1       -2 0.73270736E-01 0.66176059E+03</pdfrwt>
<totfact> 0.92544376E+00</totfact>
</mgrwt>
</event>
<event>
 4    2  0.2930016E-007  0.7781453E+03  0.7818608E-02  0.9760212E-01
         -2   -1    0    0    0  501 -0.00000000000E+00  0.00000000000E+00  0.13942621610E+03  0.13942621612E+03  0.25500000000E-02 0.  1.
          2   -1    0    0  501    0  0.00000000000E+00 -0.00000000000E+00 -0.29411485064E+04  0.29411485064E+04  0.25500000000E-02 0. -1.
    8880023    1    1    2    0    0  0.35350531432E+03 -0.21618026113E+03 -0.22042161023E+04  0.23375368969E+04  0.65864270000E+03 0. -1.
    8880022    1    1    2    0    0 -0.35350531432E+03  0.21618026113E+03 -0.59750618797E+03  0.74303782557E+03  0.15294330000E+03 0.  0.
<mgrwt>
<rscale>  0 0.67542221E+03</rscale>
<asrwt>0</asrwt>
<pdfrwt beam="1">  1        2 0.45248434E+00 0.77814531E+03</pdfrwt>
<pdfrwt beam="2">  1       -2 0.21450189E-01 0.77814531E+03</pdfrwt>
<totfact> 0.37530656E+01</totfact>
</mgrwt>
</event>
<event>
 4    2  0.2930016E-007  0.6795277E+03  0.7818608E-02  0.1009592E+00
         -2   -1    0    0    0  501 -0.00000000000E+00  0.00000000000E+00  0.29158166135E+03  0.29158166137E+03  0.25500000000E-02 0.  1.
          2   -1    0    0  501    0  0.00000000000E+00 -0.00000000000E+00 -0.25899626764E+04  0.25899626764E+04  0.25500000000E-02 0. -1.
    8880023    1    1    2    0    0  0.13320707891E+03 -0.10101260274E+03 -0.24923205955E+04  0.25832963107E+04  0.65864270000E+03 0. -1.
    8880022    1    1    2    0    0 -0.13320707891E+03  0.10101260274E+03  0.19393958044E+03  0.29824802709E+03  0.15294330000E+03 0.  0.
<mgrwt>
<rscale>  0 0.51637075E+03</rscale>
<asrwt>0</asrwt>
<pdfrwt beam="1">  1        2 0.39845578E+00 0.67952769E+03</pdfrwt>
<pdfrwt beam="2">  1       -2 0.44858719E-01 0.67952769E+03</pdfrwt>
<totfact> 0.15439285E+01</totfact>
</mgrwt>
</event>
<event>
 4    2  0.2930016E-007  0.7536568E+03  0.7818608E-02  0.9821815E-01
          2   -1    0    0  501    0  0.00000000000E+00  0.00000000000E+00  0.73599311130E+03  0.73599311131E+03  0.25500000000E-02 0. -1.
         -2   -1    0    0    0  501 -0.00000000000E+00 -0.00000000000E+00 -0.81657142600E+03  0.81657142600E+03  0.25500000000E-02 0.  1.
    8880023    1    1    2    0    0 -0.32477278001E+03  0.16944332906E+03  0.45920142228E+03  0.88253303218E+03  0.65864270000E+03 0. -1.
    8880022    1    1    2    0    0  0.32477278001E+03 -0.16944332906E+03 -0.53977973698E+03  0.67003150513E+03  0.15294330000E+03 0.  0.
<mgrwt>
<rscale>  0 0.64204857E+03</rscale>
<asrwt>0</asrwt>
<pdfrwt beam="1">  1        2 0.11322971E+00 0.75365682E+03</pdfrwt>
<pdfrwt beam="2">  1       -2 0.12562637E+00 0.75365682E+03</pdfrwt>
<totfact> 0.18448101E+01</totfact>
</mgrwt>
</event>
<event>
 4    2  0.2930016E-007  0.1133947E+04  0.7818608E-02  0.9224169E-01
          2   -1    0    0  501    0  0.00000000000E+00  0.00000000000E+00  0.16943069026E+04  0.16943069026E+04  0.25500000000E-02 0. -1.
         -2   -1    0    0    0  501 -0.00000000000E+00 -0.00000000000E+00 -0.98019055096E+03  0.98019055096E+03  0.25500000000E-02 0.  1.
    8880023    1    1    2    0    0  0.31577849940E+03 -0.86735837198E+03  0.11737725390E+04  0.16320474214E+04  0.65864270000E+03 0. -1.
    8880022    1    1    2    0    0 -0.31577849940E+03  0.86735837198E+03 -0.45965618729E+03  0.10424500322E+04  0.15294330000E+03 0.  0.
<mgrwt>
<rscale>  0 0.10807410E+04</rscale>
<asrwt>0</asrwt>
<pdfrwt beam="1">  1        2 0.26066260E+00 0.11339474E+04</pdfrwt>
<pdfrwt beam="2">  1       -2 0.15079855E+00 0.11339474E+04</pdfrwt>
<totfact> 0.28568404E+00</totfact>
</mgrwt>
</event>
<event>
 4    2  0.2930016E-007  0.7095422E+03  0.7818608E-02  0.9959705E-01
          2   -1    0    0  501    0  0.00000000000E+00  0.00000000000E+00  0.28374685266E+04  0.28374685266E+04  0.25500000000E-02 0. -1.
         -2   -1    0    0    0  501 -0.00000000000E+00 -0.00000000000E+00 -0.19426203706E+03  0.19426203708E+03  0.25500000000E-02 0.  1.
    8880023    1    1    2    0    0  0.22707652502E+03 -0.13444775636E+03  0.26325925691E+04  0.27265351251E+04  0.65864270000E+03 0. -1.
    8880022    1    1    2    0    0 -0.22707652502E+03  0.13444775636E+03  0.10613920472E+02  0.30519543858E+03  0.15294330000E+03 0.  0.
<mgrwt>
<rscale>  0 0.57452971E+03</rscale>
<asrwt>0</asrwt>
<pdfrwt beam="1">  1        2 0.43653359E+00 0.70954221E+03</pdfrwt>
<pdfrwt beam="2">  1       -2 0.29886469E-01 0.70954221E+03</pdfrwt>
<totfact> 0.24024601E+01</totfact>
</mgrwt>
</event>
<event>
 4    2  0.2930016E-007  0.6885485E+03  0.7818608E-02  0.1004850E+00
          2   -1    0    0  501    0  0.00000000000E+00  0.00000000000E+00  0.17474414500E+04  0.17474414500E+04  0.25500000000E-02 0. -1.
         -2   -1    0    0    0  501 -0.00000000000E+00 -0.00000000000E+00 -0.45355697404E+03  0.45355697405E+03  0.25500000000E-02 0.  1.
    8880023    1    1    2    0    0  0.76794746813E+02 -0.18544901909E+03  0.16365160545E+04  0.17754671990E+04  0.65864270000E+03 0. -1.
    8880022    1    1    2    0    0 -0.76794746813E+02  0.18544901909E+03 -0.34263157857E+03  0.42553122502E+03  0.15294330000E+03 0.  0.
<mgrwt>
<rscale>  0 0.53573698E+03</rscale>
<asrwt>0</asrwt>
<pdfrwt beam="1">  1        2 0.26883715E+00 0.68854846E+03</pdfrwt>
<pdfrwt beam="2">  1       -2 0.69777995E-01 0.68854846E+03</pdfrwt>
<totfact> 0.17926721E+01</totfact>
</mgrwt>
</event>
<event>
 4    2  0.2930016E-007  0.7517511E+03  0.7818608E-02  0.9826951E-01
          2   -1    0    0  501    0  0.00000000000E+00  0.00000000000E+00  0.31537578441E+04  0.31537578441E+04  0.25500000000E-02 0. -1.
         -2   -1    0    0    0  501 -0.00000000000E+00 -0.00000000000E+00 -0.28916370481E+03  0.28916370482E+03  0.25500000000E-02 0.  1.
    8880023    1    1    2    0    0 -0.37881630647E+02  0.36039492675E+03  0.29467251134E+04  0.30411048356E+04  0.65864270000E+03 0.  0.
    8880022    1    1    2    0    0  0.37881630647E+02 -0.36039492675E+03 -0.82130974080E+02  0.40181671330E+03  0.15294330000E+03 0.  0.
<mgrwt>
<rscale>  0 0.63936045E+03</rscale>
<asrwt>0</asrwt>
<pdfrwt beam="1">  1        2 0.48519350E+00 0.75175111E+03</pdfrwt>
<pdfrwt beam="2">  1       -2 0.44486725E-01 0.75175111E+03</pdfrwt>
<totfact> 0.71219089E+00</totfact>
</mgrwt>
</event>
<event>
 4    2  0.2930016E-007  0.6688146E+03  0.7818608E-02  0.1016527E+00
          2   -1    0    0  501    0  0.00000000000E+00  0.00000000000E+00  0.18557917743E+04  0.18557917743E+04  0.25500000000E-02 0. -1.
         -2   -1    0    0    0  501 -0.00000000000E+00 -0.00000000000E+00 -0.19804784120E+03  0.19804784122E+03  0.25500000000E-02 0.  1.
    8880023    1    1    2    0    0 -0.10457637144E+03 -0.50661634592E+02  0.17251642439E+04  0.18502715188E+04  0.65864270000E+03 0. -1.
    8880022    1    1    2    0    0  0.10457637144E+03  0.50661634592E+02 -0.67420310771E+02  0.20356809672E+03  0.15294330000E+03 0.  0.
<mgrwt>
<rscale>  0 0.48960911E+03</rscale>
<asrwt>0</asrwt>
<pdfrwt beam="1">  1        2 0.28550644E+00 0.66881464E+03</pdfrwt>
<pdfrwt beam="2">  1       -2 0.30468897E-01 0.66881464E+03</pdfrwt>
<totfact> 0.82730525E+01</totfact>
</mgrwt>
</event>
<event>
 4    2  0.2930016E-007  0.9779171E+03  0.7818608E-02  0.9411037E-01
          2   -1    0    0  501    0  0.00000000000E+00  0.00000000000E+00  0.19313896109E+04  0.19313896109E+04  0.25500000000E-02 0. -1.
         -2   -1    0    0    0  501 -0.00000000000E+00 -0.00000000000E+00 -0.46553480869E+03  0.46553480870E+03  0.25500000000E-02 0.  1.
    8880023    1    1    2    0    0 -0.61363626335E+02  0.72024036262E+03  0.13216923259E+04  0.16441388278E+04  0.65864270000E+03 0. -1.
    8880022    1    1    2    0    0  0.61363626335E+02 -0.72024036262E+03  0.14416247630E+03  0.75278559176E+03  0.15294330000E+03 0.  0.
<mgrwt>
<rscale>  0 0.91172949E+03</rscale>
<asrwt>0</asrwt>
<pdfrwt beam="1">  1        2 0.29713686E+00 0.97791711E+03</pdfrwt>
<pdfrwt beam="2">  1       -2 0.71620740E-01 0.97791711E+03</pdfrwt>
<totfact> 0.12952825E+01</totfact>
</mgrwt>
</event>
<event>
 4    2  0.2930016E-007  0.6811778E+03  0.7818608E-02  0.1008665E+00
          2   -1    0    0  501    0  0.00000000000E+00  0.00000000000E+00  0.18369235373E+04  0.18369235373E+04  0.25500000000E-02 0. -1.
         -2   -1    0    0    0  501 -0.00000000000E+00 -0.00000000000E+00 -0.37175786425E+03  0.37175786425E+03  0.25500000000E-02 0.  1.
    8880023    1    1    2    0    0 -0.10385022678E+03  0.13931306214E+03  0.17286123439E+04  0.18579838107E+04  0.65864270000E+03 0.  0.
    8880022    1    1    2    0    0  0.10385022678E+03 -0.13931306214E+03 -0.26344667084E+03  0.35069759092E+03  0.15294330000E+03 0.  1.
<mgrwt>
<rscale>  0 0.52008631E+03</rscale>
<asrwt>0</asrwt>
<pdfrwt beam="1">  1        2 0.28260362E+00 0.68117781E+03</pdfrwt>
<pdfrwt beam="2">  1       -2 0.57193518E-01 0.68117781E+03</pdfrwt>
<totfact> 0.24518502E+01</totfact>
</mgrwt>
</event>
<event>
 4    2  0.2930016E-007  0.8996236E+03  0.7818608E-02  0.9526636E-01
          2   -1    0    0  501    0  0.00000000000E+00  0.00000000000E+00  0.68817613660E+03  0.68817613661E+03  0.25500000000E-02 0. -1.
         -2   -1    0    0    0  501 -0.00000000000E+00 -0.00000000000E+00 -0.12113613292E+04  0.12113613292E+04  0.25500000000E-02 0.  1.
    8880023    1    1    2    0    0  0.52377696151E+03 -0.31807242436E+03  0.21809151404E+03  0.92568163388E+03  0.65864270000E+03 0. -1.
    8880022    1    1    2    0    0 -0.52377696151E+03  0.31807242436E+03 -0.74127670662E+03  0.97385583191E+03  0.15294330000E+03 0.  0.
<mgrwt>
<rscale>  0 0.82348212E+03</rscale>
<asrwt>0</asrwt>
<pdfrwt beam="1">  1        2 0.10587325E+00 0.89962358E+03</pdfrwt>
<pdfrwt beam="2">  1       -2 0.18636328E+00 0.89962358E+03</pdfrwt>
<totfact> 0.68829505E+00</totfact>
</mgrwt>
</event>
<event>
 4    2  0.2930016E-007  0.6965199E+03  0.7818608E-02  0.1001196E+00
         -2   -1    0    0    0  501 -0.00000000000E+00  0.00000000000E+00  0.16945254365E+03  0.16945254367E+03  0.25500000000E-02 0.  1.
          2   -1    0    0  501    0  0.00000000000E+00 -0.00000000000E+00 -0.30322108643E+04  0.30322108643E+04  0.25500000000E-02 0. -1.
    8880023    1    1    2    0    0  0.15709237660E+03  0.16325372219E+03 -0.28435770077E+04  0.29276390142E+04  0.65864270000E+03 0.  0.
    8880022    1    1    2    0    0 -0.15709237660E+03 -0.16325372219E+03 -0.19181312951E+02  0.27402439376E+03  0.15294330000E+03 0.  1.
<mgrwt>
<rscale>  0 0.55129089E+03</rscale>
<asrwt>0</asrwt>
<pdfrwt beam="1">  1        2 0.46649394E+00 0.69651992E+03</pdfrwt>
<pdfrwt beam="2">  1       -2 0.26069624E-01 0.69651992E+03</pdfrwt>
<totfact> 0.23597206E+01</totfact>
</mgrwt>
</event>
<event>
 4    2  0.2930016E-007  0.1143426E+04  0.7818608E-02  0.9214180E-01
         -2   -1    0    0    0  501 -0.00000000000E+00  0.00000000000E+00  0.12774001973E+04  0.12774001973E+04  0.25500000000E-02 0.  1.
          2   -1    0    0  501    0  0.00000000000E+00 -0.00000000000E+00 -0.88804353884E+03  0.88804353884E+03  0.25500000000E-02 0. -1.
    8880023    1    1    2    0    0 -0.84331288123E+03  0.40303358402E+03  0.53113327291E+01  0.11434382808E+04  0.65864270000E+03 0.  0.
    8880022    1    1    2    0    0  0.84331288123E+03 -0.40303358402E+03  0.38404532572E+03  0.10220054553E+04  0.15294330000E+03 0.  0.
<mgrwt>
<rscale>  0 0.10908257E+04</rscale>
<asrwt>0</asrwt>
<pdfrwt beam="1">  1        2 0.13662208E+00 0.11434259E+04</pdfrwt>
<pdfrwt beam="2">  1       -2 0.19652311E+00 0.11434259E+04</pdfrwt>
<totfact> 0.40998568E+00</totfact>
</mgrwt>
</event>
<event>
 4    2  0.2930016E-007  0.7447438E+03  0.7818608E-02  0.9846338E-01
         -2   -1    0    0    0  501 -0.00000000000E+00  0.00000000000E+00  0.41527307995E+03  0.41527307995E+03  0.25500000000E-02 0.  1.
          2   -1    0    0  501    0  0.00000000000E+00 -0.00000000000E+00 -0.23955308895E+04  0.23955308895E+04  0.25500000000E-02 0. -1.
    8880023    1    1    2    0    0  0.11018473590E+03 -0.32968538232E+03 -0.22334670247E+04  0.23543615449E+04  0.65864270000E+03 0.  0.
    8880022    1    1    2    0    0 -0.11018473590E+03  0.32968538232E+03  0.25320921512E+03  0.45644242460E+03  0.15294330000E+03 0.  0.
<mgrwt>
<rscale>  0 0.62933975E+03</rscale>
<asrwt>0</asrwt>
<pdfrwt beam="1">  1        2 0.36854321E+00 0.74474380E+03</pdfrwt>
<pdfrwt beam="2">  1       -2 0.63888167E-01 0.74474380E+03</pdfrwt>
<totfact> 0.94829915E+00</totfact>
</mgrwt>
</event>
<event>
 4    2  0.2930016E-007  0.7974891E+03  0.7818608E-02  0.9716252E-01
         -2   -1    0    0    0  501 -0.00000000000E+00  0.00000000000E+00  0.32020091293E+03  0.32020091294E+03  0.25500000000E-02 0.  1.
          2   -1    0    0  501    0  0.00000000000E+00 -0.00000000000E+00 -0.34444292221E+04  0.34444292221E+04  0.25500000000E-02 0. -1.
    8880023    1    1    2    0    0 -0.19668486681E+03 -0.40434363712E+03 -0.31872666469E+04  0.32855224240E+04  0.65864270000E+03 0.  0.
    8880022    1    1    2    0    0  0.19668486681E+03  0.40434363712E+03  0.63038337788E+02  0.47910771101E+03  0.15294330000E+03 0.  0.
<mgrwt>
<rscale>  0 0.70057371E+03</rscale>
<asrwt>0</asrwt>
<pdfrwt beam="1">  1        2 0.52991216E+00 0.79748913E+03</pdfrwt>
<pdfrwt beam="2">  1       -2 0.49261681E-01 0.79748913E+03</pdfrwt>
<totfact> 0.37187754E+00</totfact>
</mgrwt>
</event>
<event>
 4    2  0.2930016E-007  0.6928766E+03  0.7818608E-02  0.1002814E+00
          2   -1    0    0  501    0  0.00000000000E+00  0.00000000000E+00  0.19927756791E+04  0.19927756791E+04  0.25500000000E-02 0. -1.
         -2   -1    0    0    0  501 -0.00000000000E+00 -0.00000000000E+00 -0.24538050033E+03  0.24538050034E+03  0.25500000000E-02 0.  1.
    8880023    1    1    2    0    0 -0.59388824460E+02 -0.20673831259E+03  0.18338884022E+04  0.19604144053E+04  0.65864270000E+03 0. -1.
    8880022    1    1    2    0    0  0.59388824460E+02  0.20673831259E+03 -0.86493223495E+02  0.27774177412E+03  0.15294330000E+03 0.  0.
<mgrwt>
<rscale>  0 0.54433266E+03</rscale>
<asrwt>0</asrwt>
<pdfrwt beam="1">  1        2 0.30658087E+00 0.69287659E+03</pdfrwt>
<pdfrwt beam="2">  1       -2 0.37750847E-01 0.69287659E+03</pdfrwt>
<totfact> 0.46330345E+01</totfact>
</mgrwt>
</event>
<event>
 4    2  0.2930016E-007  0.6812722E+03  0.7818608E-02  0.1008613E+00
         -2   -1    0    0    0  501 -0.00000000000E+00  0.00000000000E+00  0.33225737959E+03  0.33225737960E+03  0.25500000000E-02 0.  1.
          2   -1    0    0  501    0  0.00000000000E+00 -0.00000000000E+00 -0.13903967168E+04  0.13903967168E+04  0.25500000000E-02 0. -1.
    8880023    1    1    2    0    0  0.15216727658E+03 -0.84656785628E+02 -0.12488009729E+04  0.14225455098E+04  0.65864270000E+03 0. -1.
    8880022    1    1    2    0    0 -0.15216727658E+03  0.84656785628E+02  0.19066163565E+03  0.30010858658E+03  0.15294330000E+03 0.  0.
<mgrwt>
<rscale>  0 0.52029632E+03</rscale>
<asrwt>0</asrwt>
<pdfrwt beam="1">  1        2 0.21390719E+00 0.68127223E+03</pdfrwt>
<pdfrwt beam="2">  1       -2 0.51116520E-01 0.68127223E+03</pdfrwt>
<totfact> 0.54450527E+01</totfact>
</mgrwt>
</event>
<event>
 4    2  0.2930016E-007  0.6674210E+03  0.7818608E-02  0.1017583E+00
         -2   -1    0    0    0  501 -0.00000000000E+00  0.00000000000E+00  0.60396572763E+03  0.60396572763E+03  0.25500000000E-02 0.  1.
          2   -1    0    0  501    0  0.00000000000E+00 -0.00000000000E+00 -0.20118551043E+04  0.20118551043E+04  0.25500000000E-02 0. -1.
    8880023    1    1    2    0    0  0.10258728579E+03 -0.33413089780E+02 -0.19400818418E+04  0.20516745222E+04  0.65864270000E+03 0. -1.
    8880022    1    1    2    0    0 -0.10258728579E+03  0.33413089780E+02  0.53219246517E+03  0.56414630972E+03  0.15294330000E+03 0.  0.
<mgrwt>
<rscale>  0 0.48568913E+03</rscale>
<asrwt>0</asrwt>
<pdfrwt beam="1">  1        2 0.30951617E+00 0.66742100E+03</pdfrwt>
<pdfrwt beam="2">  1       -2 0.92917805E-01 0.66742100E+03</pdfrwt>
<totfact> 0.67863089E+00</totfact>
</mgrwt>
</event>
<event>
 4    2  0.2930016E-007  0.9049621E+03  0.7818608E-02  0.9518112E-01
         -2   -1    0    0    0  501 -0.00000000000E+00  0.00000000000E+00  0.85866066612E+03  0.85866066613E+03  0.25500000000E-02 0.  1.
          2   -1    0    0  501    0  0.00000000000E+00 -0.00000000000E+00 -0.10358276649E+04  0.10358276649E+04  0.25500000000E-02 0. -1.
    8880023    1    1    2    0    0 -0.51074293037E+03  0.35254479461E+03 -0.63736595317E+03  0.11068837959E+04  0.65864270000E+03 0.  0.
    8880022    1    1    2    0    0  0.51074293037E+03 -0.35254479461E+03  0.46019895438E+03  0.78760453513E+03  0.15294330000E+03 0.  0.
<mgrwt>
<rscale>  0 0.82961543E+03</rscale>
<asrwt>0</asrwt>
<pdfrwt beam="1">  1        2 0.15935810E+00 0.90496209E+03</pdfrwt>
<pdfrwt beam="2">  1       -2 0.13210164E+00 0.90496209E+03</pdfrwt>
<totfact> 0.99719985E+00</totfact>
</mgrwt>
</event>
<event>
 4    2  0.2930016E-007  0.7017432E+03  0.7818608E-02  0.9990045E-01
         -2   -1    0    0    0  501 -0.00000000000E+00  0.00000000000E+00  0.52114762109E+03  0.52114762110E+03  0.25500000000E-02 0.  1.
          2   -1    0    0  501    0  0.00000000000E+00 -0.00000000000E+00 -0.18411322668E+04  0.18411322668E+04  0.25500000000E-02 0. -1.
    8880023    1    1    2    0    0 -0.23763820000E+03  0.46490174694E+02 -0.17272700488E+04  0.18643779869E+04  0.65864270000E+03 0. -1.
    8880022    1    1    2    0    0  0.23763820000E+03 -0.46490174694E+02  0.40728540307E+03  0.49790190099E+03  0.15294330000E+03 0.  0.
<mgrwt>
<rscale>  0 0.56088891E+03</rscale>
<asrwt>0</asrwt>
<pdfrwt beam="1">  1        2 0.28325111E+00 0.70174316E+03</pdfrwt>
<pdfrwt beam="2">  1       -2 0.80176558E-01 0.70174316E+03</pdfrwt>
<totfact> 0.11699157E+01</totfact>
</mgrwt>
</event>
<event>
 4    2  0.2930016E-007  0.7263424E+03  0.7818608E-02  0.9901682E-01
         -2   -1    0    0    0  501 -0.00000000000E+00  0.00000000000E+00  0.41474165803E+03  0.41474165804E+03  0.25500000000E-02 0.  1.
          2   -1    0    0  501    0  0.00000000000E+00 -0.00000000000E+00 -0.92965589505E+03  0.92965589505E+03  0.25500000000E-02 0. -1.
    8880023    1    1    2    0    0  0.10118831354E+03 -0.28900512702E+03 -0.65164928446E+03  0.97581762356E+03  0.65864270000E+03 0.  0.
    8880022    1    1    2    0    0 -0.10118831354E+03  0.28900512702E+03  0.13673504744E+03  0.36857992953E+03  0.15294330000E+03 0.  0.
<mgrwt>
<rscale>  0 0.60179836E+03</rscale>
<asrwt>0</asrwt>
<pdfrwt beam="1">  1        2 0.14302398E+00 0.72634237E+03</pdfrwt>
<pdfrwt beam="2">  1       -2 0.63806409E-01 0.72634237E+03</pdfrwt>
<totfact> 0.64659136E+01</totfact>
</mgrwt>
</event>
<event>
 4    2  0.2930016E-007  0.8340448E+03  0.7818608E-02  0.9641513E-01
         -2   -1    0    0    0  501 -0.00000000000E+00  0.00000000000E+00  0.56895541963E+03  0.56895541964E+03  0.25500000000E-02 0.  1.
          2   -1    0    0  501    0  0.00000000000E+00 -0.00000000000E+00 -0.12257204404E+04  0.12257204404E+04  0.25500000000E-02 0. -1.
    8880023    1    1    2    0    0 -0.47711234636E+03  0.18489004730E+03 -0.88304766996E+03  0.12146620577E+04  0.65864270000E+03 0.  0.
    8880022    1    1    2    0    0  0.47711234636E+03 -0.18489004730E+03  0.22628264918E+03  0.58001380240E+03  0.15294330000E+03 0.  0.
<mgrwt>
<rscale>  0 0.74608454E+03</rscale>
<asrwt>0</asrwt>
<pdfrwt beam="1">  1        2 0.18857237E+00 0.83404480E+03</pdfrwt>
<pdfrwt beam="2">  1       -2 0.87531603E-01 0.83404480E+03</pdfrwt>
<totfact> 0.20814030E+01</totfact>
</mgrwt>
</event>
<event>
 4    2  0.2930016E-007  0.8018604E+03  0.7818608E-02  0.9706788E-01
         -2   -1    0    0    0  501 -0.00000000000E+00  0.00000000000E+00  0.24683458107E+03  0.24683458108E+03  0.25500000000E-02 0.  1.
          2   -1    0    0  501    0  0.00000000000E+00 -0.00000000000E+00 -0.24211017284E+04  0.24211017284E+04  0.25500000000E-02 0. -1.
    8880023    1    1    2    0    0  0.38131469382E+03  0.25252530266E+03 -0.20006981066E+04  0.21554055405E+04  0.65864270000E+03 0. -1.
    8880022    1    1    2    0    0 -0.38131469382E+03 -0.25252530266E+03 -0.17356904075E+03  0.51253076896E+03  0.15294330000E+03 0.  0.
<mgrwt>
<rscale>  0 0.70614084E+03</rscale>
<asrwt>0</asrwt>
<pdfrwt beam="1">  1        2 0.37247717E+00 0.80186042E+03</pdfrwt>
<pdfrwt beam="2">  1       -2 0.37974553E-01 0.80186042E+03</pdfrwt>
<totfact> 0.26186730E+01</totfact>
</mgrwt>
</event>
<event>
 4    2  0.2930016E-007  0.7523292E+03  0.7818608E-02  0.9825387E-01
         -2   -1    0    0    0  501 -0.00000000000E+00  0.00000000000E+00  0.38216541470E+03  0.38216541471E+03  0.25500000000E-02 0.  1.
          2   -1    0    0  501    0  0.00000000000E+00 -0.00000000000E+00 -0.88775426278E+03  0.88775426279E+03  0.25500000000E-02 0. -1.
    8880023    1    1    2    0    0  0.35330849600E+03  0.85802735145E+02 -0.22294117905E+03  0.78466679443E+03  0.65864270000E+03 0. -1.
    8880022    1    1    2    0    0 -0.35330849600E+03 -0.85802735145E+02 -0.28264766903E+03  0.48525288307E+03  0.15294330000E+03 0.  1.
<mgrwt>
<rscale>  0 0.64017747E+03</rscale>
<asrwt>0</asrwt>
<pdfrwt beam="1">  1        2 0.13657758E+00 0.75232919E+03</pdfrwt>
<pdfrwt beam="2">  1       -2 0.58794680E-01 0.75232919E+03</pdfrwt>
<totfact> 0.81872747E+01</totfact>
</mgrwt>
</event>
<event>
 4    2  0.2930016E-007  0.7003155E+03  0.7818608E-02  0.9995895E-01
         -2   -1    0    0    0  501 -0.00000000000E+00  0.00000000000E+00  0.10512887648E+03  0.10512887651E+03  0.25500000000E-02 0.  1.
          2   -1    0    0  501    0  0.00000000000E+00 -0.00000000000E+00 -0.23284937853E+04  0.23284937853E+04  0.25500000000E-02 0. -1.
    8880023    1    1    2    0    0  0.15817724522E+02  0.23744764368E+03 -0.17022307423E+04  0.18406605581E+04  0.65864270000E+03 0.  1.
    8880022    1    1    2    0    0 -0.15817724522E+02 -0.23744764368E+03 -0.52113416650E+03  0.59296210369E+03  0.15294330000E+03 0. -1.
<mgrwt>
<rscale>  0 0.55830603E+03</rscale>
<asrwt>0</asrwt>
<pdfrwt beam="1">  1        2 0.35822977E+00 0.70031549E+03</pdfrwt>
<pdfrwt beam="2">  1       -2 0.16173675E-01 0.70031549E+03</pdfrwt>
<totfact> 0.13980129E+02</totfact>
</mgrwt>
</event>
<event>
 4    2  0.2930016E-007  0.7684097E+03  0.7818608E-02  0.9783803E-01
         -2   -1    0    0    0  501 -0.00000000000E+00  0.00000000000E+00  0.34755281280E+03  0.34755281281E+03  0.25500000000E-02 0.  1.
          2   -1    0    0  501    0  0.00000000000E+00 -0.00000000000E+00 -0.19513099811E+04  0.19513099811E+04  0.25500000000E-02 0. -1.
    8880023    1    1    2    0    0 -0.19485991030E+03  0.34448926979E+03 -0.16983920502E+04  0.18641322389E+04  0.65864270000E+03 0. -1.
    8880022    1    1    2    0    0  0.19485991030E+03 -0.34448926979E+03  0.94634881830E+02  0.43473055508E+03  0.15294330000E+03 0.  0.
<mgrwt>
<rscale>  0 0.66239067E+03</rscale>
<asrwt>0</asrwt>
<pdfrwt beam="1">  1        2 0.30020153E+00 0.76840969E+03</pdfrwt>
<pdfrwt beam="2">  1       -2 0.53469665E-01 0.76840969E+03</pdfrwt>
<totfact> 0.24142614E+01</totfact>
</mgrwt>
</event>
<event>
 4    2  0.2930016E-007  0.7015230E+03  0.7818608E-02  0.9990941E-01
         -2   -1    0    0    0  501 -0.00000000000E+00  0.00000000000E+00  0.40337650446E+03  0.40337650447E+03  0.25500000000E-02 0.  1.
          2   -1    0    0  501    0  0.00000000000E+00 -0.00000000000E+00 -0.74629054767E+03  0.74629054768E+03  0.25500000000E-02 0. -1.
    8880023    1    1    2    0    0  0.22412458540E+03  0.89958618766E+02 -0.46200704101E+03  0.83999112797E+03  0.65864270000E+03 0.  0.
    8880022    1    1    2    0    0 -0.22412458540E+03 -0.89958618766E+02  0.11909299779E+03  0.30967592417E+03  0.15294330000E+03 0. -1.
<mgrwt>
<rscale>  0 0.56049258E+03</rscale>
<asrwt>0</asrwt>
<pdfrwt beam="1">  1        2 0.11481393E+00 0.70152305E+03</pdfrwt>
<pdfrwt beam="2">  1       -2 0.62057924E-01 0.70152305E+03</pdfrwt>
<totfact> 0.92409255E+01</totfact>
</mgrwt>
</event>
<event>
 4    2  0.2930016E-007  0.7315034E+03  0.7818608E-02  0.9885426E-01
          2   -1    0    0  501    0  0.00000000000E+00  0.00000000000E+00  0.12262239662E+04  0.12262239662E+04  0.25500000000E-02 0. -1.
         -2   -1    0    0    0  501 -0.00000000000E+00 -0.00000000000E+00 -0.26010385743E+03  0.26010385745E+03  0.25500000000E-02 0.  1.
    8880023    1    1    2    0    0  0.57936919224E+02 -0.31293827731E+03  0.44298900672E+03  0.85518215507E+03  0.65864270000E+03 0.  1.
    8880022    1    1    2    0    0 -0.57936919224E+02  0.31293827731E+03  0.52313110200E+03  0.63114566854E+03  0.15294330000E+03 0.  0.
<mgrwt>
<rscale>  0 0.60972824E+03</rscale>
<asrwt>0</asrwt>
<pdfrwt beam="1">  1        2 0.18864985E+00 0.73150342E+03</pdfrwt>
<pdfrwt beam="2">  1       -2 0.40015976E-01 0.73150342E+03</pdfrwt>
<totfact> 0.10974435E+02</totfact>
</mgrwt>
</event>
<event>
 4    2  0.2930016E-007  0.8081968E+03  0.7818608E-02  0.9693345E-01
         -2   -1    0    0    0  501 -0.00000000000E+00  0.00000000000E+00  0.71472744307E+03  0.71472744307E+03  0.25500000000E-02 0.  1.
          2   -1    0    0  501    0  0.00000000000E+00 -0.00000000000E+00 -0.85013607827E+03  0.85013607827E+03  0.25500000000E-02 0. -1.
    8880023    1    1    2    0    0 -0.10524010765E+03  0.45639492201E+03 -0.50139796548E+03  0.95109512203E+03  0.65864270000E+03 0.  0.
    8880022    1    1    2    0    0  0.10524010765E+03 -0.45639492201E+03  0.36598933028E+03  0.61376839931E+03  0.15294330000E+03 0.  0.
<mgrwt>
<rscale>  0 0.71414392E+03</rscale>
<asrwt>0</asrwt>
<pdfrwt beam="1">  1        2 0.13079017E+00 0.80819677E+03</pdfrwt>
<pdfrwt beam="2">  1       -2 0.10995807E+00 0.80819677E+03</pdfrwt>
<totfact> 0.21063731E+01</totfact>
</mgrwt>
</event>
<event>
 4    2  0.2930016E-007  0.7135456E+03  0.7818608E-02  0.9945063E-01
          2   -1    0    0  501    0  0.00000000000E+00  0.00000000000E+00  0.14426728068E+03  0.14426728070E+03  0.25500000000E-02 0. -1.
         -2   -1    0    0    0  501 -0.00000000000E+00 -0.00000000000E+00 -0.18346452609E+04  0.18346452609E+04  0.25500000000E-02 0.  1.
    8880023    1    1    2    0    0  0.14565698306E+03 -0.23263939825E+03 -0.11291161365E+04  0.13356835338E+04  0.65864270000E+03 0.  0.
    8880022    1    1    2    0    0 -0.14565698306E+03  0.23263939825E+03 -0.56126184368E+03  0.64322900784E+03  0.15294330000E+03 0.  1.
<mgrwt>
<rscale>  0 0.58126169E+03</rscale>
<asrwt>0</asrwt>
<pdfrwt beam="1">  1        2 0.22194968E-01 0.71354555E+03</pdfrwt>
<pdfrwt beam="2">  1       -2 0.28225310E+00 0.71354555E+03</pdfrwt>
<totfact> 0.10653661E+01</totfact>
</mgrwt>
</event>
<event>
 4    2  0.2930016E-007  0.6912761E+03  0.7818608E-02  0.1003552E+00
         -2   -1    0    0    0  501 -0.00000000000E+00  0.00000000000E+00  0.28801904538E+03  0.28801904539E+03  0.25500000000E-02 0.  1.
          2   -1    0    0  501    0  0.00000000000E+00 -0.00000000000E+00 -0.92542785328E+03  0.92542785328E+03  0.25500000000E-02 0. -1.
    8880023    1    1    2    0    0  0.18617484661E+03  0.96909247102E+02 -0.65611531729E+03  0.95307396960E+03  0.65864270000E+03 0. -1.
    8880022    1    1    2    0    0 -0.18617484661E+03 -0.96909247102E+02  0.18706509390E+02  0.26037292907E+03  0.15294330000E+03 0.  1.
<mgrwt>
<rscale>  0 0.54119863E+03</rscale>
<asrwt>0</asrwt>
<pdfrwt beam="1">  1        2 0.14237352E+00 0.69127613E+03</pdfrwt>
<pdfrwt beam="2">  1       -2 0.44310623E-01 0.69127613E+03</pdfrwt>
<totfact> 0.13829078E+02</totfact>
</mgrwt>
</event>
<event>
 4    2  0.2930016E-007  0.1009282E+04  0.7818608E-02  0.9369513E-01
         -2   -1    0    0    0  501 -0.00000000000E+00  0.00000000000E+00  0.51477926971E+03  0.51477926972E+03  0.25500000000E-02 0.  1.
          2   -1    0    0  501    0  0.00000000000E+00 -0.00000000000E+00 -0.32528521056E+04  0.32528521056E+04  0.25500000000E-02 0. -1.
    8880023    1    1    2    0    0  0.38332573173E+03 -0.66174175599E+03 -0.28087123651E+04  0.29845462175E+04  0.65864270000E+03 0.  0.
    8880022    1    1    2    0    0 -0.38332573173E+03  0.66174175599E+03  0.70639529255E+02  0.78308515778E+03  0.15294330000E+03 0.  0.
<mgrwt>
<rscale>  0 0.94627687E+03</rscale>
<asrwt>0</asrwt>
<pdfrwt beam="1">  1        2 0.50043877E+00 0.10092824E+04</pdfrwt>
<pdfrwt beam="2">  1       -2 0.79196812E-01 0.10092824E+04</pdfrwt>
<totfact> 0.17374960E+00</totfact>
</mgrwt>
</event>
<event>
 4    2  0.2930016E-007  0.7693521E+03  0.7818608E-02  0.9781471E-01
          2   -1    0    0  501    0  0.00000000000E+00  0.00000000000E+00  0.13248939895E+04  0.13248939895E+04  0.25500000000E-02 0. -1.
         -2   -1    0    0    0  501 -0.00000000000E+00 -0.00000000000E+00 -0.54340263476E+03  0.54340263477E+03  0.25500000000E-02 0.  1.
    8880023    1    1    2    0    0  0.26930079983E+03 -0.29252281868E+03  0.10957839149E+04  0.13388969769E+04  0.65864270000E+03 0. -1.
    8880022    1    1    2    0    0 -0.26930079983E+03  0.29252281868E+03 -0.31429256019E+03  0.52939964738E+03  0.15294330000E+03 0.  0.
<mgrwt>
<rscale>  0 0.66366471E+03</rscale>
<asrwt>0</asrwt>
<pdfrwt beam="1">  1        2 0.20382985E+00 0.76935215E+03</pdfrwt>
<pdfrwt beam="2">  1       -2 0.83600405E-01 0.76935215E+03</pdfrwt>
<totfact> 0.20381188E+01</totfact>
</mgrwt>
</event>
<event>
 4    2  0.2930016E-007  0.6951670E+03  0.7818608E-02  0.1001787E+00
         -2   -1    0    0    0  501 -0.00000000000E+00  0.00000000000E+00  0.21648794274E+03  0.21648794276E+03  0.25500000000E-02 0.  1.
          2   -1    0    0  501    0  0.00000000000E+00 -0.00000000000E+00 -0.29441272958E+04  0.29441272958E+04  0.25500000000E-02 0. -1.
    8880023    1    1    2    0    0 -0.20190080708E+02 -0.22144808848E+03 -0.27968890138E+04  0.28819863388E+04  0.65864270000E+03 0. -1.
    8880022    1    1    2    0    0  0.20190080708E+02  0.22144808848E+03  0.69249660745E+02  0.27862889976E+03  0.15294330000E+03 0.  0.
<mgrwt>
<rscale>  0 0.54873417E+03</rscale>
<asrwt>0</asrwt>
<pdfrwt beam="1">  1        2 0.45294263E+00 0.69516696E+03</pdfrwt>
<pdfrwt beam="2">  1       -2 0.33305839E-01 0.69516696E+03</pdfrwt>
<totfact> 0.16979391E+01</totfact>
</mgrwt>
</event>
<event>
 4    2  0.2930016E-007  0.8833063E+03  0.7818608E-02  0.9553380E-01
         -2   -1    0    0    0  501 -0.00000000000E+00  0.00000000000E+00  0.38259612056E+03  0.38259612057E+03  0.25500000000E-02 0.  1.
          2   -1    0    0  501    0  0.00000000000E+00 -0.00000000000E+00 -0.22666264493E+04  0.22666264493E+04  0.25500000000E-02 0. -1.
    8880023    1    1    2    0    0  0.49383444554E+03 -0.32023017972E+03 -0.18381549916E+04  0.20393733859E+04  0.65864270000E+03 0.  1.
    8880022    1    1    2    0    0 -0.49383444554E+03  0.32023017972E+03 -0.45875337100E+02  0.60984918396E+03  0.15294330000E+03 0.  0.
<mgrwt>
<rscale>  0 0.80460189E+03</rscale>
<asrwt>0</asrwt>
<pdfrwt beam="1">  1        2 0.34871176E+00 0.88330631E+03</pdfrwt>
<pdfrwt beam="2">  1       -2 0.58860943E-01 0.88330631E+03</pdfrwt>
<totfact> 0.13052907E+01</totfact>
</mgrwt>
</event>
<event>
 4    2  0.2930016E-007  0.1201290E+04  0.7818608E-02  0.9155870E-01
         -2   -1    0    0    0  501 -0.00000000000E+00  0.00000000000E+00  0.78337438254E+03  0.78337438254E+03  0.25500000000E-02 0.  1.
          2   -1    0    0  501    0  0.00000000000E+00 -0.00000000000E+00 -0.22640529016E+04  0.22640529016E+04  0.25500000000E-02 0. -1.
    8880023    1    1    2    0    0 -0.68775826252E+01  0.10046089587E+04 -0.16252121603E+04  0.20209926357E+04  0.65864270000E+03 0. -1.
    8880022    1    1    2    0    0  0.68775826252E+01 -0.10046089587E+04  0.14453364125E+03  0.10264346485E+04  0.15294330000E+03 0.  0.
<mgrwt>
<rscale>  0 0.11520767E+04</rscale>
<asrwt>0</asrwt>
<pdfrwt beam="1">  1        2 0.34831583E+00 0.12012896E+04</pdfrwt>
<pdfrwt beam="2">  1       -2 0.12051914E+00 0.12012896E+04</pdfrwt>
<totfact> 0.24413293E+00</totfact>
</mgrwt>
</event>
<event>
 4    2  0.2930016E-007  0.6929205E+03  0.7818608E-02  0.1002794E+00
         -2   -1    0    0    0  501 -0.00000000000E+00  0.00000000000E+00  0.28680309441E+03  0.28680309442E+03  0.25500000000E-02 0.  1.
          2   -1    0    0  501    0  0.00000000000E+00 -0.00000000000E+00 -0.40786086738E+04  0.40786086738E+04  0.25500000000E-02 0. -1.
    8880023    1    1    2    0    0  0.14652758771E+03 -0.15766524208E+03 -0.39808261054E+04  0.40406825352E+04  0.65864270000E+03 0.  0.
    8880022    1    1    2    0    0 -0.14652758771E+03  0.15766524208E+03  0.18902052601E+03  0.32472923303E+03  0.15294330000E+03 0.  0.
<mgrwt>
<rscale>  0 0.54441802E+03</rscale>
<asrwt>0</asrwt>
<pdfrwt beam="1">  1        2 0.62747822E+00 0.69292054E+03</pdfrwt>
<pdfrwt beam="2">  1       -2 0.44123556E-01 0.69292054E+03</pdfrwt>
<totfact> 0.16242679E+00</totfact>
</mgrwt>
</event>
<event>
 4    2  0.2930016E-007  0.8152102E+03  0.7818608E-02  0.9678825E-01
          2   -1    0    0  501    0  0.00000000000E+00  0.00000000000E+00  0.70956602099E+03  0.70956602099E+03  0.25500000000E-02 0. -1.
         -2   -1    0    0    0  501 -0.00000000000E+00 -0.00000000000E+00 -0.88296636626E+03  0.88296636626E+03  0.25500000000E-02 0.  1.
    8880023    1    1    2    0    0 -0.44546079951E+03 -0.17978342476E+03  0.33058133602E+03  0.87968837079E+03  0.65864270000E+03 0. -1.
    8880022    1    1    2    0    0  0.44546079951E+03  0.17978342476E+03 -0.50398168129E+03  0.71284401647E+03  0.15294330000E+03 0.  0.
<mgrwt>
<rscale>  0 0.72291669E+03</rscale>
<asrwt>0</asrwt>
<pdfrwt beam="1">  1        2 0.10916400E+00 0.81521016E+03</pdfrwt>
<pdfrwt beam="2">  1       -2 0.13584098E+00 0.81521016E+03</pdfrwt>
<totfact> 0.15765352E+01</totfact>
</mgrwt>
</event>
<event>
 4    2  0.2930016E-007  0.9806970E+03  0.7818608E-02  0.9407259E-01
         -2   -1    0    0    0  501 -0.00000000000E+00  0.00000000000E+00  0.59538832960E+03  0.59538832961E+03  0.25500000000E-02 0.  1.
          2   -1    0    0  501    0  0.00000000000E+00 -0.00000000000E+00 -0.21383887619E+04  0.21383887619E+04  0.25500000000E-02 0. -1.
    8880023    1    1    2    0    0 -0.55449116030E+03 -0.46957001616E+03 -0.17113244508E+04  0.19724091941E+04  0.65864270000E+03 0. -1.
    8880022    1    1    2    0    0  0.55449116030E+03  0.46957001616E+03  0.16832401851E+03  0.76136789737E+03  0.15294330000E+03 0.  0.
<mgrwt>
<rscale>  0 0.91480679E+03</rscale>
<asrwt>0</asrwt>
<pdfrwt beam="1">  1        2 0.32898288E+00 0.98069702E+03</pdfrwt>
<pdfrwt beam="2">  1       -2 0.91598206E-01 0.98069702E+03</pdfrwt>
<totfact> 0.57054298E+00</totfact>
</mgrwt>
</event>
<event>
 4    2  0.2930016E-007  0.9421813E+03  0.7818608E-02  0.9461454E-01
         -2   -1    0    0    0  501 -0.00000000000E+00  0.00000000000E+00  0.26557922623E+03  0.26557922625E+03  0.25500000000E-02 0.  1.
          2   -1    0    0  501    0  0.00000000000E+00 -0.00000000000E+00 -0.45071865789E+04  0.45071865789E+04  0.25500000000E-02 0. -1.
    8880023    1    1    2    0    0  0.67312302958E+03  0.28298779518E+02 -0.38804633357E+04  0.39932068992E+04  0.65864270000E+03 0. -1.
    8880022    1    1    2    0    0 -0.67312302958E+03 -0.28298779518E+02 -0.36114401701E+03  0.77955890599E+03  0.15294330000E+03 0.  0.
<mgrwt>
<rscale>  0 0.87186316E+03</rscale>
<asrwt>0</asrwt>
<pdfrwt beam="1">  1        2 0.69341326E+00 0.94218132E+03</pdfrwt>
<pdfrwt beam="2">  1       -2 0.40858346E-01 0.94218132E+03</pdfrwt>
<totfact> 0.74847118E-01</totfact>
</mgrwt>
</event>
<event>
 4    2  0.2930016E-007  0.7919163E+03  0.7818608E-02  0.9728555E-01
         -2   -1    0    0    0  501 -0.00000000000E+00  0.00000000000E+00  0.10716905593E+04  0.10716905593E+04  0.25500000000E-02 0.  1.
          2   -1    0    0  501    0  0.00000000000E+00 -0.00000000000E+00 -0.39713820668E+03  0.39713820669E+03  0.25500000000E-02 0. -1.
    8880023    1    1    2    0    0  0.34244164615E+03  0.27578069356E+03  0.22879795488E+03  0.82430575782E+03  0.65864270000E+03 0.  0.
    8880022    1    1    2    0    0 -0.34244164615E+03 -0.27578069356E+03  0.44575439779E+03  0.64452300821E+03  0.15294330000E+03 0.  0.
<mgrwt>
<rscale>  0 0.69341795E+03</rscale>
<asrwt>0</asrwt>
<pdfrwt beam="1">  1        2 0.61098187E-01 0.79191633E+03</pdfrwt>
<pdfrwt beam="2">  1       -2 0.16487547E+00 0.79191633E+03</pdfrwt>
<totfact> 0.18795333E+01</totfact>
</mgrwt>
</event>
<event>
 4    2  0.2930016E-007  0.1311097E+04  0.7818608E-02  0.9056036E-01
          2   -1    0    0  501    0  0.00000000000E+00  0.00000000000E+00  0.81120176066E+03  0.81120176067E+03  0.25500000000E-02 0. -1.
         -2   -1    0    0    0  501 -0.00000000000E+00 -0.00000000000E+00 -0.20872187468E+04  0.20872187468E+04  0.25500000000E-02 0.  1.
    8880023    1    1    2    0    0 -0.13271501427E+03  0.11258562103E+04 -0.11564934701E+04  0.17482713845E+04  0.65864270000E+03 0.  0.
    8880022    1    1    2    0    0  0.13271501427E+03 -0.11258562103E+04 -0.11952351602E+03  0.11501491230E+04  0.15294330000E+03 0.  0.
<mgrwt>
<rscale>  0 0.12671419E+04</rscale>
<asrwt>0</asrwt>
<pdfrwt beam="1">  1        2 0.12480027E+00 0.13110971E+04</pdfrwt>
<pdfrwt beam="2">  1       -2 0.32111057E+00 0.13110971E+04</pdfrwt>
<totfact> 0.77333311E-01</totfact>
</mgrwt>
</event>
<event>
 4    2  0.2930016E-007  0.1055127E+04  0.7818608E-02  0.9312743E-01
          2   -1    0    0  501    0  0.00000000000E+00  0.00000000000E+00  0.11016451619E+04  0.11016451619E+04  0.25500000000E-02 0. -1.
         -2   -1    0    0    0  501 -0.00000000000E+00 -0.00000000000E+00 -0.83258735767E+03  0.83258735767E+03  0.25500000000E-02 0.  1.
    8880023    1    1    2    0    0  0.63512865271E+03  0.52544743950E+03  0.29454712572E+03  0.10954686818E+04  0.65864270000E+03 0. -1.
    8880022    1    1    2    0    0 -0.63512865271E+03 -0.52544743950E+03 -0.25489321457E+02  0.83876383786E+03  0.15294330000E+03 0.  1.
<mgrwt>
<rscale>  0 0.99618136E+03</rscale>
<asrwt>0</asrwt>
<pdfrwt beam="1">  1        2 0.16948387E+00 0.10551273E+04</pdfrwt>
<pdfrwt beam="2">  1       -2 0.12809036E+00 0.10551273E+04</pdfrwt>
<totfact> 0.96746477E+00</totfact>
</mgrwt>
</event>
<event>
 4    2  0.2930016E-007  0.9972930E+03  0.7818608E-02  0.9385108E-01
         -2   -1    0    0    0  501 -0.00000000000E+00  0.00000000000E+00  0.62911112316E+03  0.62911112317E+03  0.25500000000E-02 0.  1.
          2   -1    0    0  501    0  0.00000000000E+00 -0.00000000000E+00 -0.13774609144E+04  0.13774609144E+04  0.25500000000E-02 0. -1.
    8880023    1    1    2    0    0  0.64424734849E+03 -0.38174391059E+03 -0.74061903048E+03  0.12422197124E+04  0.65864270000E+03 0.  0.
    8880022    1    1    2    0    0 -0.64424734849E+03  0.38174391059E+03 -0.77307607548E+01  0.76435232516E+03  0.15294330000E+03 0.  0.
<mgrwt>
<rscale>  0 0.93311444E+03</rscale>
<asrwt>0</asrwt>
<pdfrwt beam="1">  1        2 0.21191706E+00 0.99729297E+03</pdfrwt>
<pdfrwt beam="2">  1       -2 0.96786327E-01 0.99729297E+03</pdfrwt>
<totfact> 0.13238080E+01</totfact>
</mgrwt>
</event>
<event>
 4    2  0.2930016E-007  0.7016849E+03  0.7818608E-02  0.9990282E-01
         -2   -1    0    0    0  501 -0.00000000000E+00  0.00000000000E+00  0.17019220015E+03  0.17019220016E+03  0.25500000000E-02 0.  1.
          2   -1    0    0  501    0  0.00000000000E+00 -0.00000000000E+00 -0.20601051307E+04  0.20601051307E+04  0.25500000000E-02 0. -1.
    8880023    1    1    2    0    0 -0.23111317170E+03 -0.71680798237E+02 -0.17973236884E+04  0.19294387997E+04  0.65864270000E+03 0.  1.
    8880022    1    1    2    0    0  0.23111317170E+03  0.71680798237E+02 -0.92589242206E+02  0.30085853113E+03  0.15294330000E+03 0.  0.
<mgrwt>
<rscale>  0 0.56078401E+03</rscale>
<asrwt>0</asrwt>
<pdfrwt beam="1">  1        2 0.31693923E+00 0.70168486E+03</pdfrwt>
<pdfrwt beam="2">  1       -2 0.26183417E-01 0.70168486E+03</pdfrwt>
<totfact> 0.84275335E+01</totfact>
</mgrwt>
</event>
<event>
 4    2  0.2930016E-007  0.6827754E+03  0.7818608E-02  0.1007795E+00
          2   -1    0    0  501    0  0.00000000000E+00  0.00000000000E+00  0.44318304663E+03  0.44318304664E+03  0.25500000000E-02 0. -1.
         -2   -1    0    0    0  501 -0.00000000000E+00 -0.00000000000E+00 -0.54381328514E+03  0.54381328515E+03  0.25500000000E-02 0.  1.
    8880023    1    1    2    0    0  0.15758494288E+03  0.86827869276E+02 -0.22654788506E+03  0.71937906808E+03  0.65864270000E+03 0.  1.
    8880022    1    1    2    0    0 -0.15758494288E+03 -0.86827869276E+02  0.12591764655E+03  0.26761726370E+03  0.15294330000E+03 0.  0.
<mgrwt>
<rscale>  0 0.52360334E+03</rscale>
<asrwt>0</asrwt>
<pdfrwt beam="1">  1        2 0.68182007E-01 0.68277544E+03</pdfrwt>
<pdfrwt beam="2">  1       -2 0.83663582E-01 0.68277544E+03</pdfrwt>
<totfact> 0.89700536E+01</totfact>
</mgrwt>
</event>
<event>
 4    2  0.2930016E-007  0.7791802E+03  0.7818608E-02  0.9757766E-01
         -2   -1    0    0    0  501 -0.00000000000E+00  0.00000000000E+00  0.46921199834E+03  0.46921199834E+03  0.25500000000E-02 0.  1.
          2   -1    0    0  501    0  0.00000000000E+00 -0.00000000000E+00 -0.15240659132E+04  0.15240659132E+04  0.25500000000E-02 0. -1.
    8880023    1    1    2    0    0 -0.17074899490E+03 -0.37967931666E+03 -0.12779956381E+04  0.14967947956E+04  0.65864270000E+03 0.  0.
    8880022    1    1    2    0    0  0.17074899490E+03  0.37967931666E+03  0.22314172327E+03  0.49648311596E+03  0.15294330000E+03 0.  0.
<mgrwt>
<rscale>  0 0.67679148E+03</rscale>
<asrwt>0</asrwt>
<pdfrwt beam="1">  1        2 0.23447168E+00 0.77918022E+03</pdfrwt>
<pdfrwt beam="2">  1       -2 0.72186462E-01 0.77918022E+03</pdfrwt>
<totfact> 0.21821001E+01</totfact>
</mgrwt>
</event>
<event>
 4    2  0.2930016E-007  0.7951636E+03  0.7818608E-02  0.9721353E-01
          2   -1    0    0  501    0  0.00000000000E+00  0.00000000000E+00  0.29827705924E+04  0.29827705924E+04  0.25500000000E-02 0. -1.
         -2   -1    0    0    0  501 -0.00000000000E+00 -0.00000000000E+00 -0.29830393798E+03  0.29830393799E+03  0.25500000000E-02 0.  1.
    8880023    1    1    2    0    0 -0.43758728291E+03 -0.83619612359E+02  0.26950715548E+04  0.28099280705E+04  0.65864270000E+03 0. -1.
    8880022    1    1    2    0    0  0.43758728291E+03  0.83619612359E+02 -0.10604900360E+02  0.47114645988E+03  0.15294330000E+03 0.  0.
<mgrwt>
<rscale>  0 0.69759574E+03</rscale>
<asrwt>0</asrwt>
<pdfrwt beam="1">  1        2 0.45888779E+00 0.79516355E+03</pdfrwt>
<pdfrwt beam="2">  1       -2 0.45892913E-01 0.79516355E+03</pdfrwt>
<totfact> 0.84783570E+00</totfact>
</mgrwt>
</event>
<event>
 4    2  0.3518175E-007  0.9745383E+03  0.7818608E-02  0.9415655E-01
          2   -1    0    0  501    0  0.00000000000E+00  0.00000000000E+00  0.22163405090E+04  0.22163405090E+04  0.25500000000E-02 0. -1.
         -2   -1    0    0    0  501 -0.00000000000E+00 -0.00000000000E+00 -0.14125727654E+04  0.14125727654E+04  0.25500000000E-02 0.  1.
    8880023    1    1    2    0    0  0.43897373075E+03  0.56852157373E+03  0.20002567593E+04  0.22250285449E+04  0.65864270000E+03 0. -1.
    8880022    1    1    2    0    0 -0.43897373075E+03 -0.56852157373E+03 -0.11964890158E+04  0.14038847296E+04  0.15294330000E+03 0.  0.
<mgrwt>
<rscale>  0 0.90798491E+03</rscale>
<asrwt>0</asrwt>
<pdfrwt beam="1">  1        2 0.34097547E+00 0.97453831E+03</pdfrwt>
<pdfrwt beam="2">  1       -2 0.21731889E+00 0.97453831E+03</pdfrwt>
<totfact> 0.52347323E-01</totfact>
</mgrwt>
</event>
<event>
 4    2  0.2930016E-007  0.7080781E+03  0.7818608E-02  0.9965208E-01
          2   -1    0    0  501    0  0.00000000000E+00  0.00000000000E+00  0.10321274714E+04  0.10321274714E+04  0.25500000000E-02 0. -1.
         -2   -1    0    0    0  501 -0.00000000000E+00 -0.00000000000E+00 -0.44032718870E+03  0.44032718871E+03  0.25500000000E-02 0.  1.
    8880023    1    1    2    0    0  0.16507740481E+03  0.20078292477E+03  0.82792997233E+03  0.10894230481E+04  0.65864270000E+03 0. -1.
    8880022    1    1    2    0    0 -0.16507740481E+03 -0.20078292477E+03 -0.23612968961E+03  0.38303161200E+03  0.15294330000E+03 0.  0.
<mgrwt>
<rscale>  0 0.57202468E+03</rscale>
<asrwt>0</asrwt>
<pdfrwt beam="1">  1        2 0.15878884E+00 0.70807806E+03</pdfrwt>
<pdfrwt beam="2">  1       -2 0.67742645E-01 0.70807806E+03</pdfrwt>
<totfact> 0.48914719E+01</totfact>
</mgrwt>
</event>
<event>
 4    2  0.2930016E-007  0.8081446E+03  0.7818608E-02  0.9693455E-01
         -2   -1    0    0    0  501 -0.00000000000E+00  0.00000000000E+00  0.10156681911E+04  0.10156681911E+04  0.25500000000E-02 0.  1.
          2   -1    0    0  501    0  0.00000000000E+00 -0.00000000000E+00 -0.60685406761E+03  0.60685406761E+03  0.25500000000E-02 0. -1.
    8880023    1    1    2    0    0  0.45804712517E+03 -0.97367268268E+02 -0.20668671118E+03  0.83415655404E+03  0.65864270000E+03 0. -1.
    8880022    1    1    2    0    0 -0.45804712517E+03  0.97367268268E+02  0.61550083463E+03  0.78836570463E+03  0.15294330000E+03 0.  0.
<mgrwt>
<rscale>  0 0.71407840E+03</rscale>
<asrwt>0</asrwt>
<pdfrwt beam="1">  1        2 0.93362165E-01 0.80814464E+03</pdfrwt>
<pdfrwt beam="2">  1       -2 0.15625664E+00 0.80814464E+03</pdfrwt>
<totfact> 0.13261570E+01</totfact>
</mgrwt>
</event>
<event>
 4    2  0.2930016E-007  0.6959518E+03  0.7818608E-02  0.1001443E+00
          2   -1    0    0  501    0  0.00000000000E+00  0.00000000000E+00  0.54005785076E+03  0.54005785077E+03  0.25500000000E-02 0. -1.
         -2   -1    0    0    0  501 -0.00000000000E+00 -0.00000000000E+00 -0.62547172697E+03  0.62547172698E+03  0.25500000000E-02 0.  1.
    8880023    1    1    2    0    0  0.22466149633E+03  0.81171359523E+01  0.24482471091E+03  0.73775878250E+03  0.65864270000E+03 0. -1.
    8880022    1    1    2    0    0 -0.22466149633E+03 -0.81171359523E+01 -0.33023858711E+03  0.42777079524E+03  0.15294330000E+03 0.  0.
<mgrwt>
<rscale>  0 0.55022104E+03</rscale>
<asrwt>0</asrwt>
<pdfrwt beam="1">  1        2 0.83085824E-01 0.69595178E+03</pdfrwt>
<pdfrwt beam="2">  1       -2 0.96226419E-01 0.69595178E+03</pdfrwt>
<totfact> 0.51679414E+01</totfact>
</mgrwt>
</event>
<event>
 4    2  0.2930016E-007  0.7287951E+03  0.7818608E-02  0.9893877E-01
          2   -1    0    0  501    0  0.00000000000E+00  0.00000000000E+00  0.16089420497E+04  0.16089420497E+04  0.25500000000E-02 0. -1.
         -2   -1    0    0    0  501 -0.00000000000E+00 -0.00000000000E+00 -0.73074384939E+03  0.73074384940E+03  0.25500000000E-02 0.  1.
    8880023    1    1    2    0    0  0.31195851031E+03 -0.37424506055E+01  0.14772049915E+04  0.16472027535E+04  0.65864270000E+03 0. -1.
    8880022    1    1    2    0    0 -0.31195851031E+03  0.37424506055E+01 -0.59900679115E+03  0.69248314560E+03  0.15294330000E+03 0.  0.
<mgrwt>
<rscale>  0 0.60558930E+03</rscale>
<asrwt>0</asrwt>
<pdfrwt beam="1">  1        2 0.24752954E+00 0.72879512E+03</pdfrwt>
<pdfrwt beam="2">  1       -2 0.11242213E+00 0.72879512E+03</pdfrwt>
<totfact> 0.70782328E+00</totfact>
</mgrwt>
</event>
<event>
 4    2  0.2930016E-007  0.1661745E+04  0.7818608E-02  0.8803134E-01
          2   -1    0    0  501    0  0.00000000000E+00  0.00000000000E+00  0.21337110826E+04  0.21337110826E+04  0.25500000000E-02 0. -1.
         -2   -1    0    0    0  501 -0.00000000000E+00 -0.00000000000E+00 -0.20023955992E+04  0.20023955992E+04  0.25500000000E-02 0.  1.
    8880023    1    1    2    0    0  0.10948414212E+04 -0.10625017158E+04  0.13789293746E+04  0.21593619567E+04  0.65864270000E+03 0. -1.
    8880022    1    1    2    0    0 -0.10948414212E+04  0.10625017158E+04 -0.12476138912E+04  0.19767447251E+04  0.15294330000E+03 0.  0.
<mgrwt>
<rscale>  0 0.16286564E+04</rscale>
<asrwt>0</asrwt>
<pdfrwt beam="1">  1        2 0.32826324E+00 0.16617454E+04</pdfrwt>
<pdfrwt beam="2">  1       -2 0.30806086E+00 0.16617454E+04</pdfrwt>
<totfact> 0.14684080E-01</totfact>
</mgrwt>
</event>
<event>
 4    2  0.2930016E-007  0.7493114E+03  0.7818608E-02  0.9833609E-01
         -2   -1    0    0    0  501 -0.00000000000E+00  0.00000000000E+00  0.62439788060E+03  0.62439788060E+03  0.25500000000E-02 0.  1.
          2   -1    0    0  501    0  0.00000000000E+00 -0.00000000000E+00 -0.91060587388E+03  0.91060587388E+03  0.25500000000E-02 0. -1.
    8880023    1    1    2    0    0 -0.20192876169E+03 -0.29475780380E+03 -0.65795990450E+03  0.99718545411E+03  0.65864270000E+03 0.  0.
    8880022    1    1    2    0    0  0.20192876169E+03  0.29475780380E+03  0.37175191122E+03  0.53781830037E+03  0.15294330000E+03 0.  0.
<mgrwt>
<rscale>  0 0.63589661E+03</rscale>
<asrwt>0</asrwt>
<pdfrwt beam="1">  1        2 0.14009321E+00 0.74931141E+03</pdfrwt>
<pdfrwt beam="2">  1       -2 0.96061213E-01 0.74931141E+03</pdfrwt>
<totfact> 0.26592564E+01</totfact>
</mgrwt>
</event>
<event>
 4    2  0.2930016E-007  0.1066003E+04  0.7818608E-02  0.9299886E-01
         -2   -1    0    0    0  501 -0.00000000000E+00  0.00000000000E+00  0.72488721065E+03  0.72488721066E+03  0.25500000000E-02 0.  1.
          2   -1    0    0  501    0  0.00000000000E+00 -0.00000000000E+00 -0.20292923453E+04  0.20292923453E+04  0.25500000000E-02 0. -1.
    8880023    1    1    2    0    0 -0.79946798012E+03 -0.25180115793E+03 -0.15374498624E+04  0.18708594709E+04  0.65864270000E+03 0. -1.
    8880022    1    1    2    0    0  0.79946798012E+03  0.25180115793E+03  0.23304472779E+03  0.88332008498E+03  0.15294330000E+03 0.  0.
<mgrwt>
<rscale>  0 0.10079334E+04</rscale>
<asrwt>0</asrwt>
<pdfrwt beam="1">  1        2 0.31219882E+00 0.10660033E+04</pdfrwt>
<pdfrwt beam="2">  1       -2 0.11152111E+00 0.10660033E+04</pdfrwt>
<totfact> 0.40567132E+00</totfact>
</mgrwt>
</event>
<event>
 4    2  0.2930016E-007  0.6682808E+03  0.7818608E-02  0.1016926E+00
         -2   -1    0    0    0  501 -0.00000000000E+00  0.00000000000E+00  0.13421835196E+04  0.13421835196E+04  0.25500000000E-02 0.  1.
          2   -1    0    0  501    0  0.00000000000E+00 -0.00000000000E+00 -0.17304836656E+03  0.17304836658E+03  0.25500000000E-02 0. -1.
    8880023    1    1    2    0    0  0.91431966167E+01  0.11271811513E+03  0.54371074390E+03  0.86152222886E+03  0.65864270000E+03 0. -1.
    8880022    1    1    2    0    0 -0.91431966167E+01 -0.11271811513E+03  0.62542440917E+03  0.65370965736E+03  0.15294330000E+03 0.  0.
<mgrwt>
<rscale>  0 0.48812239E+03</rscale>
<asrwt>0</asrwt>
<pdfrwt beam="1">  1        2 0.26622824E-01 0.66828076E+03</pdfrwt>
<pdfrwt beam="2">  1       -2 0.20648978E+00 0.66828076E+03</pdfrwt>
<totfact> 0.25189187E+01</totfact>
</mgrwt>
</event>
<event>
 4    2  0.2930016E-007  0.1167370E+04  0.7818608E-02  0.9189512E-01
          2   -1    0    0  501    0  0.00000000000E+00  0.00000000000E+00  0.30502145011E+04  0.30502145011E+04  0.25500000000E-02 0. -1.
         -2   -1    0    0    0  501 -0.00000000000E+00 -0.00000000000E+00 -0.71303981206E+03  0.71303981207E+03  0.25500000000E-02 0.  1.
    8880023    1    1    2    0    0  0.76316948582E+03 -0.58865562522E+03  0.25136994490E+04  0.27715407692E+04  0.65864270000E+03 0.  0.
    8880022    1    1    2    0    0 -0.76316948582E+03  0.58865562522E+03 -0.17652476005E+03  0.99171354388E+03  0.15294330000E+03 0.  0.
<mgrwt>
<rscale>  0 0.11162338E+04</rscale>
<asrwt>0</asrwt>
<pdfrwt beam="1">  1        2 0.46926377E+00 0.11673703E+04</pdfrwt>
<pdfrwt beam="2">  1       -2 0.10969843E+00 0.11673703E+04</pdfrwt>
<totfact> 0.10648549E+00</totfact>
</mgrwt>
</event>
<event>
 4    2  0.2930016E-007  0.6645970E+03  0.7818608E-02  0.1019874E+00
          2   -1    0    0  501    0  0.00000000000E+00  0.00000000000E+00  0.59076739153E+03  0.59076739154E+03  0.25500000000E-02 0. -1.
         -2   -1    0    0    0  501 -0.00000000000E+00 -0.00000000000E+00 -0.71534413839E+03  0.71534413840E+03  0.25500000000E-02 0.  1.
    8880023    1    1    2    0    0  0.41859796113E+02 -0.78273184728E+02  0.38407654356E+03  0.76759620345E+03  0.65864270000E+03 0. -1.
    8880022    1    1    2    0    0 -0.41859796113E+02  0.78273184728E+02 -0.50865329043E+03  0.53851532648E+03  0.15294330000E+03 0.  0.
<mgrwt>
<rscale>  0 0.47732126E+03</rscale>
<asrwt>0</asrwt>
<pdfrwt beam="1">  1        2 0.90887291E-01 0.66459698E+03</pdfrwt>
<pdfrwt beam="2">  1       -2 0.11005294E+00 0.66459698E+03</pdfrwt>
<totfact> 0.33822712E+01</totfact>
</mgrwt>
</event>
<event>
 4    2  0.2930016E-007  0.6616490E+03  0.7818608E-02  0.1022527E+00
         -2   -1    0    0    0  501 -0.00000000000E+00  0.00000000000E+00  0.16695037123E+03  0.16695037125E+03  0.25500000000E-02 0.  1.
          2   -1    0    0  501    0  0.00000000000E+00 -0.00000000000E+00 -0.13819759109E+04  0.13819759109E+04  0.25500000000E-02 0. -1.
    8880023    1    1    2    0    0  0.83002907219E+00  0.62995729153E+02 -0.12150453219E+04  0.13835152660E+04  0.65864270000E+03 0. -1.
    8880022    1    1    2    0    0 -0.83002907219E+00 -0.62995729153E+02  0.19782234976E-01  0.16541101610E+03  0.15294330000E+03 0.  0.
<mgrwt>
<rscale>  0 0.46785560E+03</rscale>
<asrwt>0</asrwt>
<pdfrwt beam="1">  1        2 0.21261167E+00 0.66164897E+03</pdfrwt>
<pdfrwt beam="2">  1       -2 0.25684673E-01 0.66164897E+03</pdfrwt>
<totfact> 0.20627491E+02</totfact>
</mgrwt>
</event>
<event>
 4    2  0.2930016E-007  0.1076334E+04  0.7818608E-02  0.9287874E-01
          2   -1    0    0  501    0  0.00000000000E+00  0.00000000000E+00  0.26872627099E+04  0.26872627099E+04  0.25500000000E-02 0. -1.
         -2   -1    0    0    0  501 -0.00000000000E+00 -0.00000000000E+00 -0.54801242570E+03  0.54801242570E+03  0.25500000000E-02 0.  1.
    8880023    1    1    2    0    0  0.77671632214E+03 -0.34841977725E+03  0.21113956232E+04  0.23699127136E+04  0.65864270000E+03 0.  0.
    8880022    1    1    2    0    0 -0.77671632214E+03  0.34841977725E+03  0.27854661017E+02  0.86536242200E+03  0.15294330000E+03 0.  0.
<mgrwt>
<rscale>  0 0.10190688E+04</rscale>
<asrwt>0</asrwt>
<pdfrwt beam="1">  1        2 0.41342503E+00 0.10763340E+04</pdfrwt>
<pdfrwt beam="2">  1       -2 0.84309604E-01 0.10763340E+04</pdfrwt>
<totfact> 0.33276642E+00</totfact>
</mgrwt>
</event>
<event>
 4    2  0.2930016E-007  0.7026357E+03  0.7818608E-02  0.9986438E-01
          2   -1    0    0  501    0  0.00000000000E+00  0.00000000000E+00  0.10902197703E+04  0.10902197703E+04  0.25500000000E-02 0. -1.
         -2   -1    0    0    0  501 -0.00000000000E+00 -0.00000000000E+00 -0.58089242535E+03  0.58089242535E+03  0.25500000000E-02 0.  1.
    8880023    1    1    2    0    0  0.97353444027E+02  0.22451970078E+03  0.92715167909E+03  0.11633173391E+04  0.65864270000E+03 0. -1.
    8880022    1    1    2    0    0 -0.97353444027E+02 -0.22451970078E+03 -0.41782433416E+03  0.50779485655E+03  0.15294330000E+03 0.  0.
<mgrwt>
<rscale>  0 0.56248929E+03</rscale>
<asrwt>0</asrwt>
<pdfrwt beam="1">  1        2 0.16772612E+00 0.70263575E+03</pdfrwt>
<pdfrwt beam="2">  1       -2 0.89368066E-01 0.70263575E+03</pdfrwt>
<totfact> 0.24267117E+01</totfact>
</mgrwt>
</event>
<event>
 4    2  0.2930016E-007  0.6621004E+03  0.7818608E-02  0.1022101E+00
         -2   -1    0    0    0  501 -0.00000000000E+00  0.00000000000E+00  0.75275666219E+03  0.75275666219E+03  0.25500000000E-02 0.  1.
          2   -1    0    0  501    0  0.00000000000E+00 -0.00000000000E+00 -0.13577491227E+04  0.13577491227E+04  0.25500000000E-02 0. -1.
    8880023    1    1    2    0    0  0.65460738036E+02  0.16782490220E+02 -0.12659976109E+04  0.14286801312E+04  0.65864270000E+03 0. -1.
    8880022    1    1    2    0    0 -0.65460738036E+02 -0.16782490220E+02  0.66100515038E+03  0.68182565371E+03  0.15294330000E+03 0.  0.
<mgrwt>
<rscale>  0 0.46936096E+03</rscale>
<asrwt>0</asrwt>
<pdfrwt beam="1">  1        2 0.20888448E+00 0.66210042E+03</pdfrwt>
<pdfrwt beam="2">  1       -2 0.11580872E+00 0.66210042E+03</pdfrwt>
<totfact> 0.91822344E+00</totfact>
</mgrwt>
</event>
<event>
 4    2  0.2930016E-007  0.8817316E+03  0.7818608E-02  0.9556018E-01
         -2   -1    0    0    0  501 -0.00000000000E+00  0.00000000000E+00  0.17763123533E+03  0.17763123535E+03  0.25500000000E-02 0.  1.
          2   -1    0    0  501    0  0.00000000000E+00 -0.00000000000E+00 -0.40626891761E+04  0.40626891761E+04  0.25500000000E-02 0. -1.
    8880023    1    1    2    0    0  0.50292753960E+03 -0.30117166819E+03 -0.32294416392E+04  0.33476475309E+04  0.65864270000E+03 0.  0.
    8880022    1    1    2    0    0 -0.50292753960E+03  0.30117166819E+03 -0.65561630157E+03  0.89267288057E+03  0.15294330000E+03 0.  0.
<mgrwt>
<rscale>  0 0.80276852E+03</rscale>
<asrwt>0</asrwt>
<pdfrwt beam="1">  1        2 0.62502903E+00 0.88173164E+03</pdfrwt>
<pdfrwt beam="2">  1       -2 0.27327885E-01 0.88173164E+03</pdfrwt>
<totfact> 0.39955267E+00</totfact>
</mgrwt>
</event>
<event>
 4    2  0.2930016E-007  0.6818621E+03  0.7818608E-02  0.1008289E+00
         -2   -1    0    0    0  501 -0.00000000000E+00  0.00000000000E+00  0.41046856211E+03  0.41046856212E+03  0.25500000000E-02 0.  1.
          2   -1    0    0  501    0  0.00000000000E+00 -0.00000000000E+00 -0.24173112920E+04  0.24173112920E+04  0.25500000000E-02 0. -1.
    8880023    1    1    2    0    0 -0.17629940490E+03 -0.66502410420E+01 -0.23307763658E+04  0.24284674960E+04  0.65864270000E+03 0. -1.
    8880022    1    1    2    0    0  0.17629940490E+03  0.66502410420E+01  0.32393363586E+03  0.39931235810E+03  0.15294330000E+03 0.  0.
<mgrwt>
<rscale>  0 0.52160202E+03</rscale>
<asrwt>0</asrwt>
<pdfrwt beam="1">  1        2 0.37189404E+00 0.68186209E+03</pdfrwt>
<pdfrwt beam="2">  1       -2 0.63149011E-01 0.68186209E+03</pdfrwt>
<totfact> 0.95564005E+00</totfact>
</mgrwt>
</event>
<event>
 4    2  0.3878829E-007  0.6679651E+03  0.7818608E-02  0.1017166E+00
          2   -1    0    0  501    0  0.00000000000E+00  0.00000000000E+00  0.20319744054E+04  0.20319744054E+04  0.25500000000E-02 0. -1.
         -2   -1    0    0    0  501 -0.00000000000E+00 -0.00000000000E+00 -0.68147816601E+03  0.68147816602E+03  0.25500000000E-02 0.  1.
    8880023    1    1    2    0    0  0.10836905750E+03  0.24967019970E+02  0.19624151900E+04  0.20729811357E+04  0.65864270000E+03 0.  0.
    8880022    1    1    2    0    0 -0.10836905750E+03 -0.24967019970E+02 -0.61191895067E+03  0.64047143567E+03  0.15294330000E+03 0.  0.
<mgrwt>
<rscale>  0 0.48723480E+03</rscale>
<asrwt>0</asrwt>
<pdfrwt beam="1">  1        2 0.31261145E+00 0.66796513E+03</pdfrwt>
<pdfrwt beam="2">  1       -2 0.10484280E+00 0.66796513E+03</pdfrwt>
<totfact> 0.49774101E+00</totfact>
</mgrwt>
</event>
<event>
 4    2  0.2930016E-007  0.1228386E+04  0.7818608E-02  0.9130011E-01
         -2   -1    0    0    0  501 -0.00000000000E+00  0.00000000000E+00  0.83978339078E+03  0.83978339078E+03  0.25500000000E-02 0.  1.
          2   -1    0    0  501    0  0.00000000000E+00 -0.00000000000E+00 -0.22396606397E+04  0.22396606397E+04  0.25500000000E-02 0. -1.
    8880023    1    1    2    0    0  0.10152208439E+04  0.21083120113E+03 -0.15951428198E+04  0.20133092110E+04  0.65864270000E+03 0.  0.
    8880022    1    1    2    0    0 -0.10152208439E+04 -0.21083120113E+03  0.19526557085E+03  0.10661348195E+04  0.15294330000E+03 0.  1.
<mgrwt>
<rscale>  0 0.11805979E+04</rscale>
<asrwt>0</asrwt>
<pdfrwt beam="1">  1        2 0.34456317E+00 0.12283865E+04</pdfrwt>
<pdfrwt beam="2">  1       -2 0.12919745E+00 0.12283865E+04</pdfrwt>
<totfact> 0.21072422E+00</totfact>
</mgrwt>
</event>
<event>
 4    2  0.2930016E-007  0.6865807E+03  0.7818608E-02  0.1005822E+00
         -2   -1    0    0    0  501 -0.00000000000E+00  0.00000000000E+00  0.15861907411E+03  0.15861907413E+03  0.25500000000E-02 0.  1.
          2   -1    0    0  501    0  0.00000000000E+00 -0.00000000000E+00 -0.18469516910E+04  0.18469516910E+04  0.25500000000E-02 0. -1.
    8880023    1    1    2    0    0  0.19214139377E+03  0.25779926254E+02 -0.16037826832E+04  0.17445664278E+04  0.65864270000E+03 0. -1.
    8880022    1    1    2    0    0 -0.19214139377E+03 -0.25779926254E+02 -0.84549933668E+02  0.26100433731E+03  0.15294330000E+03 0.  0.
<mgrwt>
<rscale>  0 0.53169468E+03</rscale>
<asrwt>0</asrwt>
<pdfrwt beam="1">  1        2 0.28414640E+00 0.68658075E+03</pdfrwt>
<pdfrwt beam="2">  1       -2 0.24402936E-01 0.68658075E+03</pdfrwt>
<totfact> 0.12520319E+02</totfact>
</mgrwt>
</event>
<event>
 4    2  0.2930016E-007  0.6612278E+03  0.7818608E-02  0.1022932E+00
         -2   -1    0    0    0  501 -0.00000000000E+00  0.00000000000E+00  0.16598571326E+03  0.16598571328E+03  0.25500000000E-02 0.  1.
          2   -1    0    0  501    0  0.00000000000E+00 -0.00000000000E+00 -0.32243750284E+04  0.32243750284E+04  0.25500000000E-02 0. -1.
    8880023    1    1    2    0    0  0.58123716365E+02 -0.57951057487E+01 -0.31389898619E+04  0.32078777266E+04  0.65864270000E+03 0. -1.
    8880022    1    1    2    0    0 -0.58123716365E+02  0.57951057487E+01  0.80600546711E+02  0.18248301510E+03  0.15294330000E+03 0.  0.
<mgrwt>
<rscale>  0 0.46643105E+03</rscale>
<asrwt>0</asrwt>
<pdfrwt beam="1">  1        2 0.49605765E+00 0.66122776E+03</pdfrwt>
<pdfrwt beam="2">  1       -2 0.25536266E-01 0.66122776E+03</pdfrwt>
<totfact> 0.18696616E+01</totfact>
</mgrwt>
</event>
<event>
 4    2  0.2930016E-007  0.6633544E+03  0.7818608E-02  0.1020956E+00
          2   -1    0    0  501    0  0.00000000000E+00  0.00000000000E+00  0.32215778053E+03  0.32215778054E+03  0.25500000000E-02 0. -1.
         -2   -1    0    0    0  501 -0.00000000000E+00 -0.00000000000E+00 -0.61645212259E+03  0.61645212260E+03  0.25500000000E-02 0.  1.
    8880023    1    1    2    0    0 -0.77116341194E+02  0.16792141750E+02 -0.86770844155E+02  0.66900544973E+03  0.65864270000E+03 0. -1.
    8880022    1    1    2    0    0  0.77116341194E+02 -0.16792141750E+02 -0.20752349791E+03  0.26960445342E+03  0.15294330000E+03 0.  1.
<mgrwt>
<rscale>  0 0.47343285E+03</rscale>
<asrwt>0</asrwt>
<pdfrwt beam="1">  1        2 0.49562736E-01 0.66335444E+03</pdfrwt>
<pdfrwt beam="2">  1       -2 0.94838788E-01 0.66335444E+03</pdfrwt>
<totfact> 0.96225277E+01</totfact>
</mgrwt>
</event>
<event>
 4    2  0.2930016E-007  0.8497324E+03  0.7818608E-02  0.9612095E-01
         -2   -1    0    0    0  501 -0.00000000000E+00  0.00000000000E+00  0.28021512812E+03  0.28021512813E+03  0.25500000000E-02 0.  1.
          2   -1    0    0  501    0  0.00000000000E+00 -0.00000000000E+00 -0.34751928279E+04  0.34751928279E+04  0.25500000000E-02 0. -1.
    8880023    1    1    2    0    0 -0.50058277084E+03 -0.19404062984E+03 -0.30672094905E+04  0.31827376802E+04  0.65864270000E+03 0.  0.
    8880022    1    1    2    0    0  0.50058277084E+03  0.19404062984E+03 -0.12776820935E+03  0.57267027584E+03  0.15294330000E+03 0.  0.
<mgrwt>
<rscale>  0 0.76500790E+03</rscale>
<asrwt>0</asrwt>
<pdfrwt beam="1">  1        2 0.53464502E+00 0.84973236E+03</pdfrwt>
<pdfrwt beam="2">  1       -2 0.43110022E-01 0.84973236E+03</pdfrwt>
<totfact> 0.45862331E+00</totfact>
</mgrwt>
</event>
<event>
 4    2  0.2930016E-007  0.7115503E+03  0.7818608E-02  0.9952288E-01
         -2   -1    0    0    0  501 -0.00000000000E+00  0.00000000000E+00  0.87591290655E+03  0.87591290656E+03  0.25500000000E-02 0.  1.
          2   -1    0    0  501    0  0.00000000000E+00 -0.00000000000E+00 -0.48613701226E+03  0.48613701227E+03  0.25500000000E-02 0. -1.
    8880023    1    1    2    0    0 -0.25482500941E+03  0.86935907796E+02 -0.16160261214E+03  0.72967064351E+03  0.65864270000E+03 0. -1.
    8880022    1    1    2    0    0  0.25482500941E+03 -0.86935907796E+02  0.55137850643E+03  0.63237927532E+03  0.15294330000E+03 0.  0.
<mgrwt>
<rscale>  0 0.57792730E+03</rscale>
<asrwt>0</asrwt>
<pdfrwt beam="1">  1        2 0.74790311E-01 0.71155031E+03</pdfrwt>
<pdfrwt beam="2">  1       -2 0.13475583E+00 0.71155031E+03</pdfrwt>
<totfact> 0.25617616E+01</totfact>
</mgrwt>
</event>
<event>
 4    2  0.2930016E-007  0.7945248E+03  0.7818608E-02  0.9722762E-01
         -2   -1    0    0    0  501 -0.00000000000E+00  0.00000000000E+00  0.14416045270E+04  0.14416045270E+04  0.25500000000E-02 0.  1.
          2   -1    0    0  501    0  0.00000000000E+00 -0.00000000000E+00 -0.33651958295E+03  0.33651958296E+03  0.25500000000E-02 0. -1.
    8880023    1    1    2    0    0 -0.42555917012E+03 -0.12790186476E+03  0.30664042432E+03  0.85164432152E+03  0.65864270000E+03 0. -1.
    8880022    1    1    2    0    0  0.42555917012E+03  0.12790186476E+03  0.79844451975E+03  0.92647978846E+03  0.15294330000E+03 0.  1.
<mgrwt>
<rscale>  0 0.69677581E+03</rscale>
<asrwt>0</asrwt>
<pdfrwt beam="1">  1        2 0.51772243E-01 0.79452483E+03</pdfrwt>
<pdfrwt beam="2">  1       -2 0.22178531E+00 0.79452483E+03</pdfrwt>
<totfact> 0.94584127E+00</totfact>
</mgrwt>
</event>
<event>
 4    2  0.2930016E-007  0.7463977E+03  0.7818608E-02  0.9841688E-01
          2   -1    0    0  501    0  0.00000000000E+00  0.00000000000E+00  0.15036032127E+04  0.15036032127E+04  0.25500000000E-02 0. -1.
         -2   -1    0    0    0  501 -0.00000000000E+00 -0.00000000000E+00 -0.22131969053E+03  0.22131969054E+03  0.25500000000E-02 0.  1.
    8880023    1    1    2    0    0  0.81996522847E+02  0.34143203237E+03  0.10060637119E+04  0.12527065343E+04  0.65864270000E+03 0. -1.
    8880022    1    1    2    0    0 -0.81996522847E+02 -0.34143203237E+03  0.27621981031E+03  0.47221636896E+03  0.15294330000E+03 0.  1.
<mgrwt>
<rscale>  0 0.63172506E+03</rscale>
<asrwt>0</asrwt>
<pdfrwt beam="1">  1        2 0.23132357E+00 0.74639766E+03</pdfrwt>
<pdfrwt beam="2">  1       -2 0.34049184E-01 0.74639766E+03</pdfrwt>
<totfact> 0.10389309E+02</totfact>
</mgrwt>
</event>
<event>
 4    2  0.2930016E-007  0.1015632E+04  0.7818608E-02  0.9361386E-01
         -2   -1    0    0    0  501 -0.00000000000E+00  0.00000000000E+00  0.10577239436E+04  0.10577239436E+04  0.25500000000E-02 0.  1.
          2   -1    0    0  501    0  0.00000000000E+00 -0.00000000000E+00 -0.87381258286E+03  0.87381258286E+03  0.25500000000E-02 0. -1.
    8880023    1    1    2    0    0 -0.11382321893E+03  0.76468432935E+03 -0.23001756360E+03  0.10413530307E+04  0.65864270000E+03 0.  0.
    8880022    1    1    2    0    0  0.11382321893E+03 -0.76468432935E+03  0.41392892435E+03  0.89018349578E+03  0.15294330000E+03 0.  0.
<mgrwt>
<rscale>  0 0.95322738E+03</rscale>
<asrwt>0</asrwt>
<pdfrwt beam="1">  1        2 0.13443271E+00 0.10156319E+04</pdfrwt>
<pdfrwt beam="2">  1       -2 0.16272676E+00 0.10156319E+04</pdfrwt>
<totfact> 0.72759147E+00</totfact>
</mgrwt>
</event>
<event>
 4    2  0.2930016E-007  0.7668944E+03  0.7818608E-02  0.9787575E-01
          2   -1    0    0  501    0  0.00000000000E+00  0.00000000000E+00  0.99936976469E+03  0.99936976469E+03  0.25500000000E-02 0. -1.
         -2   -1    0    0    0  501 -0.00000000000E+00 -0.00000000000E+00 -0.92984870733E+03  0.92984870734E+03  0.25500000000E-02 0.  1.
    8880023    1    1    2    0    0 -0.33478670760E+03 -0.20551072273E+03  0.78585974025E+03  0.10980448690E+04  0.65864270000E+03 0. -1.
    8880022    1    1    2    0    0  0.33478670760E+03  0.20551072273E+03 -0.71633868289E+03  0.83117360302E+03  0.15294330000E+03 0.  0.
<mgrwt>
<rscale>  0 0.66033631E+03</rscale>
<asrwt>0</asrwt>
<pdfrwt beam="1">  1        2 0.15374919E+00 0.76689439E+03</pdfrwt>
<pdfrwt beam="2">  1       -2 0.14305365E+00 0.76689439E+03</pdfrwt>
<totfact> 0.86955263E+00</totfact>
</mgrwt>
</event>
<event>
 4    2  0.2930016E-007  0.8082825E+03  0.7818608E-02  0.9693166E-01
         -2   -1    0    0    0  501 -0.00000000000E+00  0.00000000000E+00  0.38673173001E+03  0.38673173002E+03  0.25500000000E-02 0.  1.
          2   -1    0    0  501    0  0.00000000000E+00 -0.00000000000E+00 -0.11793148008E+04  0.11793148008E+04  0.25500000000E-02 0. -1.
    8880023    1    1    2    0    0  0.46473071619E+03 -0.59461731338E+02 -0.68975497094E+03  0.10625829202E+04  0.65864270000E+03 0.  0.
    8880022    1    1    2    0    0 -0.46473071619E+03  0.59461731338E+02 -0.10282809980E+03  0.50346361059E+03  0.15294330000E+03 0.  0.
<mgrwt>
<rscale>  0 0.71425165E+03</rscale>
<asrwt>0</asrwt>
<pdfrwt beam="1">  1        2 0.18143304E+00 0.80828246E+03</pdfrwt>
<pdfrwt beam="2">  1       -2 0.59497190E-01 0.80828246E+03</pdfrwt>
<totfact> 0.52005837E+01</totfact>
</mgrwt>
</event>
<event>
 4    2  0.2930016E-007  0.7807130E+03  0.7818608E-02  0.9754165E-01
         -2   -1    0    0    0  501 -0.00000000000E+00  0.00000000000E+00  0.31029592438E+04  0.31029592438E+04  0.25500000000E-02 0.  1.
          2   -1    0    0  501    0  0.00000000000E+00 -0.00000000000E+00 -0.35188697655E+03  0.35188697656E+03  0.25500000000E-02 0. -1.
    8880023    1    1    2    0    0  0.41603615653E+03 -0.51152233327E+02  0.12442057348E+03  0.79056519015E+03  0.65864270000E+03 0. -1.
    8880022    1    1    2    0    0 -0.41603615653E+03  0.51152233327E+02  0.26266516937E+04  0.26642810302E+04  0.15294330000E+03 0.  0.
<mgrwt>
<rscale>  0 0.67881421E+03</rscale>
<asrwt>0</asrwt>
<pdfrwt beam="1">  1        2 0.54136456E-01 0.78071303E+03</pdfrwt>
<pdfrwt beam="2">  1       -2 0.47737837E+00 0.78071303E+03</pdfrwt>
<totfact> 0.22275961E-01</totfact>
</mgrwt>
</event>
<event>
 4    2  0.2930016E-007  0.1166769E+04  0.7818608E-02  0.9190122E-01
         -2   -1    0    0    0  501 -0.00000000000E+00  0.00000000000E+00  0.93480036535E+03  0.93480036536E+03  0.25500000000E-02 0.  1.
          2   -1    0    0  501    0  0.00000000000E+00 -0.00000000000E+00 -0.31248679897E+04  0.31248679897E+04  0.25500000000E-02 0. -1.
    8880023    1    1    2    0    0  0.87196100161E+03  0.40893107664E+03 -0.27129214611E+04  0.29531836506E+04  0.65864270000E+03 0.  0.
    8880022    1    1    2    0    0 -0.87196100161E+03 -0.40893107664E+03  0.52285383670E+03  0.11064847045E+04  0.15294330000E+03 0.  0.
<mgrwt>
<rscale>  0 0.11155973E+04</rscale>
<asrwt>0</asrwt>
<pdfrwt beam="1">  1        2 0.48074891E+00 0.11667694E+04</pdfrwt>
<pdfrwt beam="2">  1       -2 0.14381544E+00 0.11667694E+04</pdfrwt>
<totfact> 0.48205392E-01</totfact>
</mgrwt>
</event>
<event>
 4    2  0.2930016E-007  0.6822497E+03  0.7818608E-02  0.1008079E+00
         -2   -1    0    0    0  501 -0.00000000000E+00  0.00000000000E+00  0.92379940238E+03  0.92379940239E+03  0.25500000000E-02 0.  1.
          2   -1    0    0  501    0  0.00000000000E+00 -0.00000000000E+00 -0.85657785959E+03  0.85657785959E+03  0.25500000000E-02 0. -1.
    8880023    1    1    2    0    0 -0.10892654158E+03  0.14067504726E+03 -0.70036169291E+03  0.97773778056E+03  0.65864270000E+03 0. -1.
    8880022    1    1    2    0    0  0.10892654158E+03 -0.14067504726E+03  0.76758323570E+03  0.80263948142E+03  0.15294330000E+03 0.  0.
<mgrwt>
<rscale>  0 0.52245435E+03</rscale>
<asrwt>0</asrwt>
<pdfrwt beam="1">  1        2 0.13178121E+00 0.68224971E+03</pdfrwt>
<pdfrwt beam="2">  1       -2 0.14212299E+00 0.68224971E+03</pdfrwt>
<totfact> 0.11110336E+01</totfact>
</mgrwt>
</event>
<event>
 4    2  0.2930016E-007  0.8402136E+03  0.7818608E-02  0.9629778E-01
         -2   -1    0    0    0  501 -0.00000000000E+00  0.00000000000E+00  0.74698349693E+03  0.74698349694E+03  0.25500000000E-02 0.  1.
          2   -1    0    0  501    0  0.00000000000E+00 -0.00000000000E+00 -0.83558071022E+03  0.83558071022E+03  0.25500000000E-02 0. -1.
    8880023    1    1    2    0    0  0.23368453615E+02 -0.52115502012E+03  0.32355038733E+03  0.90035753955E+03  0.65864270000E+03 0.  1.
    8880022    1    1    2    0    0 -0.23368453615E+02  0.52115502012E+03 -0.41214760062E+03  0.68220666761E+03  0.15294330000E+03 0.  0.
<mgrwt>
<rscale>  0 0.75356264E+03</rscale>
<asrwt>0</asrwt>
<pdfrwt beam="1">  1        2 0.12855088E+00 0.84021357E+03</pdfrwt>
<pdfrwt beam="2">  1       -2 0.11492054E+00 0.84021357E+03</pdfrwt>
<totfact> 0.19310744E+01</totfact>
</mgrwt>
</event>
<event>
 4    2  0.2930016E-007  0.1177443E+04  0.7818608E-02  0.9179367E-01
          2   -1    0    0  501    0  0.00000000000E+00  0.00000000000E+00  0.18478407995E+04  0.18478407995E+04  0.25500000000E-02 0. -1.
         -2   -1    0    0    0  501 -0.00000000000E+00 -0.00000000000E+00 -0.11715315263E+04  0.11715315263E+04  0.25500000000E-02 0.  1.
    8880023    1    1    2    0    0 -0.71930841713E+03  0.65966417892E+03 -0.66597428890E+03  0.13527355202E+04  0.65864270000E+03 0.  0.
    8880022    1    1    2    0    0  0.71930841713E+03 -0.65966417892E+03  0.13422835621E+04  0.16666368057E+04  0.15294330000E+03 0.  0.
<mgrwt>
<rscale>  0 0.11268951E+04</rscale>
<asrwt>0</asrwt>
<pdfrwt beam="1">  1        2 0.28428320E+00 0.11774428E+04</pdfrwt>
<pdfrwt beam="2">  1       -2 0.18023562E+00 0.11774428E+04</pdfrwt>
<totfact> 0.14274998E+00</totfact>
</mgrwt>
</event>
<event>
 4    2  0.2930016E-007  0.7092610E+03  0.7818608E-02  0.9960755E-01
         -2   -1    0    0    0  501 -0.00000000000E+00  0.00000000000E+00  0.34079332988E+03  0.34079332989E+03  0.25500000000E-02 0.  1.
          2   -1    0    0  501    0  0.00000000000E+00 -0.00000000000E+00 -0.52556576239E+04  0.52556576239E+04  0.25500000000E-02 0. -1.
    8880023    1    1    2    0    0  0.26196159685E+03  0.24842208829E+02 -0.51582273332E+04  0.52067610316E+04  0.65864270000E+03 0. -1.
    8880022    1    1    2    0    0 -0.26196159685E+03 -0.24842208829E+02  0.24336303917E+03  0.38968992213E+03  0.15294330000E+03 0.  0.
<mgrwt>
<rscale>  0 0.57405050E+03</rscale>
<asrwt>0</asrwt>
<pdfrwt beam="1">  1        2 0.80856265E+00 0.70926104E+03</pdfrwt>
<pdfrwt beam="2">  1       -2 0.52429747E-01 0.70926104E+03</pdfrwt>
<totfact> 0.64276704E-02</totfact>
</mgrwt>
</event>
<event>
 4    2  0.2930016E-007  0.8106784E+03  0.7818608E-02  0.9688166E-01
          2   -1    0    0  501    0  0.00000000000E+00  0.00000000000E+00  0.16572575203E+04  0.16572575203E+04  0.25500000000E-02 0. -1.
         -2   -1    0    0    0  501 -0.00000000000E+00 -0.00000000000E+00 -0.28169917437E+03  0.28169917439E+03  0.25500000000E-02 0.  1.
    8880023    1    1    2    0    0 -0.22211441307E+03 -0.41719837451E+03  0.56450808003E+03  0.98786075683E+03  0.65864270000E+03 0.  0.
    8880022    1    1    2    0    0  0.22211441307E+03  0.41719837451E+03  0.81105026587E+03  0.95109593783E+03  0.15294330000E+03 0.  0.
<mgrwt>
<rscale>  0 0.71725802E+03</rscale>
<asrwt>0</asrwt>
<pdfrwt beam="1">  1        2 0.25496270E+00 0.81067842E+03</pdfrwt>
<pdfrwt beam="2">  1       -2 0.43338334E-01 0.81067842E+03</pdfrwt>
<totfact> 0.53207167E+01</totfact>
</mgrwt>
</event>
<event>
 4    2  0.2930016E-007  0.8520837E+03  0.7818608E-02  0.9607803E-01
         -2   -1    0    0    0  501 -0.00000000000E+00  0.00000000000E+00  0.93998581032E+03  0.93998581032E+03  0.25500000000E-02 0.  1.
          2   -1    0    0  501    0  0.00000000000E+00 -0.00000000000E+00 -0.94845158306E+03  0.94845158306E+03  0.25500000000E-02 0. -1.
    8880023    1    1    2    0    0 -0.13538841180E+03 -0.52336073166E+03 -0.62319387735E+03  0.10556596481E+04  0.65864270000E+03 0.  0.
    8880022    1    1    2    0    0  0.13538841180E+03  0.52336073166E+03  0.61472810461E+03  0.83277774533E+03  0.15294330000E+03 0.  0.
<mgrwt>
<rscale>  0 0.76781867E+03</rscale>
<asrwt>0</asrwt>
<pdfrwt beam="1">  1        2 0.14591563E+00 0.85208373E+03</pdfrwt>
<pdfrwt beam="2">  1       -2 0.14461320E+00 0.85208373E+03</pdfrwt>
<totfact> 0.90325365E+00</totfact>
</mgrwt>
</event>
<event>
 4    2  0.2930016E-007  0.1183270E+04  0.7818608E-02  0.9173559E-01
         -2   -1    0    0    0  501 -0.00000000000E+00  0.00000000000E+00  0.12604917675E+04  0.12604917675E+04  0.25500000000E-02 0.  1.
          2   -1    0    0  501    0  0.00000000000E+00 -0.00000000000E+00 -0.11035438317E+04  0.11035438317E+04  0.25500000000E-02 0. -1.
    8880023    1    1    2    0    0  0.97752454786E+03  0.10375128916E+03  0.53654379217E+03  0.12992336275E+04  0.65864270000E+03 0.  1.
    8880022    1    1    2    0    0 -0.97752454786E+03 -0.10375128916E+03 -0.37959585642E+03  0.10648019717E+04  0.15294330000E+03 0.  0.
<mgrwt>
<rscale>  0 0.11330563E+04</rscale>
<asrwt>0</asrwt>
<pdfrwt beam="1">  1        2 0.16977597E+00 0.11832704E+04</pdfrwt>
<pdfrwt beam="2">  1       -2 0.19392181E+00 0.11832704E+04</pdfrwt>
<totfact> 0.30783782E+00</totfact>
</mgrwt>
</event>
<event>
 4    2  0.2930016E-007  0.6687000E+03  0.7818608E-02  0.1016612E+00
          2   -1    0    0  501    0  0.00000000000E+00  0.00000000000E+00  0.23085962365E+04  0.23085962365E+04  0.25500000000E-02 0. -1.
         -2   -1    0    0    0  501 -0.00000000000E+00 -0.00000000000E+00 -0.15583000089E+03  0.15583000091E+03  0.25500000000E-02 0.  1.
    8880023    1    1    2    0    0 -0.11123589754E+03  0.31241228936E+02  0.21712186115E+04  0.22718604501E+04  0.65864270000E+03 0. -1.
    8880022    1    1    2    0    0  0.11123589754E+03 -0.31241228936E+02 -0.18452375860E+02  0.19256578740E+03  0.15294330000E+03 0.  0.
<mgrwt>
<rscale>  0 0.48929129E+03</rscale>
<asrwt>0</asrwt>
<pdfrwt beam="1">  1        2 0.35516863E+00 0.66869997E+03</pdfrwt>
<pdfrwt beam="2">  1       -2 0.23973848E-01 0.66869997E+03</pdfrwt>
<totfact> 0.72448263E+01</totfact>
</mgrwt>
</event>
<event>
 4    2  0.2930016E-007  0.7183552E+03  0.7818608E-02  0.9928191E-01
          2   -1    0    0  501    0  0.00000000000E+00  0.00000000000E+00  0.10851501205E+04  0.10851501205E+04  0.25500000000E-02 0. -1.
         -2   -1    0    0    0  501 -0.00000000000E+00 -0.00000000000E+00 -0.26554689456E+03  0.26554689457E+03  0.25500000000E-02 0.  1.
    8880023    1    1    2    0    0  0.24827656813E+03  0.14346676121E+03  0.70387498314E+03  0.10057207187E+04  0.65864270000E+03 0.  0.
    8880022    1    1    2    0    0 -0.24827656813E+03 -0.14346676121E+03  0.11572824278E+03  0.34497629636E+03  0.15294330000E+03 0.  0.
<mgrwt>
<rscale>  0 0.58914262E+03</rscale>
<asrwt>0</asrwt>
<pdfrwt beam="1">  1        2 0.16694618E+00 0.71835519E+03</pdfrwt>
<pdfrwt beam="2">  1       -2 0.40853368E-01 0.71835519E+03</pdfrwt>
<totfact> 0.12819798E+02</totfact>
</mgrwt>
</event>
<event>
 4    2  0.2930016E-007  0.7290917E+03  0.7818608E-02  0.9892943E-01
          2   -1    0    0  501    0  0.00000000000E+00  0.00000000000E+00  0.28177463816E+04  0.28177463816E+04  0.25500000000E-02 0. -1.
         -2   -1    0    0    0  501 -0.00000000000E+00 -0.00000000000E+00 -0.16398351300E+03  0.16398351302E+03  0.25500000000E-02 0.  1.
    8880023    1    1    2    0    0 -0.19535340241E+03 -0.24413439414E+03  0.24946532323E+04  0.25990131800E+04  0.65864270000E+03 0. -1.
    8880022    1    1    2    0    0  0.19535340241E+03  0.24413439414E+03  0.15910963627E+03  0.38271671456E+03  0.15294330000E+03 0.  0.
<mgrwt>
<rscale>  0 0.60604496E+03</rscale>
<asrwt>0</asrwt>
<pdfrwt beam="1">  1        2 0.43349944E+00 0.72909174E+03</pdfrwt>
<pdfrwt beam="2">  1       -2 0.25228233E-01 0.72909174E+03</pdfrwt>
<totfact> 0.33542456E+01</totfact>
</mgrwt>
</event>
<event>
 4    2  0.2930016E-007  0.8677521E+03  0.7818608E-02  0.9579920E-01
          2   -1    0    0  501    0  0.00000000000E+00  0.00000000000E+00  0.15771789477E+04  0.15771789477E+04  0.25500000000E-02 0. -1.
         -2   -1    0    0    0  501 -0.00000000000E+00 -0.00000000000E+00 -0.67867173694E+03  0.67867173694E+03  0.25500000000E-02 0.  1.
    8880023    1    1    2    0    0 -0.55124047338E+03 -0.12376394362E+03  0.12878256470E+04  0.15528968660E+04  0.65864270000E+03 0.  0.
    8880022    1    1    2    0    0  0.55124047338E+03  0.12376394362E+03 -0.38931843625E+03  0.70295381858E+03  0.15294330000E+03 0.  0.
<mgrwt>
<rscale>  0 0.78639594E+03</rscale>
<asrwt>0</asrwt>
<pdfrwt beam="1">  1        2 0.24264291E+00 0.86775214E+03</pdfrwt>
<pdfrwt beam="2">  1       -2 0.10441104E+00 0.86775214E+03</pdfrwt>
<totfact> 0.86479315E+00</totfact>
</mgrwt>
</event>
<event>
 4    2  0.2930016E-007  0.6970681E+03  0.7818608E-02  0.1000959E+00
          2   -1    0    0  501    0  0.00000000000E+00  0.00000000000E+00  0.20697691601E+04  0.20697691601E+04  0.25500000000E-02 0. -1.
         -2   -1    0    0    0  501 -0.00000000000E+00 -0.00000000000E+00 -0.28032604769E+03  0.28032604770E+03  0.25500000000E-02 0.  1.
    8880023    1    1    2    0    0 -0.17787761509E+03 -0.14301481737E+03  0.19223937252E+04  0.20448720069E+04  0.65864270000E+03 0. -1.
    8880022    1    1    2    0    0  0.17787761509E+03  0.14301481737E+03 -0.13295061271E+03  0.30522320091E+03  0.15294330000E+03 0.  0.
<mgrwt>
<rscale>  0 0.55231802E+03</rscale>
<asrwt>0</asrwt>
<pdfrwt beam="1">  1        2 0.31842602E+00 0.69706807E+03</pdfrwt>
<pdfrwt beam="2">  1       -2 0.43127085E-01 0.69706807E+03</pdfrwt>
<totfact> 0.32420637E+01</totfact>
</mgrwt>
</event>
<event>
 4    2  0.2930016E-007  0.6739615E+03  0.7818608E-02  0.1012969E+00
         -2   -1    0    0    0  501 -0.00000000000E+00  0.00000000000E+00  0.70371554823E+03  0.70371554824E+03  0.25500000000E-02 0.  1.
          2   -1    0    0  501    0  0.00000000000E+00 -0.00000000000E+00 -0.14932899667E+04  0.14932899667E+04  0.25500000000E-02 0. -1.
    8880023    1    1    2    0    0 -0.15308702732E+02 -0.14205478753E+03 -0.13988727423E+04  0.15527617572E+04  0.65864270000E+03 0. -1.
    8880022    1    1    2    0    0  0.15308702732E+02  0.14205478753E+03  0.60929832382E+03  0.64424375780E+03  0.15294330000E+03 0.  0.
<mgrwt>
<rscale>  0 0.50311526E+03</rscale>
<asrwt>0</asrwt>
<pdfrwt beam="1">  1        2 0.22973692E+00 0.67396152E+03</pdfrwt>
<pdfrwt beam="2">  1       -2 0.10826393E+00 0.67396152E+03</pdfrwt>
<totfact> 0.90591558E+00</totfact>
</mgrwt>
</event>
<event>
 4    2  0.2930016E-007  0.9318389E+03  0.7818608E-02  0.9476740E-01
         -2   -1    0    0    0  501 -0.00000000000E+00  0.00000000000E+00  0.37407808178E+03  0.37407808179E+03  0.25500000000E-02 0.  1.
          2   -1    0    0  501    0  0.00000000000E+00 -0.00000000000E+00 -0.19028656833E+04  0.19028656833E+04  0.25500000000E-02 0. -1.
    8880023    1    1    2    0    0 -0.14383327836E+03 -0.64329271207E+03 -0.53455273540E+03  0.10742766676E+04  0.65864270000E+03 0.  0.
    8880022    1    1    2    0    0  0.14383327836E+03  0.64329271207E+03 -0.99423486608E+03  0.12026670975E+04  0.15294330000E+03 0.  0.
<mgrwt>
<rscale>  0 0.86020620E+03</rscale>
<asrwt>0</asrwt>
<pdfrwt beam="1">  1        2 0.29274856E+00 0.93183890E+03</pdfrwt>
<pdfrwt beam="2">  1       -2 0.57550475E-01 0.93183890E+03</pdfrwt>
<totfact> 0.21599498E+01</totfact>
</mgrwt>
</event>
<event>
 4    2  0.2930016E-007  0.7239978E+03  0.7818608E-02  0.9909284E-01
          2   -1    0    0  501    0  0.00000000000E+00  0.00000000000E+00  0.20781162408E+04  0.20781162408E+04  0.25500000000E-02 0. -1.
         -2   -1    0    0    0  501 -0.00000000000E+00 -0.00000000000E+00 -0.21594723158E+03  0.21594723160E+03  0.25500000000E-02 0.  1.
    8880023    1    1    2    0    0 -0.28929084659E+03 -0.81690705953E+02  0.47364945672E+03  0.86516852663E+03  0.65864270000E+03 0.  1.
    8880022    1    1    2    0    0  0.28929084659E+03  0.81690705953E+02  0.13885195525E+04  0.14288949458E+04  0.15294330000E+03 0.  0.
<mgrwt>
<rscale>  0 0.59813451E+03</rscale>
<asrwt>0</asrwt>
<pdfrwt beam="1">  1        2 0.31971019E+00 0.72399777E+03</pdfrwt>
<pdfrwt beam="2">  1       -2 0.33222651E-01 0.72399777E+03</pdfrwt>
<totfact> 0.52889871E+01</totfact>
</mgrwt>
</event>
<event>
 4    2  0.2930016E-007  0.7697204E+03  0.7818608E-02  0.9780563E-01
          2   -1    0    0  501    0  0.00000000000E+00  0.00000000000E+00  0.22287738436E+04  0.22287738436E+04  0.25500000000E-02 0. -1.
         -2   -1    0    0    0  501 -0.00000000000E+00 -0.00000000000E+00 -0.32865174438E+03  0.32865174439E+03  0.25500000000E-02 0.  1.
    8880023    1    1    2    0    0  0.19434451352E+03 -0.34769170132E+03  0.18719279373E+03  0.79215570275E+03  0.65864270000E+03 0.  1.
    8880022    1    1    2    0    0 -0.19434451352E+03  0.34769170132E+03  0.17129293055E+04  0.17652698853E+04  0.15294330000E+03 0.  0.
<mgrwt>
<rscale>  0 0.66416177E+03</rscale>
<asrwt>0</asrwt>
<pdfrwt beam="1">  1        2 0.34288830E+00 0.76972041E+03</pdfrwt>
<pdfrwt beam="2">  1       -2 0.50561804E-01 0.76972041E+03</pdfrwt>
<totfact> 0.19070287E+01</totfact>
</mgrwt>
</event>
<event>
 4    2  0.2930016E-007  0.6591600E+03  0.7818608E-02  0.1025034E+00
         -2   -1    0    0    0  501 -0.00000000000E+00  0.00000000000E+00  0.31221139827E+03  0.31221139829E+03  0.25500000000E-02 0.  1.
          2   -1    0    0  501    0  0.00000000000E+00 -0.00000000000E+00 -0.16718120009E+04  0.16718120009E+04  0.25500000000E-02 0. -1.
    8880023    1    1    2    0    0 -0.26036791745E+02 -0.19523662764E+01 -0.15814374067E+04  0.17133114731E+04  0.65864270000E+03 0.  0.
    8880022    1    1    2    0    0  0.26036791745E+02  0.19523662764E+01  0.22183680409E+03  0.27071192608E+03  0.15294330000E+03 0.  1.
<mgrwt>
<rscale>  0 0.45912958E+03</rscale>
<asrwt>0</asrwt>
<pdfrwt beam="1">  1        2 0.25720184E+00 0.65916002E+03</pdfrwt>
<pdfrwt beam="2">  1       -2 0.48032524E-01 0.65916002E+03</pdfrwt>
<totfact> 0.43270991E+01</totfact>
</mgrwt>
</event>
<event>
 4    2  0.2930016E-007  0.1474322E+04  0.7818608E-02  0.8927984E-01
         -2   -1    0    0    0  501 -0.00000000000E+00  0.00000000000E+00  0.11625102996E+04  0.11625102997E+04  0.25500000000E-02 0.  1.
          2   -1    0    0  501    0  0.00000000000E+00 -0.00000000000E+00 -0.22382511547E+04  0.22382511547E+04  0.25500000000E-02 0. -1.
    8880023    1    1    2    0    0  0.12725367944E+04  0.34708278953E+03 -0.14008124740E+04  0.20336917538E+04  0.65864270000E+03 0.  0.
    8880022    1    1    2    0    0 -0.12725367944E+04 -0.34708278953E+03  0.32507161889E+03  0.13670697006E+04  0.15294330000E+03 0.  0.
<mgrwt>
<rscale>  0 0.14362574E+04</rscale>
<asrwt>0</asrwt>
<pdfrwt beam="1">  1        2 0.34434633E+00 0.14743224E+04</pdfrwt>
<pdfrwt beam="2">  1       -2 0.17884774E+00 0.14743224E+04</pdfrwt>
<totfact> 0.85615401E-01</totfact>
</mgrwt>
</event>
<event>
 4    2  0.2930016E-007  0.1246593E+04  0.7818608E-02  0.9113109E-01
         -2   -1    0    0    0  501 -0.00000000000E+00  0.00000000000E+00  0.25381087546E+04  0.25381087546E+04  0.25500000000E-02 0.  1.
          2   -1    0    0  501    0  0.00000000000E+00 -0.00000000000E+00 -0.75433957704E+03  0.75433957704E+03  0.25500000000E-02 0. -1.
    8880023    1    1    2    0    0 -0.10154106538E+04 -0.29853952848E+03  0.40419996141E+02  0.12472484228E+04  0.65864270000E+03 0.  0.
    8880022    1    1    2    0    0  0.10154106538E+04  0.29853952848E+03  0.17433491815E+04  0.20451999089E+04  0.15294330000E+03 0.  0.
<mgrwt>
<rscale>  0 0.11997113E+04</rscale>
<asrwt>0</asrwt>
<pdfrwt beam="1">  1        2 0.11605224E+00 0.12465933E+04</pdfrwt>
<pdfrwt beam="2">  1       -2 0.39047827E+00 0.12465933E+04</pdfrwt>
<totfact> 0.31325825E-01</totfact>
</mgrwt>
</event>
<event>
 4    2  0.2930016E-007  0.1359686E+04  0.7818608E-02  0.9015658E-01
          2   -1    0    0  501    0  0.00000000000E+00  0.00000000000E+00  0.32585666354E+04  0.32585666354E+04  0.25500000000E-02 0. -1.
         -2   -1    0    0    0  501 -0.00000000000E+00 -0.00000000000E+00 -0.56815460091E+03  0.56815460091E+03  0.25500000000E-02 0.  1.
    8880023    1    1    2    0    0  0.91890384121E+03 -0.75534895960E+03  0.20695415955E+04  0.24762368509E+04  0.65864270000E+03 0.  0.
    8880022    1    1    2    0    0 -0.91890384121E+03  0.75534895960E+03  0.62087043903E+03  0.13504843854E+04  0.15294330000E+03 0.  0.
<mgrwt>
<rscale>  0 0.13176839E+04</rscale>
<asrwt>0</asrwt>
<pdfrwt beam="1">  1        2 0.50131795E+00 0.13596862E+04</pdfrwt>
<pdfrwt beam="2">  1       -2 0.87408399E-01 0.13596862E+04</pdfrwt>
<totfact> 0.13108197E+00</totfact>
</mgrwt>
</event>
<event>
 4    2  0.2930016E-007  0.6791747E+03  0.7818608E-02  0.1009794E+00
         -2   -1    0    0    0  501 -0.00000000000E+00  0.00000000000E+00  0.59871068935E+03  0.59871068935E+03  0.25500000000E-02 0.  1.
          2   -1    0    0  501    0  0.00000000000E+00 -0.00000000000E+00 -0.36223417549E+03  0.36223417550E+03  0.25500000000E-02 0. -1.
    8880023    1    1    2    0    0 -0.16397924361E+03  0.24058898716E+02  0.27392844703E+03  0.73233532162E+03  0.65864270000E+03 0.  1.
    8880022    1    1    2    0    0  0.16397924361E+03 -0.24058898716E+02 -0.37451933175E+02  0.22860954323E+03  0.15294330000E+03 0. -1.
<mgrwt>
<rscale>  0 0.51556427E+03</rscale>
<asrwt>0</asrwt>
<pdfrwt beam="1">  1        2 0.55728335E-01 0.67917467E+03</pdfrwt>
<pdfrwt beam="2">  1       -2 0.92109337E-01 0.67917467E+03</pdfrwt>
<totfact> 0.90307320E+01</totfact>
</mgrwt>
</event>
<event>
 4    2  0.2930016E-007  0.8700066E+03  0.7818608E-02  0.9576006E-01
         -2   -1    0    0    0  501 -0.00000000000E+00  0.00000000000E+00  0.41061639675E+03  0.41061639676E+03  0.25500000000E-02 0.  1.
          2   -1    0    0  501    0  0.00000000000E+00 -0.00000000000E+00 -0.16038944926E+04  0.16038944926E+04  0.25500000000E-02 0. -1.
    8880023    1    1    2    0    0  0.41126526063E+03  0.39238007112E+03 -0.11246575348E+04  0.14218881854E+04  0.65864270000E+03 0.  0.
    8880022    1    1    2    0    0 -0.41126526063E+03 -0.39238007112E+03 -0.68620560963E+02  0.59262270393E+03  0.15294330000E+03 0.  0.
<mgrwt>
<rscale>  0 0.78904849E+03</rscale>
<asrwt>0</asrwt>
<pdfrwt beam="1">  1        2 0.24675300E+00 0.87000658E+03</pdfrwt>
<pdfrwt beam="2">  1       -2 0.63171754E-01 0.87000658E+03</pdfrwt>
<totfact> 0.26055451E+01</totfact>
</mgrwt>
</event>
<event>
 4    2  0.2930016E-007  0.7485015E+03  0.7818608E-02  0.9835841E-01
         -2   -1    0    0    0  501 -0.00000000000E+00  0.00000000000E+00  0.18890672832E+03  0.18890672834E+03  0.25500000000E-02 0.  1.
          2   -1    0    0  501    0  0.00000000000E+00 -0.00000000000E+00 -0.30765122633E+04  0.30765122633E+04  0.25500000000E-02 0. -1.
    8880023    1    1    2    0    0 -0.29665850127E+03  0.19605632765E+03 -0.27571441837E+04  0.28569386773E+04  0.65864270000E+03 0. -1.
    8880022    1    1    2    0    0  0.29665850127E+03 -0.19605632765E+03 -0.13046135126E+03  0.40848031431E+03  0.15294330000E+03 0.  0.
<mgrwt>
<rscale>  0 0.63474099E+03</rscale>
<asrwt>0</asrwt>
<pdfrwt beam="1">  1        2 0.47330954E+00 0.74850154E+03</pdfrwt>
<pdfrwt beam="2">  1       -2 0.29062576E-01 0.74850154E+03</pdfrwt>
<totfact> 0.17998912E+01</totfact>
</mgrwt>
</event>
<event>
 4    2  0.2930016E-007  0.8053062E+03  0.7818608E-02  0.9699438E-01
          2   -1    0    0  501    0  0.00000000000E+00  0.00000000000E+00  0.17212945013E+04  0.17212945013E+04  0.25500000000E-02 0. -1.
         -2   -1    0    0    0  501 -0.00000000000E+00 -0.00000000000E+00 -0.50901805346E+03  0.50901805347E+03  0.25500000000E-02 0.  1.
    8880023    1    1    2    0    0  0.23785983742E+03 -0.39765639010E+03  0.14717440565E+04  0.16776616706E+04  0.65864270000E+03 0. -1.
    8880022    1    1    2    0    0 -0.23785983742E+03  0.39765639010E+03 -0.25946760866E+03  0.55265088420E+03  0.15294330000E+03 0.  0.
<mgrwt>
<rscale>  0 0.71050251E+03</rscale>
<asrwt>0</asrwt>
<pdfrwt beam="1">  1        2 0.26481454E+00 0.80530622E+03</pdfrwt>
<pdfrwt beam="2">  1       -2 0.78310470E-01 0.80530622E+03</pdfrwt>
<totfact> 0.14133235E+01</totfact>
</mgrwt>
</event>
<event>
 4    2  0.2930016E-007  0.1268681E+04  0.7818608E-02  0.9093089E-01
         -2   -1    0    0    0  501 -0.00000000000E+00  0.00000000000E+00  0.39254452503E+03  0.39254452504E+03  0.25500000000E-02 0.  1.
          2   -1    0    0  501    0  0.00000000000E+00 -0.00000000000E+00 -0.47207011573E+04  0.47207011573E+04  0.25500000000E-02 0. -1.
    8880023    1    1    2    0    0 -0.10168257121E+04  0.37657358845E+03 -0.35499480165E+04  0.37698386335E+04  0.65864270000E+03 0.  0.
    8880022    1    1    2    0    0  0.10168257121E+04 -0.37657358845E+03 -0.77820861576E+03  0.13434070489E+04  0.15294330000E+03 0.  0.
<mgrwt>
<rscale>  0 0.12228491E+04</rscale>
<asrwt>0</asrwt>
<pdfrwt beam="1">  1        2 0.72626168E+00 0.12686814E+04</pdfrwt>
<pdfrwt beam="2">  1       -2 0.60391469E-01 0.12686814E+04</pdfrwt>
<totfact> 0.19216646E-01</totfact>
</mgrwt>
</event>
<event>
 4    2  0.2930016E-007  0.7973650E+03  0.7818608E-02  0.9716523E-01
          2   -1    0    0  501    0  0.00000000000E+00  0.00000000000E+00  0.17607198439E+04  0.17607198439E+04  0.25500000000E-02 0. -1.
         -2   -1    0    0    0  501 -0.00000000000E+00 -0.00000000000E+00 -0.38464970364E+03  0.38464970365E+03  0.25500000000E-02 0.  1.
    8880023    1    1    2    0    0  0.89759913441E+02  0.44036789297E+03  0.14597392261E+04  0.16633188322E+04  0.65864270000E+03 0. -1.
    8880022    1    1    2    0    0 -0.89759913441E+02 -0.44036789297E+03 -0.83669085808E+02  0.48205071533E+03  0.15294330000E+03 0.  0.
<mgrwt>
<rscale>  0 0.70041503E+03</rscale>
<asrwt>0</asrwt>
<pdfrwt beam="1">  1        2 0.27087997E+00 0.79736499E+03</pdfrwt>
<pdfrwt beam="2">  1       -2 0.59176878E-01 0.79736499E+03</pdfrwt>
<totfact> 0.24740168E+01</totfact>
</mgrwt>
</event>
<event>
 4    2  0.2930016E-007  0.6847998E+03  0.7818608E-02  0.1006729E+00
          2   -1    0    0  501    0  0.00000000000E+00  0.00000000000E+00  0.32864251274E+03  0.32864251275E+03  0.25500000000E-02 0. -1.
         -2   -1    0    0    0  501 -0.00000000000E+00 -0.00000000000E+00 -0.18070014113E+04  0.18070014113E+04  0.25500000000E-02 0.  1.
    8880023    1    1    2    0    0 -0.15270082607E+03  0.10873366673E+03 -0.49651988364E+02  0.68659746488E+03  0.65864270000E+03 0. -1.
    8880022    1    1    2    0    0  0.15270082607E+03 -0.10873366673E+03 -0.14287069102E+04  0.14490464592E+04  0.15294330000E+03 0.  0.
<mgrwt>
<rscale>  0 0.52795521E+03</rscale>
<asrwt>0</asrwt>
<pdfrwt beam="1">  1        2 0.50560388E-01 0.68479979E+03</pdfrwt>
<pdfrwt beam="2">  1       -2 0.27800021E+00 0.68479979E+03</pdfrwt>
<totfact> 0.44818571E+00</totfact>
</mgrwt>
</event>
<event>
 4    2  0.2930016E-007  0.7544972E+03  0.7818608E-02  0.9819568E-01
          2   -1    0    0  501    0  0.00000000000E+00  0.00000000000E+00  0.12728061416E+04  0.12728061416E+04  0.25500000000E-02 0. -1.
         -2   -1    0    0    0  501 -0.00000000000E+00 -0.00000000000E+00 -0.13503583513E+04  0.13503583513E+04  0.25500000000E-02 0.  1.
    8880023    1    1    2    0    0 -0.36291099978E+03 -0.61249263364E+02  0.11259580330E+04  0.13553772775E+04  0.65864270000E+03 0.  0.
    8880022    1    1    2    0    0  0.36291099978E+03  0.61249263364E+02 -0.12035102427E+04  0.12677872154E+04  0.15294330000E+03 0.  1.
<mgrwt>
<rscale>  0 0.64322926E+03</rscale>
<asrwt>0</asrwt>
<pdfrwt beam="1">  1        2 0.19581633E+00 0.75449723E+03</pdfrwt>
<pdfrwt beam="2">  1       -2 0.20774744E+00 0.75449723E+03</pdfrwt>
<totfact> 0.20888825E+00</totfact>
</mgrwt>
</event>
<event>
 4    2  0.2930016E-007  0.9886985E+03  0.7818608E-02  0.9396495E-01
         -2   -1    0    0    0  501 -0.00000000000E+00  0.00000000000E+00  0.34512709773E+03  0.34512709774E+03  0.25500000000E-02 0.  1.
          2   -1    0    0  501    0  0.00000000000E+00 -0.00000000000E+00 -0.23255504944E+04  0.23255504944E+04  0.25500000000E-02 0. -1.
    8880023    1    1    2    0    0 -0.16815021282E+03  0.71794157108E+03 -0.80624083205E+03  0.12757543177E+04  0.65864270000E+03 0.  1.
    8880022    1    1    2    0    0  0.16815021282E+03 -0.71794157108E+03 -0.11741825646E+04  0.13949232744E+04  0.15294330000E+03 0.  0.
<mgrwt>
<rscale>  0 0.92364689E+03</rscale>
<asrwt>0</asrwt>
<pdfrwt beam="1">  1        2 0.35777699E+00 0.98869854E+03</pdfrwt>
<pdfrwt beam="2">  1       -2 0.53096478E-01 0.98869854E+03</pdfrwt>
<totfact> 0.14814360E+01</totfact>
</mgrwt>
</event>
<event>
 4    2  0.2930016E-007  0.9713101E+03  0.7818608E-02  0.9420094E-01
         -2   -1    0    0    0  501 -0.00000000000E+00  0.00000000000E+00  0.41187833497E+03  0.41187833498E+03  0.25500000000E-02 0.  1.
          2   -1    0    0  501    0  0.00000000000E+00 -0.00000000000E+00 -0.26095607379E+04  0.26095607379E+04  0.25500000000E-02 0. -1.
    8880023    1    1    2    0    0  0.69957942476E+03  0.14220337074E+03 -0.20613560381E+04  0.22787347569E+04  0.65864270000E+03 0. -1.
    8880022    1    1    2    0    0 -0.69957942476E+03 -0.14220337074E+03 -0.13632636481E+03  0.74270431597E+03  0.15294330000E+03 0.  0.
<mgrwt>
<rscale>  0 0.90440274E+03</rscale>
<asrwt>0</asrwt>
<pdfrwt beam="1">  1        2 0.40147087E+00 0.97131013E+03</pdfrwt>
<pdfrwt beam="2">  1       -2 0.63365899E-01 0.97131013E+03</pdfrwt>
<totfact> 0.70485695E+00</totfact>
</mgrwt>
</event>
<event>
 4    2  0.2930016E-007  0.9470052E+03  0.7818608E-02  0.9454436E-01
         -2   -1    0    0    0  501 -0.00000000000E+00  0.00000000000E+00  0.13120617579E+04  0.13120617579E+04  0.25500000000E-02 0.  1.
          2   -1    0    0  501    0  0.00000000000E+00 -0.00000000000E+00 -0.56854457641E+03  0.56854457641E+03  0.25500000000E-02 0. -1.
    8880023    1    1    2    0    0  0.59954874004E+03 -0.32179171178E+03  0.13801690459E+03  0.95700964973E+03  0.65864270000E+03 0. -1.
    8880022    1    1    2    0    0 -0.59954874004E+03  0.32179171178E+03  0.60550027693E+03  0.92359668462E+03  0.15294330000E+03 0.  0.
<mgrwt>
<rscale>  0 0.87728052E+03</rscale>
<asrwt>0</asrwt>
<pdfrwt beam="1">  1        2 0.87468396E-01 0.94700518E+03</pdfrwt>
<pdfrwt beam="2">  1       -2 0.20185566E+00 0.94700518E+03</pdfrwt>
<totfact> 0.68404272E+00</totfact>
</mgrwt>
</event>
<event>
 4    2  0.2930016E-007  0.6819396E+03  0.7818608E-02  0.1008247E+00
          2   -1    0    0  501    0  0.00000000000E+00  0.00000000000E+00  0.20177792521E+04  0.20177792521E+04  0.25500000000E-02 0. -1.
         -2   -1    0    0    0  501 -0.00000000000E+00 -0.00000000000E+00 -0.25422181947E+03  0.25422181949E+03  0.25500000000E-02 0.  1.
    8880023    1    1    2    0    0  0.16291213734E+03  0.68491571859E+02  0.18878845072E+04  0.20072741663E+04  0.65864270000E+03 0. -1.
    8880022    1    1    2    0    0 -0.16291213734E+03 -0.68491571859E+02 -0.12432707456E+03  0.26472690530E+03  0.15294330000E+03 0.  0.
<mgrwt>
<rscale>  0 0.52177288E+03</rscale>
<asrwt>0</asrwt>
<pdfrwt beam="1">  1        2 0.31042757E+00 0.68193964E+03</pdfrwt>
<pdfrwt beam="2">  1       -2 0.39111050E-01 0.68193964E+03</pdfrwt>
<totfact> 0.41992910E+01</totfact>
</mgrwt>
</event>
<event>
 4    2  0.2930016E-007  0.7036502E+03  0.7818608E-02  0.9982383E-01
         -2   -1    0    0    0  501 -0.00000000000E+00  0.00000000000E+00  0.19834907160E+03  0.19834907161E+03  0.25500000000E-02 0.  1.
          2   -1    0    0  501    0  0.00000000000E+00 -0.00000000000E+00 -0.14394037760E+04  0.14394037760E+04  0.25500000000E-02 0. -1.
    8880023    1    1    2    0    0 -0.13484743129E+03  0.20767643526E+03 -0.11196631609E+04  0.13224103491E+04  0.65864270000E+03 0. -1.
    8880022    1    1    2    0    0  0.13484743129E+03 -0.20767643526E+03 -0.12139154356E+03  0.31534249848E+03  0.15294330000E+03 0.  0.
<mgrwt>
<rscale>  0 0.56429501E+03</rscale>
<asrwt>0</asrwt>
<pdfrwt beam="1">  1        2 0.22144673E+00 0.70365015E+03</pdfrwt>
<pdfrwt beam="2">  1       -2 0.30515243E-01 0.70365015E+03</pdfrwt>
<totfact> 0.13912813E+02</totfact>
</mgrwt>
</event>
<event>
 4    2  0.2930016E-007  0.1083761E+04  0.7818608E-02  0.9279355E-01
          2   -1    0    0  501    0  0.00000000000E+00  0.00000000000E+00  0.15471600561E+04  0.15471600561E+04  0.25500000000E-02 0. -1.
         -2   -1    0    0    0  501 -0.00000000000E+00 -0.00000000000E+00 -0.85103527281E+03  0.85103527281E+03  0.25500000000E-02 0.  1.
    8880023    1    1    2    0    0 -0.16049873221E+03  0.84555761399E+03 -0.24775167387E+03  0.11117187683E+04  0.65864270000E+03 0.  0.
    8880022    1    1    2    0    0  0.16049873221E+03 -0.84555761399E+03  0.94387645719E+03  0.12864765606E+04  0.15294330000E+03 0.  0.
<mgrwt>
<rscale>  0 0.10270587E+04</rscale>
<asrwt>0</asrwt>
<pdfrwt beam="1">  1        2 0.23802462E+00 0.10837609E+04</pdfrwt>
<pdfrwt beam="2">  1       -2 0.13092851E+00 0.10837609E+04</pdfrwt>
<totfact> 0.50155714E+00</totfact>
</mgrwt>
</event>
<event>
 4    2  0.2930016E-007  0.6655398E+03  0.7818608E-02  0.1019085E+00
          2   -1    0    0  501    0  0.00000000000E+00  0.00000000000E+00  0.14303112921E+04  0.14303112921E+04  0.25500000000E-02 0. -1.
         -2   -1    0    0    0  501 -0.00000000000E+00 -0.00000000000E+00 -0.42431697347E+03  0.42431697348E+03  0.25500000000E-02 0.  1.
    8880023    1    1    2    0    0 -0.49647524789E+02  0.81658473631E+02  0.13280681476E+04  0.14854993080E+04  0.65864270000E+03 0. -1.
    8880022    1    1    2    0    0  0.49647524789E+02 -0.81658473631E+02 -0.32207382897E+03  0.36912895762E+03  0.15294330000E+03 0.  0.
<mgrwt>
<rscale>  0 0.48018332E+03</rscale>
<asrwt>0</asrwt>
<pdfrwt beam="1">  1        2 0.22004788E+00 0.66553977E+03</pdfrwt>
<pdfrwt beam="2">  1       -2 0.65279537E-01 0.66553977E+03</pdfrwt>
<totfact> 0.31050415E+01</totfact>
</mgrwt>
</event>
<event>
 4    2  0.2930016E-007  0.1001235E+04  0.7818608E-02  0.9379944E-01
         -2   -1    0    0    0  501 -0.00000000000E+00  0.00000000000E+00  0.64171540213E+03  0.64171540214E+03  0.25500000000E-02 0.  1.
          2   -1    0    0  501    0  0.00000000000E+00 -0.00000000000E+00 -0.15978909884E+04  0.15978909884E+04  0.25500000000E-02 0. -1.
    8880023    1    1    2    0    0 -0.36042661188E+03 -0.66238441045E+03 -0.10658692250E+04  0.14623774686E+04  0.65864270000E+03 0. -1.
    8880022    1    1    2    0    0  0.36042661188E+03  0.66238441045E+03  0.10969363864E+03  0.77722892197E+03  0.15294330000E+03 0.  0.
<mgrwt>
<rscale>  0 0.93744731E+03</rscale>
<asrwt>0</asrwt>
<pdfrwt beam="1">  1        2 0.24582938E+00 0.10012346E+04</pdfrwt>
<pdfrwt beam="2">  1       -2 0.98725447E-01 0.10012346E+04</pdfrwt>
<totfact> 0.94847925E+00</totfact>
</mgrwt>
</event>
<event>
 4    2  0.2930016E-007  0.8769256E+03  0.7818608E-02  0.9564138E-01
          2   -1    0    0  501    0  0.00000000000E+00  0.00000000000E+00  0.18760511022E+04  0.18760511022E+04  0.25500000000E-02 0. -1.
         -2   -1    0    0    0  501 -0.00000000000E+00 -0.00000000000E+00 -0.39385802302E+03  0.39385802303E+03  0.25500000000E-02 0.  1.
    8880023    1    1    2    0    0 -0.53352647176E+03  0.22480601266E+03  0.14185545686E+04  0.16677216524E+04  0.65864270000E+03 0.  0.
    8880022    1    1    2    0    0  0.53352647176E+03 -0.22480601266E+03  0.63638510519E+02  0.60218747282E+03  0.15294330000E+03 0.  0.
<mgrwt>
<rscale>  0 0.79715962E+03</rscale>
<asrwt>0</asrwt>
<pdfrwt beam="1">  1        2 0.28862325E+00 0.87692556E+03</pdfrwt>
<pdfrwt beam="2">  1       -2 0.60593542E-01 0.87692556E+03</pdfrwt>
<totfact> 0.20161728E+01</totfact>
</mgrwt>
</event>
<event>
 4    2  0.2930016E-007  0.7129825E+03  0.7818608E-02  0.9947088E-01
          2   -1    0    0  501    0  0.00000000000E+00  0.00000000000E+00  0.22319939940E+04  0.22319939940E+04  0.25500000000E-02 0. -1.
         -2   -1    0    0    0  501 -0.00000000000E+00 -0.00000000000E+00 -0.30557682790E+03  0.30557682791E+03  0.25500000000E-02 0.  1.
    8880023    1    1    2    0    0  0.25801511433E+03 -0.89229967301E+02  0.20728729113E+04  0.21920643464E+04  0.65864270000E+03 0. -1.
    8880022    1    1    2    0    0 -0.25801511433E+03  0.89229967301E+02 -0.14645574518E+03  0.34550647548E+03  0.15294330000E+03 0.  0.
<mgrwt>
<rscale>  0 0.58032473E+03</rscale>
<asrwt>0</asrwt>
<pdfrwt beam="1">  1        2 0.34338369E+00 0.71298246E+03</pdfrwt>
<pdfrwt beam="2">  1       -2 0.47011820E-01 0.71298246E+03</pdfrwt>
<totfact> 0.22191626E+01</totfact>
</mgrwt>
</event>
<event>
 4    2  0.2930016E-007  0.7651302E+03  0.7818608E-02  0.9792003E-01
         -2   -1    0    0    0  501 -0.00000000000E+00  0.00000000000E+00  0.21527170586E+03  0.21527170588E+03  0.25500000000E-02 0.  1.
          2   -1    0    0  501    0  0.00000000000E+00 -0.00000000000E+00 -0.24490747167E+04  0.24490747167E+04  0.25500000000E-02 0. -1.
    8880023    1    1    2    0    0 -0.31969658320E+03 -0.22227931221E+03 -0.20839646412E+04  0.22199848716E+04  0.65864270000E+03 0. -1.
    8880022    1    1    2    0    0  0.31969658320E+03  0.22227931221E+03 -0.14983836957E+03  0.44436155094E+03  0.15294330000E+03 0.  0.
<mgrwt>
<rscale>  0 0.65793503E+03</rscale>
<asrwt>0</asrwt>
<pdfrwt beam="1">  1        2 0.37678071E+00 0.76513019E+03</pdfrwt>
<pdfrwt beam="2">  1       -2 0.33118726E-01 0.76513019E+03</pdfrwt>
<totfact> 0.32960261E+01</totfact>
</mgrwt>
</event>
<event>
 4    2  0.2930016E-007  0.8346458E+03  0.7818608E-02  0.9640360E-01
          2   -1    0    0  501    0  0.00000000000E+00  0.00000000000E+00  0.22570780855E+04  0.22570780855E+04  0.25500000000E-02 0. -1.
         -2   -1    0    0    0  501 -0.00000000000E+00 -0.00000000000E+00 -0.20903811709E+03  0.20903811711E+03  0.25500000000E-02 0.  1.
    8880023    1    1    2    0    0  0.41246921968E+03  0.30445440786E+03  0.11533593506E+04  0.14236823176E+04  0.65864270000E+03 0. -1.
    8880022    1    1    2    0    0 -0.41246921968E+03 -0.30445440786E+03  0.89468061779E+03  0.10424338850E+04  0.15294330000E+03 0.  1.
<mgrwt>
<rscale>  0 0.74681528E+03</rscale>
<asrwt>0</asrwt>
<pdfrwt beam="1">  1        2 0.34724278E+00 0.83464576E+03</pdfrwt>
<pdfrwt beam="2">  1       -2 0.32159710E-01 0.83464576E+03</pdfrwt>
<totfact> 0.44220226E+01</totfact>
</mgrwt>
</event>
<event>
 4    2  0.2930016E-007  0.7039990E+03  0.7818608E-02  0.9980999E-01
          2   -1    0    0  501    0  0.00000000000E+00  0.00000000000E+00  0.23288202915E+04  0.23288202915E+04  0.25500000000E-02 0. -1.
         -2   -1    0    0    0  501 -0.00000000000E+00 -0.00000000000E+00 -0.17041332085E+03  0.17041332087E+03  0.25500000000E-02 0.  1.
    8880023    1    1    2    0    0  0.18334603524E+03 -0.16789464367E+03  0.20815846320E+04  0.21974096492E+04  0.65864270000E+03 0.  0.
    8880022    1    1    2    0    0 -0.18334603524E+03  0.16789464367E+03  0.76822338666E+02  0.30182396317E+03  0.15294330000E+03 0.  0.
<mgrwt>
<rscale>  0 0.56491285E+03</rscale>
<asrwt>0</asrwt>
<pdfrwt beam="1">  1        2 0.35828001E+00 0.70399900E+03</pdfrwt>
<pdfrwt beam="2">  1       -2 0.26217437E-01 0.70399900E+03</pdfrwt>
<totfact> 0.59800568E+01</totfact>
</mgrwt>
</event>
<event>
 4    2  0.2930016E-007  0.9687215E+03  0.7818608E-02  0.9423675E-01
          2   -1    0    0  501    0  0.00000000000E+00  0.00000000000E+00  0.87542929714E+03  0.87542929714E+03  0.25500000000E-02 0. -1.
         -2   -1    0    0    0  501 -0.00000000000E+00 -0.00000000000E+00 -0.91111013495E+03  0.91111013495E+03  0.25500000000E-02 0.  1.
    8880023    1    1    2    0    0  0.45379461357E+03  0.54651769840E+03  0.25848696544E+03  0.10026150126E+04  0.65864270000E+03 0.  0.
    8880022    1    1    2    0    0 -0.45379461357E+03 -0.54651769840E+03 -0.29416780325E+03  0.78392441948E+03  0.15294330000E+03 0.  0.
<mgrwt>
<rscale>  0 0.90152699E+03</rscale>
<asrwt>0</asrwt>
<pdfrwt beam="1">  1        2 0.13468143E+00 0.96872150E+03</pdfrwt>
<pdfrwt beam="2">  1       -2 0.14017079E+00 0.96872150E+03</pdfrwt>
<totfact> 0.10851964E+01</totfact>
</mgrwt>
</event>
<event>
 4    2  0.2930016E-007  0.8436855E+03  0.7818608E-02  0.9623270E-01
         -2   -1    0    0    0  501 -0.00000000000E+00  0.00000000000E+00  0.22642164446E+03  0.22642164448E+03  0.25500000000E-02 0.  1.
          2   -1    0    0  501    0  0.00000000000E+00 -0.00000000000E+00 -0.22067913242E+04  0.22067913242E+04  0.25500000000E-02 0. -1.
    8880023    1    1    2    0    0 -0.37428832400E+03 -0.37135319815E+03 -0.98886244336E+03  0.12998669491E+04  0.65864270000E+03 0. -1.
    8880022    1    1    2    0    0  0.37428832400E+03  0.37135319815E+03 -0.99150723637E+03  0.11333460196E+04  0.15294330000E+03 0.  0.
<mgrwt>
<rscale>  0 0.75774995E+03</rscale>
<asrwt>0</asrwt>
<pdfrwt beam="1">  1        2 0.33950634E+00 0.84368546E+03</pdfrwt>
<pdfrwt beam="2">  1       -2 0.34834101E-01 0.84368546E+03</pdfrwt>
<totfact> 0.40491190E+01</totfact>
</mgrwt>
</event>
<event>
 4    2  0.2930016E-007  0.7025110E+03  0.7818608E-02  0.9986940E-01
         -2   -1    0    0    0  501 -0.00000000000E+00  0.00000000000E+00  0.35586940961E+03  0.35586940962E+03  0.25500000000E-02 0.  1.
          2   -1    0    0  501    0  0.00000000000E+00 -0.00000000000E+00 -0.27179385452E+04  0.27179385453E+04  0.25500000000E-02 0. -1.
    8880023    1    1    2    0    0  0.10674281509E+03  0.21981239119E+03 -0.26042284039E+04  0.26973185392E+04  0.65864270000E+03 0. -1.
    8880022    1    1    2    0    0 -0.10674281509E+03 -0.21981239119E+03  0.24215926827E+03  0.37648941568E+03  0.15294330000E+03 0.  0.
<mgrwt>
<rscale>  0 0.56226629E+03</rscale>
<asrwt>0</asrwt>
<pdfrwt beam="1">  1        2 0.41814438E+00 0.70251101E+03</pdfrwt>
<pdfrwt beam="2">  1       -2 0.54749142E-01 0.70251101E+03</pdfrwt>
<totfact> 0.86558529E+00</totfact>
</mgrwt>
</event>
<event>
 4    2  0.4480914E-007  0.7320737E+03  0.7818608E-02  0.9883668E-01
          2   -1    0    0  501    0  0.00000000000E+00  0.00000000000E+00  0.19176571699E+04  0.19176571699E+04  0.25500000000E-02 0. -1.
         -2   -1    0    0    0  501 -0.00000000000E+00 -0.00000000000E+00 -0.73946800903E+03  0.73946800903E+03  0.25500000000E-02 0.  1.
    8880023    1    1    2    0    0 -0.31496357177E+03  0.54033482784E+02  0.17990498481E+04  0.19422956085E+04  0.65864270000E+03 0. -1.
    8880022    1    1    2    0    0  0.31496357177E+03 -0.54033482784E+02 -0.62086068720E+03  0.71482957041E+03  0.15294330000E+03 0.  0.
<mgrwt>
<rscale>  0 0.61059371E+03</rscale>
<asrwt>0</asrwt>
<pdfrwt beam="1">  1        2 0.29502418E+00 0.73207368E+03</pdfrwt>
<pdfrwt beam="2">  1       -2 0.11376431E+00 0.73207368E+03</pdfrwt>
<totfact> 0.46620385E+00</totfact>
</mgrwt>
</event>
<event>
 4    2  0.2995988E-007  0.9302764E+03  0.7818608E-02  0.9479079E-01
         -2   -1    0    0    0  501 -0.00000000000E+00  0.00000000000E+00  0.12029838355E+04  0.12029838355E+04  0.25500000000E-02 0.  1.
          2   -1    0    0  501    0  0.00000000000E+00 -0.00000000000E+00 -0.19451649960E+04  0.19451649960E+04  0.25500000000E-02 0. -1.
    8880023    1    1    2    0    0  0.22903990026E+03  0.61574721378E+03 -0.17228083438E+04  0.19579281659E+04  0.65864270000E+03 0.  0.
    8880022    1    1    2    0    0 -0.22903990026E+03 -0.61574721378E+03  0.98062718326E+03  0.11902206656E+04  0.15294330000E+03 0.  0.
<mgrwt>
<rscale>  0 0.85843988E+03</rscale>
<asrwt>0</asrwt>
<pdfrwt beam="1">  1        2 0.29925615E+00 0.93027636E+03</pdfrwt>
<pdfrwt beam="2">  1       -2 0.18507444E+00 0.93027636E+03</pdfrwt>
<totfact> 0.12088540E+00</totfact>
</mgrwt>
</event>
<event>
 4    2  0.2930016E-007  0.8464487E+03  0.7818608E-02  0.9618139E-01
          2   -1    0    0  501    0  0.00000000000E+00  0.00000000000E+00  0.24228334856E+04  0.24228334856E+04  0.25500000000E-02 0. -1.
         -2   -1    0    0    0  501 -0.00000000000E+00 -0.00000000000E+00 -0.24122207848E+03  0.24122207849E+03  0.25500000000E-02 0.  1.
    8880023    1    1    2    0    0 -0.47562286763E+03  0.23758803462E+03  0.18084609581E+04  0.19967489651E+04  0.65864270000E+03 0. -1.
    8880022    1    1    2    0    0  0.47562286763E+03 -0.23758803462E+03  0.37315044897E+03  0.66730659894E+03  0.15294330000E+03 0.  1.
<mgrwt>
<rscale>  0 0.76107199E+03</rscale>
<asrwt>0</asrwt>
<pdfrwt beam="1">  1        2 0.37274360E+00 0.84644869E+03</pdfrwt>
<pdfrwt beam="2">  1       -2 0.37111090E-01 0.84644869E+03</pdfrwt>
<totfact> 0.27154503E+01</totfact>
</mgrwt>
</event>
<event>
 4    2  0.2930016E-007  0.1562037E+04  0.7818608E-02  0.8867028E-01
         -2   -1    0    0    0  501 -0.00000000000E+00  0.00000000000E+00  0.82958936113E+03  0.82958936114E+03  0.25500000000E-02 0.  1.
          2   -1    0    0  501    0  0.00000000000E+00 -0.00000000000E+00 -0.33234267315E+04  0.33234267315E+04  0.25500000000E-02 0. -1.
    8880023    1    1    2    0    0  0.59930002558E+03  0.12833509804E+04 -0.22004378420E+04  0.26984972045E+04  0.65864270000E+03 0.  0.
    8880022    1    1    2    0    0 -0.59930002558E+03 -0.12833509804E+04 -0.29339952829E+03  0.14545188881E+04  0.15294330000E+03 0.  0.
<mgrwt>
<rscale>  0 0.15264877E+04</rscale>
<asrwt>0</asrwt>
<pdfrwt beam="1">  1        2 0.51129642E+00 0.15620373E+04</pdfrwt>
<pdfrwt beam="2">  1       -2 0.12762913E+00 0.15620373E+04</pdfrwt>
<totfact> 0.46325842E-01</totfact>
</mgrwt>
</event>
<event>
 4    2  0.2930016E-007  0.1258367E+04  0.7818608E-02  0.9102373E-01
          2   -1    0    0  501    0  0.00000000000E+00  0.00000000000E+00  0.12083870753E+04  0.12083870753E+04  0.25500000000E-02 0. -1.
         -2   -1    0    0    0  501 -0.00000000000E+00 -0.00000000000E+00 -0.15967173511E+04  0.15967173511E+04  0.25500000000E-02 0.  1.
    8880023    1    1    2    0    0  0.84645192767E+03  0.65817703446E+03  0.54883965050E+03  0.13728485141E+04  0.65864270000E+03 0.  1.
    8880022    1    1    2    0    0 -0.84645192767E+03 -0.65817703446E+03 -0.93716992632E+03  0.14322559123E+04  0.15294330000E+03 0.  0.
<mgrwt>
<rscale>  0 0.12120513E+04</rscale>
<asrwt>0</asrwt>
<pdfrwt beam="1">  1        2 0.18590570E+00 0.12583672E+04</pdfrwt>
<pdfrwt beam="2">  1       -2 0.24564882E+00 0.12583672E+04</pdfrwt>
<totfact> 0.12365681E+00</totfact>
</mgrwt>
</event>
<event>
 4    2  0.2930016E-007  0.9860412E+03  0.7818608E-02  0.9400052E-01
          2   -1    0    0  501    0  0.00000000000E+00  0.00000000000E+00  0.10911476666E+04  0.10911476666E+04  0.25500000000E-02 0. -1.
         -2   -1    0    0    0  501 -0.00000000000E+00 -0.00000000000E+00 -0.81507283894E+03  0.81507283895E+03  0.25500000000E-02 0.  1.
    8880023    1    1    2    0    0  0.64783102810E+03  0.34464768628E+03  0.52410841585E+03  0.11166767242E+04  0.65864270000E+03 0. -1.
    8880022    1    1    2    0    0 -0.64783102810E+03 -0.34464768628E+03 -0.24803358823E+03  0.78954378127E+03  0.15294330000E+03 0.  0.
<mgrwt>
<rscale>  0 0.92071388E+03</rscale>
<asrwt>0</asrwt>
<pdfrwt beam="1">  1        2 0.16786887E+00 0.98604121E+03</pdfrwt>
<pdfrwt beam="2">  1       -2 0.12539582E+00 0.98604121E+03</pdfrwt>
<totfact> 0.10426719E+01</totfact>
</mgrwt>
</event>
<event>
 4    2  0.2930016E-007  0.7291348E+03  0.7818608E-02  0.9892808E-01
          2   -1    0    0  501    0  0.00000000000E+00  0.00000000000E+00  0.16185259346E+03  0.16185259348E+03  0.25500000000E-02 0. -1.
         -2   -1    0    0    0  501 -0.00000000000E+00 -0.00000000000E+00 -0.22422254200E+04  0.22422254200E+04  0.25500000000E-02 0.  1.
    8880023    1    1    2    0    0  0.30319058225E+03 -0.76830234074E+02 -0.82364225923E+03  0.11000109961E+04  0.65864270000E+03 0. -1.
    8880022    1    1    2    0    0 -0.30319058225E+03  0.76830234074E+02 -0.12567305673E+04  0.13040670174E+04  0.15294330000E+03 0.  1.
<mgrwt>
<rscale>  0 0.60611113E+03</rscale>
<asrwt>0</asrwt>
<pdfrwt beam="1">  1        2 0.24900401E-01 0.72913484E+03</pdfrwt>
<pdfrwt beam="2">  1       -2 0.34495774E+00 0.72913484E+03</pdfrwt>
<totfact> 0.38797057E+00</totfact>
</mgrwt>
</event>
<event>
 4    2  0.2930016E-007  0.7686092E+03  0.7818608E-02  0.9783308E-01
         -2   -1    0    0    0  501 -0.00000000000E+00  0.00000000000E+00  0.90077612418E+03  0.90077612418E+03  0.25500000000E-02 0.  1.
          2   -1    0    0  501    0  0.00000000000E+00 -0.00000000000E+00 -0.21327227718E+04  0.21327227718E+04  0.25500000000E-02 0. -1.
    8880023    1    1    2    0    0 -0.21739967251E+03  0.33119063622E+03 -0.20073244475E+04  0.21494444629E+04  0.65864270000E+03 0. -1.
    8880022    1    1    2    0    0  0.21739967251E+03 -0.33119063622E+03  0.77537779989E+03  0.88405443311E+03  0.15294330000E+03 0.  0.
<mgrwt>
<rscale>  0 0.66266058E+03</rscale>
<asrwt>0</asrwt>
<pdfrwt beam="1">  1        2 0.32811120E+00 0.76860917E+03</pdfrwt>
<pdfrwt beam="2">  1       -2 0.13858094E+00 0.76860917E+03</pdfrwt>
<totfact> 0.21547771E+00</totfact>
</mgrwt>
</event>
<event>
 4    2  0.2930016E-007  0.6651695E+03  0.7818608E-02  0.1019392E+00
         -2   -1    0    0    0  501 -0.00000000000E+00  0.00000000000E+00  0.28261352393E+03  0.28261352394E+03  0.25500000000E-02 0.  1.
          2   -1    0    0  501    0  0.00000000000E+00 -0.00000000000E+00 -0.19530286394E+04  0.19530286394E+04  0.25500000000E-02 0. -1.
    8880023    1    1    2    0    0 -0.31186002179E+02 -0.87564994257E+02 -0.18597378310E+04  0.19751139718E+04  0.65864270000E+03 0. -1.
    8880022    1    1    2    0    0  0.31186002179E+02  0.87564994257E+02  0.18932271559E+03  0.26052819157E+03  0.15294330000E+03 0.  0.
<mgrwt>
<rscale>  0 0.47906779E+03</rscale>
<asrwt>0</asrwt>
<pdfrwt beam="1">  1        2 0.30046594E+00 0.66516945E+03</pdfrwt>
<pdfrwt beam="2">  1       -2 0.43479005E-01 0.66516945E+03</pdfrwt>
<totfact> 0.37098921E+01</totfact>
</mgrwt>
</event>
<event>
 4    2  0.2930016E-007  0.9889621E+03  0.7818608E-02  0.9396143E-01
         -2   -1    0    0    0  501 -0.00000000000E+00  0.00000000000E+00  0.88634969435E+03  0.88634969436E+03  0.25500000000E-02 0.  1.
          2   -1    0    0  501    0  0.00000000000E+00 -0.00000000000E+00 -0.16703824736E+04  0.16703824736E+04  0.25500000000E-02 0. -1.
    8880023    1    1    2    0    0  0.31667409713E+03  0.66629824964E+03 -0.13074480920E+04  0.16393494321E+04  0.65864270000E+03 0. -1.
    8880022    1    1    2    0    0 -0.31667409713E+03 -0.66629824964E+03  0.52341531274E+03  0.91738273577E+03  0.15294330000E+03 0.  0.
<mgrwt>
<rscale>  0 0.92393765E+03</rscale>
<asrwt>0</asrwt>
<pdfrwt beam="1">  1        2 0.25698192E+00 0.98896211E+03</pdfrwt>
<pdfrwt beam="2">  1       -2 0.13636149E+00 0.98896211E+03</pdfrwt>
<totfact> 0.39003652E+00</totfact>
</mgrwt>
</event>
<event>
 4    2  0.2930016E-007  0.7222713E+03  0.7818608E-02  0.9914974E-01
         -2   -1    0    0    0  501 -0.00000000000E+00  0.00000000000E+00  0.15622060596E+04  0.15622060596E+04  0.25500000000E-02 0.  1.
          2   -1    0    0  501    0  0.00000000000E+00 -0.00000000000E+00 -0.20188052784E+03  0.20188052786E+03  0.25500000000E-02 0. -1.
    8880023    1    1    2    0    0 -0.21398068339E+03  0.20512896903E+03  0.61919682246E+03  0.95135720842E+03  0.65864270000E+03 0. -1.
    8880022    1    1    2    0    0  0.21398068339E+03 -0.20512896903E+03  0.74112870930E+03  0.81272937904E+03  0.15294330000E+03 0.  0.
<mgrwt>
<rscale>  0 0.59541027E+03</rscale>
<asrwt>0</asrwt>
<pdfrwt beam="1">  1        2 0.31058543E-01 0.72227130E+03</pdfrwt>
<pdfrwt beam="2">  1       -2 0.24033939E+00 0.72227130E+03</pdfrwt>
<totfact> 0.12953505E+01</totfact>
</mgrwt>
</event>
<event>
 4    2  0.2930016E-007  0.1058545E+04  0.7818608E-02  0.9308679E-01
          2   -1    0    0  501    0  0.00000000000E+00  0.00000000000E+00  0.11205161694E+04  0.11205161694E+04  0.25500000000E-02 0. -1.
         -2   -1    0    0    0  501 -0.00000000000E+00 -0.00000000000E+00 -0.15385978051E+04  0.15385978051E+04  0.25500000000E-02 0.  1.
    8880023    1    1    2    0    0  0.35247182184E+03 -0.74998044034E+03  0.69256149632E+03  0.12649737857E+04  0.65864270000E+03 0.  0.
    8880022    1    1    2    0    0 -0.35247182184E+03  0.74998044034E+03 -0.11106431320E+04  0.13941401887E+04  0.15294330000E+03 0.  1.
<mgrwt>
<rscale>  0 0.99987750E+03</rscale>
<asrwt>0</asrwt>
<pdfrwt beam="1">  1        2 0.17238710E+00 0.10585449E+04</pdfrwt>
<pdfrwt beam="2">  1       -2 0.23670735E+00 0.10585449E+04</pdfrwt>
<totfact> 0.16234182E+00</totfact>
</mgrwt>
</event>
<event>
 4    2  0.2930016E-007  0.6641728E+03  0.7818608E-02  0.1020238E+00
         -2   -1    0    0    0  501 -0.00000000000E+00  0.00000000000E+00  0.28035058169E+03  0.28035058170E+03  0.25500000000E-02 0.  1.
          2   -1    0    0  501    0  0.00000000000E+00 -0.00000000000E+00 -0.95745309541E+03  0.95745309541E+03  0.25500000000E-02 0. -1.
    8880023    1    1    2    0    0  0.25173071648E+01 -0.85492152119E+02 -0.78789170638E+03  0.10304847365E+04  0.65864270000E+03 0.  0.
    8880022    1    1    2    0    0 -0.25173071648E+01  0.85492152119E+02  0.11078919267E+03  0.20731894061E+03  0.15294330000E+03 0.  0.
<mgrwt>
<rscale>  0 0.47600913E+03</rscale>
<asrwt>0</asrwt>
<pdfrwt beam="1">  1        2 0.14730048E+00 0.66417276E+03</pdfrwt>
<pdfrwt beam="2">  1       -2 0.43130859E-01 0.66417276E+03</pdfrwt>
<totfact> 0.13926986E+02</totfact>
</mgrwt>
</event>
<event>
 4    2  0.2930016E-007  0.9471330E+03  0.7818608E-02  0.9454251E-01
         -2   -1    0    0    0  501 -0.00000000000E+00  0.00000000000E+00  0.45960984838E+03  0.45960984839E+03  0.25500000000E-02 0.  1.
          2   -1    0    0  501    0  0.00000000000E+00 -0.00000000000E+00 -0.21382293425E+04  0.21382293425E+04  0.25500000000E-02 0. -1.
    8880023    1    1    2    0    0  0.36168527857E+03 -0.57657133662E+03 -0.16465278158E+04  0.18995038303E+04  0.65864270000E+03 0.  0.
    8880022    1    1    2    0    0 -0.36168527857E+03  0.57657133662E+03 -0.32091678295E+02  0.69833536054E+03  0.15294330000E+03 0.  0.
<mgrwt>
<rscale>  0 0.87742393E+03</rscale>
<asrwt>0</asrwt>
<pdfrwt beam="1">  1        2 0.32895835E+00 0.94713302E+03</pdfrwt>
<pdfrwt beam="2">  1       -2 0.70709209E-01 0.94713302E+03</pdfrwt>
<totfact> 0.10283959E+01</totfact>
</mgrwt>
</event>
<event>
 4    2  0.2930016E-007  0.6668066E+03  0.7818608E-02  0.1018064E+00
          2   -1    0    0  501    0  0.00000000000E+00  0.00000000000E+00  0.10894131970E+04  0.10894131971E+04  0.25500000000E-02 0. -1.
         -2   -1    0    0    0  501 -0.00000000000E+00 -0.00000000000E+00 -0.18632217308E+03  0.18632217310E+03  0.25500000000E-02 0.  1.
    8880023    1    1    2    0    0  0.84090100096E+02  0.61234548358E+02  0.85563673182E+03  0.10847788890E+04  0.65864270000E+03 0. -1.
    8880022    1    1    2    0    0 -0.84090100096E+02 -0.61234548358E+02  0.47454292151E+02  0.19095648118E+03  0.15294330000E+03 0.  0.
<mgrwt>
<rscale>  0 0.48391932E+03</rscale>
<asrwt>0</asrwt>
<pdfrwt beam="1">  1        2 0.16760203E+00 0.66680658E+03</pdfrwt>
<pdfrwt beam="2">  1       -2 0.28664950E-01 0.66680658E+03</pdfrwt>
<totfact> 0.25034263E+02</totfact>
</mgrwt>
</event>
<event>
 4    2  0.2930016E-007  0.1601784E+04  0.7818608E-02  0.8840917E-01
         -2   -1    0    0    0  501 -0.00000000000E+00  0.00000000000E+00  0.12528208715E+04  0.12528208715E+04  0.25500000000E-02 0.  1.
          2   -1    0    0  501    0  0.00000000000E+00 -0.00000000000E+00 -0.24941622886E+04  0.24941622886E+04  0.25500000000E-02 0. -1.
    8880023    1    1    2    0    0  0.11117431790E+04 -0.94653536026E+03 -0.15696192020E+04  0.22426361118E+04  0.65864270000E+03 0.  0.
    8880022    1    1    2    0    0 -0.11117431790E+04  0.94653536026E+03  0.32827778494E+03  0.15043470482E+04  0.15294330000E+03 0.  0.
<mgrwt>
<rscale>  0 0.15672609E+04</rscale>
<asrwt>0</asrwt>
<pdfrwt beam="1">  1        2 0.38371727E+00 0.16017841E+04</pdfrwt>
<pdfrwt beam="2">  1       -2 0.19274167E+00 0.16017841E+04</pdfrwt>
<totfact> 0.48484706E-01</totfact>
</mgrwt>
</event>
<event>
 4    2  0.2930016E-007  0.9569984E+03  0.7818608E-02  0.9440116E-01
          2   -1    0    0  501    0  0.00000000000E+00  0.00000000000E+00  0.88373172130E+03  0.88373172130E+03  0.25500000000E-02 0. -1.
         -2   -1    0    0    0  501 -0.00000000000E+00 -0.00000000000E+00 -0.13447272099E+04  0.13447272099E+04  0.25500000000E-02 0.  1.
    8880023    1    1    2    0    0  0.68134374792E+03 -0.13344076554E+03  0.46259118706E+03  0.10629376997E+04  0.65864270000E+03 0. -1.
    8880022    1    1    2    0    0 -0.68134374792E+03  0.13344076554E+03 -0.92358667567E+03  0.11655212316E+04  0.15294330000E+03 0.  0.
<mgrwt>
<rscale>  0 0.88846589E+03</rscale>
<asrwt>0</asrwt>
<pdfrwt beam="1">  1        2 0.13595873E+00 0.95699840E+03</pdfrwt>
<pdfrwt beam="2">  1       -2 0.20688111E+00 0.95699840E+03</pdfrwt>
<totfact> 0.35990311E+00</totfact>
</mgrwt>
</event>
<event>
 4    2  0.2930016E-007  0.6842872E+03  0.7818608E-02  0.1006996E+00
          2   -1    0    0  501    0  0.00000000000E+00  0.00000000000E+00  0.10129755553E+04  0.10129755553E+04  0.25500000000E-02 0. -1.
         -2   -1    0    0    0  501 -0.00000000000E+00 -0.00000000000E+00 -0.27673652638E+03  0.27673652639E+03  0.25500000000E-02 0.  1.
    8880023    1    1    2    0    0  0.16205899243E+03 -0.90419425257E+02  0.78808379153E+03  0.10437073624E+04  0.65864270000E+03 0. -1.
    8880022    1    1    2    0    0 -0.16205899243E+03  0.90419425257E+02 -0.51844762648E+02  0.24600471930E+03  0.15294330000E+03 0.  0.
<mgrwt>
<rscale>  0 0.52686383E+03</rscale>
<asrwt>0</asrwt>
<pdfrwt beam="1">  1        2 0.15584240E+00 0.68428722E+03</pdfrwt>
<pdfrwt beam="2">  1       -2 0.42574849E-01 0.68428722E+03</pdfrwt>
<totfact> 0.13145063E+02</totfact>
</mgrwt>
</event>
<event>
 4    2  0.2930016E-007  0.9136546E+03  0.7818608E-02  0.9504458E-01
         -2   -1    0    0    0  501 -0.00000000000E+00  0.00000000000E+00  0.65267343118E+03  0.65267343119E+03  0.25500000000E-02 0.  1.
          2   -1    0    0  501    0  0.00000000000E+00 -0.00000000000E+00 -0.17563745256E+04  0.17563745256E+04  0.25500000000E-02 0. -1.
    8880023    1    1    2    0    0 -0.47750543142E+02  0.63140673146E+03 -0.14171471975E+04  0.16861408484E+04  0.65864270000E+03 0.  0.
    8880022    1    1    2    0    0  0.47750543142E+02 -0.63140673146E+03  0.31344610306E+03  0.72290710844E+03  0.15294330000E+03 0.  0.
<mgrwt>
<rscale>  0 0.83955971E+03</rscale>
<asrwt>0</asrwt>
<pdfrwt beam="1">  1        2 0.27021146E+00 0.91365463E+03</pdfrwt>
<pdfrwt beam="2">  1       -2 0.10041130E+00 0.91365463E+03</pdfrwt>
<totfact> 0.75203196E+00</totfact>
</mgrwt>
</event>
<event>
 4    2  0.2930016E-007  0.7935832E+03  0.7818608E-02  0.9724846E-01
          2   -1    0    0  501    0  0.00000000000E+00  0.00000000000E+00  0.22503727261E+04  0.22503727261E+04  0.25500000000E-02 0. -1.
         -2   -1    0    0    0  501 -0.00000000000E+00 -0.00000000000E+00 -0.23027741306E+03  0.23027741308E+03  0.25500000000E-02 0.  1.
    8880023    1    1    2    0    0  0.25020177894E+03 -0.36518918585E+03  0.17916827620E+04  0.19595666352E+04  0.65864270000E+03 0.  0.
    8880022    1    1    2    0    0 -0.25020177894E+03  0.36518918585E+03  0.22841255096E+03  0.52108350396E+03  0.15294330000E+03 0.  0.
<mgrwt>
<rscale>  0 0.69556539E+03</rscale>
<asrwt>0</asrwt>
<pdfrwt beam="1">  1        2 0.34621119E+00 0.79358319E+03</pdfrwt>
<pdfrwt beam="2">  1       -2 0.35427294E-01 0.79358319E+03</pdfrwt>
<totfact> 0.37312160E+01</totfact>
</mgrwt>
</event>
<event>
 4    2  0.2930016E-007  0.1024273E+04  0.7818608E-02  0.9350468E-01
          2   -1    0    0  501    0  0.00000000000E+00  0.00000000000E+00  0.63372430271E+03  0.63372430272E+03  0.25500000000E-02 0. -1.
         -2   -1    0    0    0  501 -0.00000000000E+00 -0.00000000000E+00 -0.22730286120E+04  0.22730286120E+04  0.25500000000E-02 0.  1.
    8880023    1    1    2    0    0 -0.77822912115E+03  0.98407678497E+02  0.62970051324E+02  0.10262066409E+04  0.65864270000E+03 0.  0.
    8880022    1    1    2    0    0  0.77822912115E+03 -0.98407678497E+02 -0.17022743607E+04  0.18805462739E+04  0.15294330000E+03 0.  0.
<mgrwt>
<rscale>  0 0.96266513E+03</rscale>
<asrwt>0</asrwt>
<pdfrwt beam="1">  1        2 0.97496048E-01 0.10242728E+04</pdfrwt>
<pdfrwt beam="2">  1       -2 0.34969671E+00 0.10242728E+04</pdfrwt>
<totfact> 0.73209125E-01</totfact>
</mgrwt>
</event>
<event>
 4    2  0.3353936E-007  0.7012796E+03  0.7818608E-02  0.9991934E-01
          2   -1    0    0  501    0  0.00000000000E+00  0.00000000000E+00  0.13288123230E+04  0.13288123230E+04  0.25500000000E-02 0. -1.
         -2   -1    0    0    0  501 -0.00000000000E+00 -0.00000000000E+00 -0.18341922309E+04  0.18341922309E+04  0.25500000000E-02 0.  1.
    8880023    1    1    2    0    0 -0.12762047398E+03  0.20419578143E+03  0.12237804057E+04  0.14104721161E+04  0.65864270000E+03 0. -1.
    8880022    1    1    2    0    0  0.12762047398E+03 -0.20419578143E+03 -0.17291603136E+04  0.17525324378E+04  0.15294330000E+03 0.  0.
<mgrwt>
<rscale>  0 0.56005347E+03</rscale>
<asrwt>0</asrwt>
<pdfrwt beam="1">  1        2 0.20443267E+00 0.70127962E+03</pdfrwt>
<pdfrwt beam="2">  1       -2 0.28218342E+00 0.70127962E+03</pdfrwt>
<totfact> 0.68718793E-01</totfact>
</mgrwt>
</event>
<event>
 4    2  0.2930016E-007  0.1263216E+04  0.7818608E-02  0.9097994E-01
         -2   -1    0    0    0  501 -0.00000000000E+00  0.00000000000E+00  0.11476655251E+04  0.11476655251E+04  0.25500000000E-02 0.  1.
          2   -1    0    0  501    0  0.00000000000E+00 -0.00000000000E+00 -0.22926417136E+04  0.22926417136E+04  0.25500000000E-02 0. -1.
    8880023    1    1    2    0    0  0.43977388052E+03  0.98412595779E+03 -0.17779100475E+04  0.21809812723E+04  0.65864270000E+03 0.  0.
    8880022    1    1    2    0    0 -0.43977388052E+03 -0.98412595779E+03  0.63293385903E+03  0.12593259664E+04  0.15294330000E+03 0.  0.
<mgrwt>
<rscale>  0 0.12171291E+04</rscale>
<asrwt>0</asrwt>
<pdfrwt beam="1">  1        2 0.35271411E+00 0.12632162E+04</pdfrwt>
<pdfrwt beam="2">  1       -2 0.17656393E+00 0.12632162E+04</pdfrwt>
<totfact> 0.84738972E-01</totfact>
</mgrwt>
</event>
<event>
 4    2  0.2930016E-007  0.8177660E+03  0.7818608E-02  0.9673622E-01
         -2   -1    0    0    0  501 -0.00000000000E+00  0.00000000000E+00  0.98986269550E+03  0.98986269550E+03  0.25500000000E-02 0.  1.
          2   -1    0    0  501    0  0.00000000000E+00 -0.00000000000E+00 -0.51891885803E+03  0.51891885804E+03  0.25500000000E-02 0. -1.
    8880023    1    1    2    0    0  0.40720207672E+03 -0.26290216597E+03  0.27845020147E+01  0.81777077465E+03  0.65864270000E+03 0. -1.
    8880022    1    1    2    0    0 -0.40720207672E+03  0.26290216597E+03  0.46815933545E+03  0.69101077889E+03  0.15294330000E+03 0.  0.
<mgrwt>
<rscale>  0 0.72609280E+03</rscale>
<asrwt>0</asrwt>
<pdfrwt beam="1">  1        2 0.79833671E-01 0.81776603E+03</pdfrwt>
<pdfrwt beam="2">  1       -2 0.15228657E+00 0.81776603E+03</pdfrwt>
<totfact> 0.17105390E+01</totfact>
</mgrwt>
</event>
<event>
 4    2  0.2930016E-007  0.6691976E+03  0.7818608E-02  0.1016245E+00
          2   -1    0    0  501    0  0.00000000000E+00  0.00000000000E+00  0.12262620885E+04  0.12262620886E+04  0.25500000000E-02 0. -1.
         -2   -1    0    0    0  501 -0.00000000000E+00 -0.00000000000E+00 -0.26609158377E+03  0.26609158379E+03  0.25500000000E-02 0.  1.
    8880023    1    1    2    0    0  0.22577176611E+02 -0.11621307793E+03  0.10758459513E+04  0.12669924726E+04  0.65864270000E+03 0. -1.
    8880022    1    1    2    0    0 -0.22577176611E+02  0.11621307793E+03 -0.11567544657E+03  0.22536119972E+03  0.15294330000E+03 0.  1.
<mgrwt>
<rscale>  0 0.49066455E+03</rscale>
<asrwt>0</asrwt>
<pdfrwt beam="1">  1        2 0.18865571E+00 0.66919759E+03</pdfrwt>
<pdfrwt beam="2">  1       -2 0.40937167E-01 0.66919759E+03</pdfrwt>
<totfact> 0.10553088E+02</totfact>
</mgrwt>
</event>
<event>
 4    2  0.2930016E-007  0.1229556E+04  0.7818608E-02  0.9128914E-01
         -2   -1    0    0    0  501 -0.00000000000E+00  0.00000000000E+00  0.11197605598E+04  0.11197605598E+04  0.25500000000E-02 0.  1.
          2   -1    0    0  501    0  0.00000000000E+00 -0.00000000000E+00 -0.12043913394E+04  0.12043913394E+04  0.25500000000E-02 0. -1.
    8880023    1    1    2    0    0  0.97389395544E+03 -0.35990114387E+03  0.17785528471E+03  0.12423530007E+04  0.65864270000E+03 0.  1.
    8880022    1    1    2    0    0 -0.97389395544E+03  0.35990114387E+03 -0.26248606432E+03  0.10817988985E+04  0.15294330000E+03 0. -1.
<mgrwt>
<rscale>  0 0.11818271E+04</rscale>
<asrwt>0</asrwt>
<pdfrwt beam="1">  1        2 0.18529097E+00 0.12295562E+04</pdfrwt>
<pdfrwt beam="2">  1       -2 0.17227086E+00 0.12295562E+04</pdfrwt>
<totfact> 0.37469275E+00</totfact>
</mgrwt>
</event>
<event>
 4    2  0.2930016E-007  0.7476798E+03  0.7818608E-02  0.9838116E-01
          2   -1    0    0  501    0  0.00000000000E+00  0.00000000000E+00  0.11588186358E+04  0.11588186358E+04  0.25500000000E-02 0. -1.
         -2   -1    0    0    0  501 -0.00000000000E+00 -0.00000000000E+00 -0.75282522850E+03  0.75282522850E+03  0.25500000000E-02 0.  1.
    8880023    1    1    2    0    0 -0.33923047184E+03  0.10068552442E+03  0.97232797367E+03  0.12265589193E+04  0.65864270000E+03 0. -1.
    8880022    1    1    2    0    0  0.33923047184E+03 -0.10068552442E+03 -0.56633456635E+03  0.68508494503E+03  0.15294330000E+03 0.  0.
<mgrwt>
<rscale>  0 0.63356544E+03</rscale>
<asrwt>0</asrwt>
<pdfrwt beam="1">  1        2 0.17827979E+00 0.74767981E+03</pdfrwt>
<pdfrwt beam="2">  1       -2 0.11581927E+00 0.74767981E+03</pdfrwt>
<totfact> 0.11845884E+01</totfact>
</mgrwt>
</event>
<event>
 4    2  0.2930016E-007  0.7341455E+03  0.7818608E-02  0.9877341E-01
          2   -1    0    0  501    0  0.00000000000E+00  0.00000000000E+00  0.11075767713E+04  0.11075767713E+04  0.25500000000E-02 0. -1.
         -2   -1    0    0    0  501 -0.00000000000E+00 -0.00000000000E+00 -0.34399080219E+03  0.34399080220E+03  0.25500000000E-02 0.  1.
    8880023    1    1    2    0    0  0.29000165556E+03  0.14511514007E+03  0.16287963212E+03  0.75199690487E+03  0.65864270000E+03 0.  0.
    8880022    1    1    2    0    0 -0.29000165556E+03 -0.14511514007E+03  0.60070633697E+03  0.69957066862E+03  0.15294330000E+03 0.  0.
<mgrwt>
<rscale>  0 0.61372107E+03</rscale>
<asrwt>0</asrwt>
<pdfrwt beam="1">  1        2 0.17039643E+00 0.73414547E+03</pdfrwt>
<pdfrwt beam="2">  1       -2 0.52921661E-01 0.73414547E+03</pdfrwt>
<totfact> 0.73806212E+01</totfact>
</mgrwt>
</event>
<event>
 4    2  0.2930016E-007  0.7241631E+03  0.7818608E-02  0.9908743E-01
          2   -1    0    0  501    0  0.00000000000E+00  0.00000000000E+00  0.81421711778E+03  0.81421711778E+03  0.25500000000E-02 0. -1.
         -2   -1    0    0    0  501 -0.00000000000E+00 -0.00000000000E+00 -0.72280552051E+03  0.72280552051E+03  0.25500000000E-02 0.  1.
    8880023    1    1    2    0    0  0.36934500690E+02 -0.29872712710E+03  0.59054071401E+03  0.93442527522E+03  0.65864270000E+03 0.  0.
    8880022    1    1    2    0    0 -0.36934500690E+02  0.29872712710E+03 -0.49912911674E+03  0.60259736308E+03  0.15294330000E+03 0.  1.
<mgrwt>
<rscale>  0 0.59839427E+03</rscale>
<asrwt>0</asrwt>
<pdfrwt beam="1">  1        2 0.12526417E+00 0.72416314E+03</pdfrwt>
<pdfrwt beam="2">  1       -2 0.11120085E+00 0.72416314E+03</pdfrwt>
<totfact> 0.21899455E+01</totfact>
</mgrwt>
</event>
<event>
 4    2  0.2930016E-007  0.1232608E+04  0.7818608E-02  0.9126059E-01
         -2   -1    0    0    0  501 -0.00000000000E+00  0.00000000000E+00  0.11221655880E+04  0.11221655880E+04  0.25500000000E-02 0.  1.
          2   -1    0    0  501    0  0.00000000000E+00 -0.00000000000E+00 -0.16069397049E+04  0.16069397049E+04  0.25500000000E-02 0. -1.
    8880023    1    1    2    0    0  0.10393160704E+04  0.73029253373E+02 -0.97109514226E+03  0.15691867791E+04  0.65864270000E+03 0.  0.
    8880022    1    1    2    0    0 -0.10393160704E+04 -0.73029253373E+02  0.48632102539E+03  0.11599185138E+04  0.15294330000E+03 0.  0.
<mgrwt>
<rscale>  0 0.11850326E+04</rscale>
<asrwt>0</asrwt>
<pdfrwt beam="1">  1        2 0.24722149E+00 0.12326075E+04</pdfrwt>
<pdfrwt beam="2">  1       -2 0.17264086E+00 0.12326075E+04</pdfrwt>
<totfact> 0.21826706E+00</totfact>
</mgrwt>
</event>
<event>
 4    2  0.2930016E-007  0.7076129E+03  0.7818608E-02  0.9966974E-01
         -2   -1    0    0    0  501 -0.00000000000E+00  0.00000000000E+00  0.85712969055E+03  0.85712969056E+03  0.25500000000E-02 0.  1.
          2   -1    0    0  501    0  0.00000000000E+00 -0.00000000000E+00 -0.33878975738E+03  0.33878975739E+03  0.25500000000E-02 0. -1.
    8880023    1    1    2    0    0 -0.19026494682E+03 -0.17522870655E+03  0.15494953804E+03  0.72437933101E+03  0.65864270000E+03 0.  0.
    8880022    1    1    2    0    0  0.19026494682E+03  0.17522870655E+03  0.36339039514E+03  0.47154011694E+03  0.15294330000E+03 0.  0.
<mgrwt>
<rscale>  0 0.57122379E+03</rscale>
<asrwt>0</asrwt>
<pdfrwt beam="1">  1        2 0.52121501E-01 0.70761293E+03</pdfrwt>
<pdfrwt beam="2">  1       -2 0.13186611E+00 0.70761293E+03</pdfrwt>
<totfact> 0.40709699E+01</totfact>
</mgrwt>
</event>
<event>
 4    2  0.2930016E-007  0.8682697E+03  0.7818608E-02  0.9579019E-01
         -2   -1    0    0    0  501 -0.00000000000E+00  0.00000000000E+00  0.97203931263E+03  0.97203931263E+03  0.25500000000E-02 0.  1.
          2   -1    0    0  501    0  0.00000000000E+00 -0.00000000000E+00 -0.71852365241E+03  0.71852365241E+03  0.25500000000E-02 0. -1.
    8880023    1    1    2    0    0  0.51116584201E+03  0.24246959787E+03 -0.26524862751E+03  0.90788163578E+03  0.65864270000E+03 0. -1.
    8880022    1    1    2    0    0 -0.51116584201E+03 -0.24246959787E+03  0.51876428774E+03  0.78268132926E+03  0.15294330000E+03 0.  0.
<mgrwt>
<rscale>  0 0.78700530E+03</rscale>
<asrwt>0</asrwt>
<pdfrwt beam="1">  1        2 0.11054210E+00 0.86826968E+03</pdfrwt>
<pdfrwt beam="2">  1       -2 0.14954451E+00 0.86826968E+03</pdfrwt>
<totfact> 0.12014156E+01</totfact>
</mgrwt>
</event>
<event>
 4    2  0.2930016E-007  0.6680107E+03  0.7818608E-02  0.1017131E+00
         -2   -1    0    0    0  501 -0.00000000000E+00  0.00000000000E+00  0.53027949991E+03  0.53027949991E+03  0.25500000000E-02 0.  1.
          2   -1    0    0  501    0  0.00000000000E+00 -0.00000000000E+00 -0.35643010941E+03  0.35643010942E+03  0.25500000000E-02 0. -1.
    8880023    1    1    2    0    0 -0.97148916694E+02  0.54681975452E+02  0.19596423996E+03  0.69616105899E+03  0.65864270000E+03 0.  1.
    8880022    1    1    2    0    0  0.97148916694E+02 -0.54681975452E+02 -0.22114849464E+02  0.19054855034E+03  0.15294330000E+03 0.  0.
<mgrwt>
<rscale>  0 0.48736323E+03</rscale>
<asrwt>0</asrwt>
<pdfrwt beam="1">  1        2 0.54835402E-01 0.66801066E+03</pdfrwt>
<pdfrwt beam="2">  1       -2 0.81581461E-01 0.66801066E+03</pdfrwt>
<totfact> 0.12139838E+02</totfact>
</mgrwt>
</event>
<event>
 4    2  0.2930016E-007  0.1292944E+04  0.7818608E-02  0.9071677E-01
          2   -1    0    0  501    0  0.00000000000E+00  0.00000000000E+00  0.20882590276E+04  0.20882590276E+04  0.25500000000E-02 0. -1.
         -2   -1    0    0    0  501 -0.00000000000E+00 -0.00000000000E+00 -0.73903796688E+03  0.73903796689E+03  0.25500000000E-02 0.  1.
    8880023    1    1    2    0    0 -0.85100846890E+03  0.71671322984E+03  0.10485378575E+04  0.16646726744E+04  0.65864270000E+03 0.  0.
    8880022    1    1    2    0    0  0.85100846890E+03 -0.71671322984E+03  0.30068320323E+03  0.11626243201E+04  0.15294330000E+03 0.  0.
<mgrwt>
<rscale>  0 0.12482063E+04</rscale>
<asrwt>0</asrwt>
<pdfrwt beam="1">  1        2 0.32127062E+00 0.12929437E+04</pdfrwt>
<pdfrwt beam="2">  1       -2 0.11369815E+00 0.12929437E+04</pdfrwt>
<totfact> 0.35024632E+00</totfact>
</mgrwt>
</event>
<event>
 4    2  0.2930016E-007  0.8166502E+03  0.7818608E-02  0.9675888E-01
          2   -1    0    0  501    0  0.00000000000E+00  0.00000000000E+00  0.18726066285E+04  0.18726066285E+04  0.25500000000E-02 0. -1.
         -2   -1    0    0    0  501 -0.00000000000E+00 -0.00000000000E+00 -0.34672406643E+03  0.34672406643E+03  0.25500000000E-02 0.  1.
    8880023    1    1    2    0    0 -0.48173966767E+03  0.32159985653E+02  0.15051806978E+04  0.17124504405E+04  0.65864270000E+03 0. -1.
    8880022    1    1    2    0    0  0.48173966767E+03 -0.32159985653E+02  0.20701864288E+02  0.50688025438E+03  0.15294330000E+03 0.  0.
<mgrwt>
<rscale>  0 0.72470753E+03</rscale>
<asrwt>0</asrwt>
<pdfrwt beam="1">  1        2 0.28809332E+00 0.81665022E+03</pdfrwt>
<pdfrwt beam="2">  1       -2 0.53342165E-01 0.81665022E+03</pdfrwt>
<totfact> 0.26625886E+01</totfact>
</mgrwt>
</event>
<event>
 4    2  0.2930016E-007  0.7710615E+03  0.7818608E-02  0.9777269E-01
          2   -1    0    0  501    0  0.00000000000E+00  0.00000000000E+00  0.66361171275E+03  0.66361171276E+03  0.25500000000E-02 0. -1.
         -2   -1    0    0    0  501 -0.00000000000E+00 -0.00000000000E+00 -0.63797818659E+03  0.63797818659E+03  0.25500000000E-02 0.  1.
    8880023    1    1    2    0    0 -0.35319933202E+03 -0.18967290871E+03  0.25868333731E+03  0.81329751979E+03  0.65864270000E+03 0.  0.
    8880022    1    1    2    0    0  0.35319933202E+03  0.18967290871E+03 -0.23304981115E+03  0.48829237955E+03  0.15294330000E+03 0.  0.
<mgrwt>
<rscale>  0 0.66596830E+03</rscale>
<asrwt>0</asrwt>
<pdfrwt beam="1">  1        2 0.10209411E+00 0.77106147E+03</pdfrwt>
<pdfrwt beam="2">  1       -2 0.98150490E-01 0.77106147E+03</pdfrwt>
<totfact> 0.38253497E+01</totfact>
</mgrwt>
</event>
<event>
 4    2  0.2930016E-007  0.1268783E+04  0.7818608E-02  0.9092997E-01
          2   -1    0    0  501    0  0.00000000000E+00  0.00000000000E+00  0.13044536133E+04  0.13044536133E+04  0.25500000000E-02 0. -1.
         -2   -1    0    0    0  501 -0.00000000000E+00 -0.00000000000E+00 -0.11831395532E+04  0.11831395532E+04  0.25500000000E-02 0.  1.
    8880023    1    1    2    0    0 -0.29059342735E+03  0.10447755959E+04  0.44668113061E+03  0.13451151715E+04  0.65864270000E+03 0.  0.
    8880022    1    1    2    0    0  0.29059342735E+03 -0.10447755959E+04 -0.32536707052E+03  0.11424779951E+04  0.15294330000E+03 0.  0.
<mgrwt>
<rscale>  0 0.12229557E+04</rscale>
<asrwt>0</asrwt>
<pdfrwt beam="1">  1        2 0.20068517E+00 0.12687832E+04</pdfrwt>
<pdfrwt beam="2">  1       -2 0.18202147E+00 0.12687832E+04</pdfrwt>
<totfact> 0.27831894E+00</totfact>
</mgrwt>
</event>
<event>
 4    2  0.2930016E-007  0.9199534E+03  0.7818608E-02  0.9494730E-01
          2   -1    0    0  501    0  0.00000000000E+00  0.00000000000E+00  0.36138774068E+04  0.36138774068E+04  0.25500000000E-02 0. -1.
         -2   -1    0    0    0  501 -0.00000000000E+00 -0.00000000000E+00 -0.26681302275E+03  0.26681302277E+03  0.25500000000E-02 0.  1.
    8880023    1    1    2    0    0 -0.48821731454E+03  0.41731035141E+03  0.29936768823E+04  0.31318390057E+04  0.65864270000E+03 0.  1.
    8880022    1    1    2    0    0  0.48821731454E+03 -0.41731035141E+03  0.35338750169E+03  0.74885142383E+03  0.15294330000E+03 0.  0.
<mgrwt>
<rscale>  0 0.84673440E+03</rscale>
<asrwt>0</asrwt>
<pdfrwt beam="1">  1        2 0.55598113E+00 0.91995341E+03</pdfrwt>
<pdfrwt beam="2">  1       -2 0.41048158E-01 0.91995341E+03</pdfrwt>
<totfact> 0.39992480E+00</totfact>
</mgrwt>
</event>
<event>
 4    2  0.2930016E-007  0.7189859E+03  0.7818608E-02  0.9926032E-01
         -2   -1    0    0    0  501 -0.00000000000E+00  0.00000000000E+00  0.42033704474E+03  0.42033704474E+03  0.25500000000E-02 0.  1.
          2   -1    0    0  501    0  0.00000000000E+00 -0.00000000000E+00 -0.88122040748E+03  0.88122040748E+03  0.25500000000E-02 0. -1.
    8880023    1    1    2    0    0  0.28571166711E+03  0.38721291874E+02 -0.60984878476E+03  0.94279172764E+03  0.65864270000E+03 0. -1.
    8880022    1    1    2    0    0 -0.28571166711E+03 -0.38721291874E+02  0.14896542202E+03  0.35876572459E+03  0.15294330000E+03 0.  0.
<mgrwt>
<rscale>  0 0.59016067E+03</rscale>
<asrwt>0</asrwt>
<pdfrwt beam="1">  1        2 0.13557237E+00 0.71898588E+03</pdfrwt>
<pdfrwt beam="2">  1       -2 0.64667238E-01 0.71898588E+03</pdfrwt>
<totfact> 0.67744978E+01</totfact>
</mgrwt>
</event>
<event>
 4    2  0.2930016E-007  0.9338573E+03  0.7818608E-02  0.9473731E-01
          2   -1    0    0  501    0  0.00000000000E+00  0.00000000000E+00  0.21237265023E+04  0.21237265023E+04  0.25500000000E-02 0. -1.
         -2   -1    0    0    0  501 -0.00000000000E+00 -0.00000000000E+00 -0.87338951857E+03  0.87338951857E+03  0.25500000000E-02 0.  1.
    8880023    1    1    2    0    0  0.43307244201E+02 -0.66060856163E+03  0.18618944375E+04  0.20829643040E+04  0.65864270000E+03 0. -1.
    8880022    1    1    2    0    0 -0.43307244201E+02  0.66060856163E+03 -0.61155745380E+03  0.91415171684E+03  0.15294330000E+03 0.  0.
<mgrwt>
<rscale>  0 0.86248576E+03</rscale>
<asrwt>0</asrwt>
<pdfrwt beam="1">  1        2 0.32672715E+00 0.93385727E+03</pdfrwt>
<pdfrwt beam="2">  1       -2 0.13436762E+00 0.93385727E+03</pdfrwt>
<totfact> 0.22968079E+00</totfact>
</mgrwt>
</event>
<event>
 4    2  0.2930016E-007  0.8432781E+03  0.7818608E-02  0.9624030E-01
          2   -1    0    0  501    0  0.00000000000E+00  0.00000000000E+00  0.96292505167E+03  0.96292505167E+03  0.25500000000E-02 0. -1.
         -2   -1    0    0    0  501 -0.00000000000E+00 -0.00000000000E+00 -0.62163141242E+03  0.62163141243E+03  0.25500000000E-02 0.  1.
    8880023    1    1    2    0    0  0.15189336052E+03  0.50421831316E+03  0.53993846220E+03  0.10013248472E+04  0.65864270000E+03 0.  0.
    8880022    1    1    2    0    0 -0.15189336052E+03 -0.50421831316E+03 -0.19864482295E+03  0.58323161694E+03  0.15294330000E+03 0.  0.
<mgrwt>
<rscale>  0 0.75725939E+03</rscale>
<asrwt>0</asrwt>
<pdfrwt beam="1">  1        2 0.14814231E+00 0.84327807E+03</pdfrwt>
<pdfrwt beam="2">  1       -2 0.95635603E-01 0.84327807E+03</pdfrwt>
<totfact> 0.24602972E+01</totfact>
</mgrwt>
</event>
<event>
 4    2  0.2930016E-007  0.7635027E+03  0.7818608E-02  0.9796122E-01
         -2   -1    0    0    0  501 -0.00000000000E+00  0.00000000000E+00  0.35315131544E+03  0.35315131545E+03  0.25500000000E-02 0.  1.
          2   -1    0    0  501    0  0.00000000000E+00 -0.00000000000E+00 -0.12979095119E+04  0.12979095119E+04  0.25500000000E-02 0. -1.
    8880023    1    1    2    0    0  0.34428905161E+03  0.17490326926E+03 -0.97059524135E+03  0.12349054350E+04  0.65864270000E+03 0. -1.
    8880022    1    1    2    0    0 -0.34428905161E+03 -0.17490326926E+03  0.25837044892E+02  0.41615539232E+03  0.15294330000E+03 0.  0.
<mgrwt>
<rscale>  0 0.65571050E+03</rscale>
<asrwt>0</asrwt>
<pdfrwt beam="1">  1        2 0.19967838E+00 0.76350266E+03</pdfrwt>
<pdfrwt beam="2">  1       -2 0.54330972E-01 0.76350266E+03</pdfrwt>
<totfact> 0.53788526E+01</totfact>
</mgrwt>
</event>
<event>
 4    2  0.2930016E-007  0.7431325E+03  0.7818608E-02  0.9850915E-01
         -2   -1    0    0    0  501 -0.00000000000E+00  0.00000000000E+00  0.36030712657E+03  0.36030712657E+03  0.25500000000E-02 0.  1.
          2   -1    0    0  501    0  0.00000000000E+00 -0.00000000000E+00 -0.20656974829E+04  0.20656974829E+04  0.25500000000E-02 0. -1.
    8880023    1    1    2    0    0 -0.98418855212E+02 -0.32977179250E+03 -0.18720663518E+04  0.20141693916E+04  0.65864270000E+03 0. -1.
    8880022    1    1    2    0    0  0.98418855212E+02  0.32977179250E+03  0.16667599549E+03  0.41183521787E+03  0.15294330000E+03 0.  0.
<mgrwt>
<rscale>  0 0.62700311E+03</rscale>
<asrwt>0</asrwt>
<pdfrwt beam="1">  1        2 0.31779961E+00 0.74313250E+03</pdfrwt>
<pdfrwt beam="2">  1       -2 0.55431867E-01 0.74313250E+03</pdfrwt>
<totfact> 0.19470420E+01</totfact>
</mgrwt>
</event>
<event>
 4    2  0.2930016E-007  0.9836167E+03  0.7818608E-02  0.9403313E-01
          2   -1    0    0  501    0  0.00000000000E+00  0.00000000000E+00  0.33307013119E+04  0.33307013119E+04  0.25500000000E-02 0. -1.
         -2   -1    0    0    0  501 -0.00000000000E+00 -0.00000000000E+00 -0.34796952044E+03  0.34796952045E+03  0.25500000000E-02 0.  1.
    8880023    1    1    2    0    0 -0.62068799198E+03  0.38527653950E+03  0.27117358734E+04  0.28846166554E+04  0.65864270000E+03 0. -1.
    8880022    1    1    2    0    0  0.62068799198E+03 -0.38527653950E+03  0.27099591804E+03  0.79405417692E+03  0.15294330000E+03 0.  0.
<mgrwt>
<rscale>  0 0.91803541E+03</rscale>
<asrwt>0</asrwt>
<pdfrwt beam="1">  1        2 0.51241560E+00 0.98361669E+03</pdfrwt>
<pdfrwt beam="2">  1       -2 0.53533770E-01 0.98361669E+03</pdfrwt>
<totfact> 0.36140752E+00</totfact>
</mgrwt>
</event>
<event>
 4    2  0.2930016E-007  0.7819236E+03  0.7818608E-02  0.9751338E-01
         -2   -1    0    0    0  501 -0.00000000000E+00  0.00000000000E+00  0.12770852315E+04  0.12770852315E+04  0.25500000000E-02 0.  1.
          2   -1    0    0  501    0  0.00000000000E+00 -0.00000000000E+00 -0.71966164049E+03  0.71966164049E+03  0.25500000000E-02 0. -1.
    8880023    1    1    2    0    0  0.37996592604E+03  0.18226426301E+03 -0.44425861836E+03  0.89931656983E+03  0.65864270000E+03 0.  0.
    8880022    1    1    2    0    0 -0.37996592604E+03 -0.18226426301E+03  0.10016822094E+04  0.10974303022E+04  0.15294330000E+03 0.  0.
<mgrwt>
<rscale>  0 0.68040734E+03</rscale>
<asrwt>0</asrwt>
<pdfrwt beam="1">  1        2 0.11071718E+00 0.78192364E+03</pdfrwt>
<pdfrwt beam="2">  1       -2 0.19647465E+00 0.78192364E+03</pdfrwt>
<totfact> 0.56418338E+00</totfact>
</mgrwt>
</event>
<event>
 4    2  0.2930016E-007  0.7498883E+03  0.7818608E-02  0.9832026E-01
          2   -1    0    0  501    0  0.00000000000E+00  0.00000000000E+00  0.64112426239E+03  0.64112426240E+03  0.25500000000E-02 0. -1.
         -2   -1    0    0    0  501 -0.00000000000E+00 -0.00000000000E+00 -0.16944944697E+04  0.16944944697E+04  0.25500000000E-02 0.  1.
    8880023    1    1    2    0    0 -0.11294092520E+03  0.34024488957E+03  0.38670831274E+03  0.84372730362E+03  0.65864270000E+03 0. -1.
    8880022    1    1    2    0    0  0.11294092520E+03 -0.34024488957E+03 -0.14400785200E+04  0.14918914285E+04  0.15294330000E+03 0.  0.
<mgrwt>
<rscale>  0 0.63671798E+03</rscale>
<asrwt>0</asrwt>
<pdfrwt beam="1">  1        2 0.98634503E-01 0.74988829E+03</pdfrwt>
<pdfrwt beam="2">  1       -2 0.26069146E+00 0.74988829E+03</pdfrwt>
<totfact> 0.26097487E+00</totfact>
</mgrwt>
</event>
<event>
 4    2  0.2930016E-007  0.1090810E+04  0.7818608E-02  0.9271358E-01
          2   -1    0    0  501    0  0.00000000000E+00  0.00000000000E+00  0.18437844263E+04  0.18437844263E+04  0.25500000000E-02 0. -1.
         -2   -1    0    0    0  501 -0.00000000000E+00 -0.00000000000E+00 -0.10485815468E+04  0.10485815468E+04  0.25500000000E-02 0.  1.
    8880023    1    1    2    0    0  0.29025561096E+03  0.81963877033E+03  0.14346578080E+04  0.18022511662E+04  0.65864270000E+03 0. -1.
    8880022    1    1    2    0    0 -0.29025561096E+03 -0.81963877033E+03 -0.63945492852E+03  0.10901148069E+04  0.15294330000E+03 0.  0.
<mgrwt>
<rscale>  0 0.10346303E+04</rscale>
<asrwt>0</asrwt>
<pdfrwt beam="1">  1        2 0.28365914E+00 0.10908099E+04</pdfrwt>
<pdfrwt beam="2">  1       -2 0.16132024E+00 0.10908099E+04</pdfrwt>
<totfact> 0.19778418E+00</totfact>
</mgrwt>
</event>
<event>
 4    2  0.2930016E-007  0.6838232E+03  0.7818608E-02  0.1007239E+00
         -2   -1    0    0    0  501 -0.00000000000E+00  0.00000000000E+00  0.77613794559E+03  0.77613794559E+03  0.25500000000E-02 0.  1.
          2   -1    0    0  501    0  0.00000000000E+00 -0.00000000000E+00 -0.71738536057E+03  0.71738536058E+03  0.25500000000E-02 0. -1.
    8880023    1    1    2    0    0 -0.13033607580E+03  0.12967835828E+03 -0.52536966567E+03  0.86233836812E+03  0.65864270000E+03 0. -1.
    8880022    1    1    2    0    0  0.13033607580E+03 -0.12967835828E+03  0.58412225069E+03  0.63118493805E+03  0.15294330000E+03 0.  0.
<mgrwt>
<rscale>  0 0.52586979E+03</rscale>
<asrwt>0</asrwt>
<pdfrwt beam="1">  1        2 0.11036698E+00 0.68382320E+03</pdfrwt>
<pdfrwt beam="2">  1       -2 0.11940584E+00 0.68382320E+03</pdfrwt>
<totfact> 0.21784877E+01</totfact>
</mgrwt>
</event>
<event>
 4    2  0.2930016E-007  0.6942697E+03  0.7818608E-02  0.1002186E+00
         -2   -1    0    0    0  501 -0.00000000000E+00  0.00000000000E+00  0.21512925803E+03  0.21512925805E+03  0.25500000000E-02 0.  1.
          2   -1    0    0  501    0  0.00000000000E+00 -0.00000000000E+00 -0.27510603581E+04  0.27510603581E+04  0.25500000000E-02 0. -1.
    8880023    1    1    2    0    0  0.21786926424E+03 -0.27078560820E+02 -0.25999673311E+04  0.26910668133E+04  0.65864270000E+03 0. -1.
    8880022    1    1    2    0    0 -0.21786926424E+03  0.27078560820E+02  0.64036230998E+02  0.27512280285E+03  0.15294330000E+03 0.  0.
<mgrwt>
<rscale>  0 0.54702122E+03</rscale>
<asrwt>0</asrwt>
<pdfrwt beam="1">  1        2 0.42324003E+00 0.69426974E+03</pdfrwt>
<pdfrwt beam="2">  1       -2 0.33096811E-01 0.69426974E+03</pdfrwt>
<totfact> 0.22382972E+01</totfact>
</mgrwt>
</event>
<event>
 4    2  0.2930016E-007  0.9384947E+03  0.7818608E-02  0.9466865E-01
         -2   -1    0    0    0  501 -0.00000000000E+00  0.00000000000E+00  0.85182734072E+03  0.85182734072E+03  0.25500000000E-02 0.  1.
          2   -1    0    0  501    0  0.00000000000E+00 -0.00000000000E+00 -0.99689632201E+03  0.99689632202E+03  0.25500000000E-02 0. -1.
    8880023    1    1    2    0    0  0.60754952812E+03  0.27900843563E+03  0.35133333814E+03  0.10021015203E+04  0.65864270000E+03 0.  1.
    8880022    1    1    2    0    0 -0.60754952812E+03 -0.27900843563E+03 -0.49640231944E+03  0.84662214242E+03  0.15294330000E+03 0. -1.
<mgrwt>
<rscale>  0 0.86771470E+03</rscale>
<asrwt>0</asrwt>
<pdfrwt beam="1">  1        2 0.15336867E+00 0.93849472E+03</pdfrwt>
<pdfrwt beam="2">  1       -2 0.13105036E+00 0.93849472E+03</pdfrwt>
<totfact> 0.10740986E+01</totfact>
</mgrwt>
</event>
<event>
 4    2  0.2930016E-007  0.1197192E+04  0.7818608E-02  0.9159856E-01
          2   -1    0    0  501    0  0.00000000000E+00  0.00000000000E+00  0.18402689200E+04  0.18402689200E+04  0.25500000000E-02 0. -1.
         -2   -1    0    0    0  501 -0.00000000000E+00 -0.00000000000E+00 -0.14091412540E+04  0.14091412540E+04  0.25500000000E-02 0.  1.
    8880023    1    1    2    0    0 -0.96679683659E+03  0.25448570471E+03  0.14046578567E+04  0.18456253677E+04  0.65864270000E+03 0. -1.
    8880022    1    1    2    0    0  0.96679683659E+03 -0.25448570471E+03 -0.97353019077E+03  0.14037848063E+04  0.15294330000E+03 0.  0.
<mgrwt>
<rscale>  0 0.11477557E+04</rscale>
<asrwt>0</asrwt>
<pdfrwt beam="1">  1        2 0.28311830E+00 0.11971923E+04</pdfrwt>
<pdfrwt beam="2">  1       -2 0.21679096E+00 0.11971923E+04</pdfrwt>
<totfact> 0.82448935E-01</totfact>
</mgrwt>
</event>
<event>
 4    2  0.2930016E-007  0.1392909E+04  0.7818608E-02  0.8989212E-01
         -2   -1    0    0    0  501 -0.00000000000E+00  0.00000000000E+00  0.14872052728E+04  0.14872052728E+04  0.25500000000E-02 0.  1.
          2   -1    0    0  501    0  0.00000000000E+00 -0.00000000000E+00 -0.13067462111E+04  0.13067462111E+04  0.25500000000E-02 0. -1.
    8880023    1    1    2    0    0 -0.90104793450E+03 -0.83336512453E+03 -0.36839318923E+03  0.14408013601E+04  0.65864270000E+03 0. -1.
    8880022    1    1    2    0    0  0.90104793450E+03  0.83336512453E+03  0.54885225094E+03  0.13531501238E+04  0.15294330000E+03 0.  1.
<mgrwt>
<rscale>  0 0.13521364E+04</rscale>
<asrwt>0</asrwt>
<pdfrwt beam="1">  1        2 0.20103788E+00 0.13929088E+04</pdfrwt>
<pdfrwt beam="2">  1       -2 0.22880081E+00 0.13929088E+04</pdfrwt>
<totfact> 0.13570912E+00</totfact>
</mgrwt>
</event>
<event>
 4    2  0.2930016E-007  0.7518571E+03  0.7818608E-02  0.9826664E-01
         -2   -1    0    0    0  501 -0.00000000000E+00  0.00000000000E+00  0.52778765776E+03  0.52778765777E+03  0.25500000000E-02 0.  1.
          2   -1    0    0  501    0  0.00000000000E+00 -0.00000000000E+00 -0.72139999252E+03  0.72139999253E+03  0.25500000000E-02 0. -1.
    8880023    1    1    2    0    0 -0.36238778717E+03  0.12409239502E+02 -0.34539241910E+03  0.82739653549E+03  0.65864270000E+03 0.  0.
    8880022    1    1    2    0    0  0.36238778717E+03 -0.12409239502E+02  0.15178008434E+03  0.42179111480E+03  0.15294330000E+03 0.  0.
<mgrwt>
<rscale>  0 0.63951036E+03</rscale>
<asrwt>0</asrwt>
<pdfrwt beam="1">  1        2 0.11098461E+00 0.75185710E+03</pdfrwt>
<pdfrwt beam="2">  1       -2 0.81198101E-01 0.75185710E+03</pdfrwt>
<totfact> 0.53384556E+01</totfact>
</mgrwt>
</event>
<event>
 4    2  0.2930016E-007  0.6594989E+03  0.7818608E-02  0.1024676E+00
          2   -1    0    0  501    0  0.00000000000E+00  0.00000000000E+00  0.96642978051E+03  0.96642978052E+03  0.25500000000E-02 0. -1.
         -2   -1    0    0    0  501 -0.00000000000E+00 -0.00000000000E+00 -0.17481374736E+03  0.17481374738E+03  0.25500000000E-02 0.  1.
    8880023    1    1    2    0    0  0.26258177371E+02  0.20954107099E+02  0.58188819113E+03  0.87950704359E+03  0.65864270000E+03 0.  1.
    8880022    1    1    2    0    0 -0.26258177371E+02 -0.20954107099E+02  0.20972784203E+03  0.26173648431E+03  0.15294330000E+03 0.  0.
<mgrwt>
<rscale>  0 0.46036372E+03</rscale>
<asrwt>0</asrwt>
<pdfrwt beam="1">  1        2 0.14868151E+00 0.65949888E+03</pdfrwt>
<pdfrwt beam="2">  1       -2 0.26894422E-01 0.65949888E+03</pdfrwt>
<totfact> 0.33621047E+02</totfact>
</mgrwt>
</event>
<event>
 4    2  0.2930016E-007  0.7077673E+03  0.7818608E-02  0.9966387E-01
          2   -1    0    0  501    0  0.00000000000E+00  0.00000000000E+00  0.65428459779E+03  0.65428459780E+03  0.25500000000E-02 0. -1.
         -2   -1    0    0    0  501 -0.00000000000E+00 -0.00000000000E+00 -0.19601099887E+04  0.19601099887E+04  0.25500000000E-02 0.  1.
    8880023    1    1    2    0    0 -0.65218420024E+02 -0.25074069832E+03  0.44623140844E+03  0.83669409956E+03  0.65864270000E+03 0. -1.
    8880022    1    1    2    0    0  0.65218420024E+02  0.25074069832E+03 -0.17520567994E+04  0.17777004870E+04  0.15294330000E+03 0.  0.
<mgrwt>
<rscale>  0 0.57148987E+03</rscale>
<asrwt>0</asrwt>
<pdfrwt beam="1">  1        2 0.10065917E+00 0.70776730E+03</pdfrwt>
<pdfrwt beam="2">  1       -2 0.30155538E+00 0.70776730E+03</pdfrwt>
<totfact> 0.14572601E+00</totfact>
</mgrwt>
</event>
<event>
 4    2  0.2930016E-007  0.6990297E+03  0.7818608E-02  0.1000125E+00
         -2   -1    0    0    0  501 -0.00000000000E+00  0.00000000000E+00  0.44994139003E+03  0.44994139003E+03  0.25500000000E-02 0.  1.
          2   -1    0    0  501    0  0.00000000000E+00 -0.00000000000E+00 -0.88169090156E+03  0.88169090156E+03  0.25500000000E-02 0. -1.
    8880023    1    1    2    0    0 -0.16634423200E+03  0.16480852430E+03  0.12356070909E+03  0.70986597911E+03  0.65864270000E+03 0.  0.
    8880022    1    1    2    0    0  0.16634423200E+03 -0.16480852430E+03 -0.55531022062E+03  0.62176631248E+03  0.15294330000E+03 0.  0.
<mgrwt>
<rscale>  0 0.55595436E+03</rscale>
<asrwt>0</asrwt>
<pdfrwt beam="1">  1        2 0.13564475E+00 0.69902966E+03</pdfrwt>
<pdfrwt beam="2">  1       -2 0.69221753E-01 0.69902966E+03</pdfrwt>
<totfact> 0.58536999E+01</totfact>
</mgrwt>
</event>
<event>
 4    2  0.2930016E-007  0.8782140E+03  0.7818608E-02  0.9561951E-01
          2   -1    0    0  501    0  0.00000000000E+00  0.00000000000E+00  0.10814124097E+04  0.10814124097E+04  0.25500000000E-02 0. -1.
         -2   -1    0    0    0  501 -0.00000000000E+00 -0.00000000000E+00 -0.69826179671E+03  0.69826179671E+03  0.25500000000E-02 0.  1.
    8880023    1    1    2    0    0  0.38488262068E+02 -0.57962775195E+03  0.67898169191E+03  0.11100792861E+04  0.65864270000E+03 0.  0.
    8880022    1    1    2    0    0 -0.38488262068E+02  0.57962775195E+03 -0.29583107888E+03  0.66959492038E+03  0.15294330000E+03 0.  0.
<mgrwt>
<rscale>  0 0.79866529E+03</rscale>
<asrwt>0</asrwt>
<pdfrwt beam="1">  1        2 0.16637114E+00 0.87821403E+03</pdfrwt>
<pdfrwt beam="2">  1       -2 0.10742489E+00 0.87821403E+03</pdfrwt>
<totfact> 0.15632687E+01</totfact>
</mgrwt>
</event>
<event>
 4    2  0.2930016E-007  0.1065623E+04  0.7818608E-02  0.9300332E-01
          2   -1    0    0  501    0  0.00000000000E+00  0.00000000000E+00  0.24820894685E+04  0.24820894685E+04  0.25500000000E-02 0. -1.
         -2   -1    0    0    0  501 -0.00000000000E+00 -0.00000000000E+00 -0.54049655742E+03  0.54049655742E+03  0.25500000000E-02 0.  1.
    8880023    1    1    2    0    0 -0.80630430130E+03  0.22719064675E+03  0.18897088874E+04  0.21694589421E+04  0.65864270000E+03 0.  0.
    8880022    1    1    2    0    0  0.80630430130E+03 -0.22719064675E+03  0.51884023760E+02  0.85312708385E+03  0.15294330000E+03 0.  0.
<mgrwt>
<rscale>  0 0.10075230E+04</rscale>
<asrwt>0</asrwt>
<pdfrwt beam="1">  1        2 0.38185991E+00 0.10656230E+04</pdfrwt>
<pdfrwt beam="2">  1       -2 0.83153318E-01 0.10656230E+04</pdfrwt>
<totfact> 0.45210681E+00</totfact>
</mgrwt>
</event>
<event>
 4    2  0.2930016E-007  0.7105416E+03  0.7818608E-02  0.9955995E-01
         -2   -1    0    0    0  501 -0.00000000000E+00  0.00000000000E+00  0.32188151202E+03  0.32188151203E+03  0.25500000000E-02 0.  1.
          2   -1    0    0  501    0  0.00000000000E+00 -0.00000000000E+00 -0.27386801510E+04  0.27386801510E+04  0.25500000000E-02 0. -1.
    8880023    1    1    2    0    0 -0.26611697814E+03  0.15523180896E+02 -0.26050136978E+04  0.27001788436E+04  0.65864270000E+03 0. -1.
    8880022    1    1    2    0    0  0.26611697814E+03 -0.15523180896E+02  0.18821505881E+03  0.36038281948E+03  0.15294330000E+03 0.  0.
<mgrwt>
<rscale>  0 0.57622606E+03</rscale>
<asrwt>0</asrwt>
<pdfrwt beam="1">  1        2 0.42133539E+00 0.71054164E+03</pdfrwt>
<pdfrwt beam="2">  1       -2 0.49520234E-01 0.71054164E+03</pdfrwt>
<totfact> 0.10326215E+01</totfact>
</mgrwt>
</event>
<event>
 4    2  0.2930016E-007  0.1000881E+04  0.7818608E-02  0.9380407E-01
         -2   -1    0    0    0  501 -0.00000000000E+00  0.00000000000E+00  0.34603166274E+03  0.34603166275E+03  0.25500000000E-02 0.  1.
          2   -1    0    0  501    0  0.00000000000E+00 -0.00000000000E+00 -0.32362169940E+04  0.32362169940E+04  0.25500000000E-02 0. -1.
    8880023    1    1    2    0    0  0.74994471547E+03  0.74395434131E+02 -0.60124329079E+03  0.11675853107E+04  0.65864270000E+03 0.  0.
    8880022    1    1    2    0    0 -0.74994471547E+03 -0.74395434131E+02 -0.22889420405E+04  0.24146633460E+04  0.15294330000E+03 0.  0.
<mgrwt>
<rscale>  0 0.93705843E+03</rscale>
<asrwt>0</asrwt>
<pdfrwt beam="1">  1        2 0.49787952E+00 0.10008806E+04</pdfrwt>
<pdfrwt beam="2">  1       -2 0.53235643E-01 0.10008806E+04</pdfrwt>
<totfact> 0.42032413E+00</totfact>
</mgrwt>
</event>
<event>
 4    2  0.2930016E-007  0.7395562E+03  0.7818608E-02  0.9861242E-01
         -2   -1    0    0    0  501 -0.00000000000E+00  0.00000000000E+00  0.36538837179E+03  0.36538837179E+03  0.25500000000E-02 0.  1.
          2   -1    0    0  501    0  0.00000000000E+00 -0.00000000000E+00 -0.13019845002E+04  0.13019845002E+04  0.25500000000E-02 0. -1.
    8880023    1    1    2    0    0  0.33600486122E+03 -0.15291474094E+02 -0.10468944748E+04  0.12817688339E+04  0.65864270000E+03 0.  0.
    8880022    1    1    2    0    0 -0.33600486122E+03  0.15291474094E+02  0.11029834641E+03  0.38560403807E+03  0.15294330000E+03 0.  0.
<mgrwt>
<rscale>  0 0.62177004E+03</rscale>
<asrwt>0</asrwt>
<pdfrwt beam="1">  1        2 0.20030530E+00 0.73955615E+03</pdfrwt>
<pdfrwt beam="2">  1       -2 0.56213596E-01 0.73955615E+03</pdfrwt>
<totfact> 0.49958737E+01</totfact>
</mgrwt>
</event>
<event>
 4    2  0.2930016E-007  0.6862540E+03  0.7818608E-02  0.1005986E+00
          2   -1    0    0  501    0  0.00000000000E+00  0.00000000000E+00  0.73170872489E+03  0.73170872489E+03  0.25500000000E-02 0. -1.
         -2   -1    0    0    0  501 -0.00000000000E+00 -0.00000000000E+00 -0.32835475378E+03  0.32835475379E+03  0.25500000000E-02 0.  1.
    8880023    1    1    2    0    0  0.17796002709E+03  0.73923149749E+02  0.43425558817E+03  0.81210992201E+03  0.65864270000E+03 0. -1.
    8880022    1    1    2    0    0 -0.17796002709E+03 -0.73923149749E+02 -0.30901617066E+02  0.24795355667E+03  0.15294330000E+03 0.  0.
<mgrwt>
<rscale>  0 0.53101463E+03</rscale>
<asrwt>0</asrwt>
<pdfrwt beam="1">  1        2 0.11257057E+00 0.68625404E+03</pdfrwt>
<pdfrwt beam="2">  1       -2 0.50516116E-01 0.68625404E+03</pdfrwt>
<totfact> 0.14556470E+02</totfact>
</mgrwt>
</event>
<event>
 4    2  0.2930016E-007  0.6616313E+03  0.7818608E-02  0.1022544E+00
          2   -1    0    0  501    0  0.00000000000E+00  0.00000000000E+00  0.14595530771E+04  0.14595530771E+04  0.25500000000E-02 0. -1.
         -2   -1    0    0    0  501 -0.00000000000E+00 -0.00000000000E+00 -0.85866868353E+03  0.85866868353E+03  0.25500000000E-02 0.  1.
    8880023    1    1    2    0    0 -0.48851956236E+02 -0.39486657447E+02  0.13753951893E+04  0.15262594284E+04  0.65864270000E+03 0. -1.
    8880022    1    1    2    0    0  0.48851956236E+02  0.39486657447E+02 -0.77451079580E+03  0.79196233217E+03  0.15294330000E+03 0.  0.
<mgrwt>
<rscale>  0 0.46779609E+03</rscale>
<asrwt>0</asrwt>
<pdfrwt beam="1">  1        2 0.22454663E+00 0.66163125E+03</pdfrwt>
<pdfrwt beam="2">  1       -2 0.13210287E+00 0.66163125E+03</pdfrwt>
<totfact> 0.57974446E+00</totfact>
</mgrwt>
</event>
<event>
 4    2  0.2930016E-007  0.1633973E+04  0.7818608E-02  0.8820403E-01
          2   -1    0    0  501    0  0.00000000000E+00  0.00000000000E+00  0.41641651557E+04  0.41641651557E+04  0.25500000000E-02 0. -1.
         -2   -1    0    0    0  501 -0.00000000000E+00 -0.00000000000E+00 -0.65780360313E+03  0.65780360314E+03  0.25500000000E-02 0.  1.
    8880023    1    1    2    0    0 -0.78846702145E+03 -0.12705819527E+04  0.25874618073E+04  0.30602005740E+04  0.65864270000E+03 0. -1.
    8880022    1    1    2    0    0  0.78846702145E+03  0.12705819527E+04  0.91889974525E+03  0.17617681849E+04  0.15294330000E+03 0.  1.
<mgrwt>
<rscale>  0 0.16002362E+04</rscale>
<asrwt>0</asrwt>
<pdfrwt beam="1">  1        2 0.64064079E+00 0.16339734E+04</pdfrwt>
<pdfrwt beam="2">  1       -2 0.10120055E+00 0.16339734E+04</pdfrwt>
<totfact> 0.19171930E-01</totfact>
</mgrwt>
</event>
<event>
 4    2  0.2930016E-007  0.6616459E+03  0.7818608E-02  0.1022530E+00
          2   -1    0    0  501    0  0.00000000000E+00  0.00000000000E+00  0.30452266480E+04  0.30452266480E+04  0.25500000000E-02 0. -1.
         -2   -1    0    0    0  501 -0.00000000000E+00 -0.00000000000E+00 -0.22171885750E+03  0.22171885752E+03  0.25500000000E-02 0.  1.
    8880023    1    1    2    0    0  0.56283206584E+02 -0.28237072059E+02  0.29719452313E+04  0.30447058636E+04  0.65864270000E+03 0. -1.
    8880022    1    1    2    0    0 -0.56283206584E+02  0.28237072059E+02 -0.14843744083E+03  0.22223964191E+03  0.15294330000E+03 0.  0.
<mgrwt>
<rscale>  0 0.46784540E+03</rscale>
<asrwt>0</asrwt>
<pdfrwt beam="1">  1        2 0.46849639E+00 0.66164593E+03</pdfrwt>
<pdfrwt beam="2">  1       -2 0.34110594E-01 0.66164593E+03</pdfrwt>
<totfact> 0.14174171E+01</totfact>
</mgrwt>
</event>
<event>
 4    2  0.2930016E-007  0.1119080E+04  0.7818608E-02  0.9240105E-01
          2   -1    0    0  501    0  0.00000000000E+00  0.00000000000E+00  0.53281452055E+03  0.53281452055E+03  0.25500000000E-02 0. -1.
         -2   -1    0    0    0  501 -0.00000000000E+00 -0.00000000000E+00 -0.20847272529E+04  0.20847272529E+04  0.25500000000E-02 0.  1.
    8880023    1    1    2    0    0  0.89528088726E+03  0.13038805256E+03 -0.51184006827E+03  0.12305768457E+04  0.65864270000E+03 0.  0.
    8880022    1    1    2    0    0 -0.89528088726E+03 -0.13038805256E+03 -0.10400726641E+04  0.13869649278E+04  0.15294330000E+03 0.  0.
<mgrwt>
<rscale>  0 0.10648897E+04</rscale>
<asrwt>0</asrwt>
<pdfrwt beam="1">  1        2 0.81971466E-01 0.11190796E+04</pdfrwt>
<pdfrwt beam="2">  1       -2 0.32072727E+00 0.11190796E+04</pdfrwt>
<totfact> 0.13490123E+00</totfact>
</mgrwt>
</event>
<event>
 4    2  0.2930016E-007  0.7388025E+03  0.7818608E-02  0.9863449E-01
          2   -1    0    0  501    0  0.00000000000E+00  0.00000000000E+00  0.10778958155E+04  0.10778958155E+04  0.25500000000E-02 0. -1.
         -2   -1    0    0    0  501 -0.00000000000E+00 -0.00000000000E+00 -0.30169797837E+03  0.30169797838E+03  0.25500000000E-02 0.  1.
    8880023    1    1    2    0    0 -0.25045267982E+03  0.22201891978E+03  0.35305666109E+03  0.81882730644E+03  0.65864270000E+03 0.  0.
    8880022    1    1    2    0    0  0.25045267982E+03 -0.22201891978E+03  0.42314117602E+03  0.56076648744E+03  0.15294330000E+03 0.  0.
<mgrwt>
<rscale>  0 0.62065871E+03</rscale>
<asrwt>0</asrwt>
<pdfrwt beam="1">  1        2 0.16583012E+00 0.73880251E+03</pdfrwt>
<pdfrwt beam="2">  1       -2 0.46415075E-01 0.73880251E+03</pdfrwt>
<totfact> 0.10043333E+02</totfact>
</mgrwt>
</event>
<event>
 4    2  0.2930016E-007  0.1122645E+04  0.7818608E-02  0.9236253E-01
         -2   -1    0    0    0  501 -0.00000000000E+00  0.00000000000E+00  0.53363652205E+03  0.53363652205E+03  0.25500000000E-02 0.  1.
          2   -1    0    0  501    0  0.00000000000E+00 -0.00000000000E+00 -0.35884899422E+04  0.35884899422E+04  0.25500000000E-02 0. -1.
    8880023    1    1    2    0    0 -0.65238354557E+03 -0.63317953956E+03 -0.29947543760E+04  0.31982627470E+04  0.65864270000E+03 0.  0.
    8880022    1    1    2    0    0  0.65238354557E+03  0.63317953956E+03 -0.60099044074E+02  0.92386371720E+03  0.15294330000E+03 0.  0.
<mgrwt>
<rscale>  0 0.10686942E+04</rscale>
<asrwt>0</asrwt>
<pdfrwt beam="1">  1        2 0.55207536E+00 0.11226446E+04</pdfrwt>
<pdfrwt beam="2">  1       -2 0.82097929E-01 0.11226446E+04</pdfrwt>
<totfact> 0.93305898E-01</totfact>
</mgrwt>
</event>
<event>
 4    2  0.2930016E-007  0.7143685E+03  0.7818608E-02  0.9942123E-01
          2   -1    0    0  501    0  0.00000000000E+00  0.00000000000E+00  0.19220793646E+04  0.19220793646E+04  0.25500000000E-02 0. -1.
         -2   -1    0    0    0  501 -0.00000000000E+00 -0.00000000000E+00 -0.36183743262E+03  0.36183743263E+03  0.25500000000E-02 0.  1.
    8880023    1    1    2    0    0 -0.23691385626E+03  0.14277228232E+03  0.17671911446E+04  0.19061182670E+04  0.65864270000E+03 0. -1.
    8880022    1    1    2    0    0  0.23691385626E+03 -0.14277228232E+03 -0.20694921258E+03  0.37779853029E+03  0.15294330000E+03 0.  0.
<mgrwt>
<rscale>  0 0.58262542E+03</rscale>
<asrwt>0</asrwt>
<pdfrwt beam="1">  1        2 0.29570451E+00 0.71436847E+03</pdfrwt>
<pdfrwt beam="2">  1       -2 0.55667299E-01 0.71436847E+03</pdfrwt>
<totfact> 0.23207328E+01</totfact>
</mgrwt>
</event>
<event>
 4    2  0.2930016E-007  0.7975518E+03  0.7818608E-02  0.9716115E-01
         -2   -1    0    0    0  501 -0.00000000000E+00  0.00000000000E+00  0.23871565341E+04  0.23871565341E+04  0.25500000000E-02 0.  1.
          2   -1    0    0  501    0  0.00000000000E+00 -0.00000000000E+00 -0.34194654631E+03  0.34194654632E+03  0.25500000000E-02 0. -1.
    8880023    1    1    2    0    0  0.24914860023E+03  0.37443769434E+03  0.21043226994E+04  0.22503917084E+04  0.65864270000E+03 0.  1.
    8880022    1    1    2    0    0 -0.24914860023E+03 -0.37443769434E+03 -0.59112711647E+02  0.47871137195E+03  0.15294330000E+03 0.  0.
<mgrwt>
<rscale>  0 0.70065375E+03</rscale>
<asrwt>0</asrwt>
<pdfrwt beam="1">  1        2 0.52607159E-01 0.79755177E+03</pdfrwt>
<pdfrwt beam="2">  1       -2 0.36725486E+00 0.79755177E+03</pdfrwt>
<totfact> 0.12020556E+00</totfact>
</mgrwt>
</event>
<event>
 4    2  0.2930016E-007  0.1065533E+04  0.7818608E-02  0.9300438E-01
         -2   -1    0    0    0  501 -0.00000000000E+00  0.00000000000E+00  0.91333835706E+03  0.91333835706E+03  0.25500000000E-02 0.  1.
          2   -1    0    0  501    0  0.00000000000E+00 -0.00000000000E+00 -0.12186752967E+04  0.12186752967E+04  0.25500000000E-02 0. -1.
    8880023    1    1    2    0    0 -0.43082930114E+02  0.83647723186E+03 -0.60991020353E+03  0.12277422209E+04  0.65864270000E+03 0.  0.
    8880022    1    1    2    0    0  0.43082930114E+02 -0.83647723186E+03  0.30457326387E+03  0.90427143291E+03  0.15294330000E+03 0.  0.
<mgrwt>
<rscale>  0 0.10074258E+04</rscale>
<asrwt>0</asrwt>
<pdfrwt beam="1">  1        2 0.18748851E+00 0.10655330E+04</pdfrwt>
<pdfrwt beam="2">  1       -2 0.14051359E+00 0.10655330E+04</pdfrwt>
<totfact> 0.64714301E+00</totfact>
</mgrwt>
</event>
<event>
 4    2  0.2930016E-007  0.7218463E+03  0.7818608E-02  0.9916388E-01
          2   -1    0    0  501    0  0.00000000000E+00  0.00000000000E+00  0.22414700137E+04  0.22414700137E+04  0.25500000000E-02 0. -1.
         -2   -1    0    0    0  501 -0.00000000000E+00 -0.00000000000E+00 -0.52358891287E+03  0.52358891287E+03  0.25500000000E-02 0.  1.
    8880023    1    1    2    0    0  0.25478076522E+03 -0.14946103155E+03  0.21221368275E+04  0.22415456184E+04  0.65864270000E+03 0. -1.
    8880022    1    1    2    0    0 -0.25478076522E+03  0.14946103155E+03 -0.40425572669E+03  0.52351330819E+03  0.15294330000E+03 0.  0.
<mgrwt>
<rscale>  0 0.59473606E+03</rscale>
<asrwt>0</asrwt>
<pdfrwt beam="1">  1        2 0.34484153E+00 0.72184627E+03</pdfrwt>
<pdfrwt beam="2">  1       -2 0.80552142E-01 0.72184627E+03</pdfrwt>
<totfact> 0.69724991E+00</totfact>
</mgrwt>
</event>
<event>
 4    2  0.2930016E-007  0.8606178E+03  0.7818608E-02  0.9592465E-01
         -2   -1    0    0    0  501 -0.00000000000E+00  0.00000000000E+00  0.76640132584E+03  0.76640132585E+03  0.25500000000E-02 0.  1.
          2   -1    0    0  501    0  0.00000000000E+00 -0.00000000000E+00 -0.15669836854E+04  0.15669836855E+04  0.25500000000E-02 0. -1.
    8880023    1    1    2    0    0  0.40747023268E+03 -0.37526098697E+03 -0.13086828420E+04  0.15663057767E+04  0.65864270000E+03 0. -1.
    8880022    1    1    2    0    0 -0.40747023268E+03  0.37526098697E+03  0.50810048243E+03  0.76707923458E+03  0.15294330000E+03 0.  0.
<mgrwt>
<rscale>  0 0.77796881E+03</rscale>
<asrwt>0</asrwt>
<pdfrwt beam="1">  1        2 0.24107441E+00 0.86061780E+03</pdfrwt>
<pdfrwt beam="2">  1       -2 0.11790790E+00 0.86061780E+03</pdfrwt>
<totfact> 0.65257245E+00</totfact>
</mgrwt>
</event>
<event>
 4    2  0.2930016E-007  0.1582676E+04  0.7818608E-02  0.8853359E-01
          2   -1    0    0  501    0  0.00000000000E+00  0.00000000000E+00  0.24325581210E+04  0.24325581210E+04  0.25500000000E-02 0. -1.
         -2   -1    0    0    0  501 -0.00000000000E+00 -0.00000000000E+00 -0.10952949327E+04  0.10952949328E+04  0.25500000000E-02 0.  1.
    8880023    1    1    2    0    0 -0.13795913385E+04  0.40960939461E+03  0.38234716606E+02  0.15831374600E+04  0.65864270000E+03 0.  1.
    8880022    1    1    2    0    0  0.13795913385E+04 -0.40960939461E+03  0.12990284717E+04  0.19447155938E+04  0.15294330000E+03 0.  0.
<mgrwt>
<rscale>  0 0.15476670E+04</rscale>
<asrwt>0</asrwt>
<pdfrwt beam="1">  1        2 0.37423971E+00 0.15826757E+04</pdfrwt>
<pdfrwt beam="2">  1       -2 0.16850691E+00 0.15826757E+04</pdfrwt>
<totfact> 0.77731446E-01</totfact>
</mgrwt>
</event>
<event>
 4    2  0.2930016E-007  0.8004394E+03  0.7818608E-02  0.9709847E-01
          2   -1    0    0  501    0  0.00000000000E+00  0.00000000000E+00  0.27389769834E+04  0.27389769834E+04  0.25500000000E-02 0. -1.
         -2   -1    0    0    0  501 -0.00000000000E+00 -0.00000000000E+00 -0.24976954346E+03  0.24976954347E+03  0.25500000000E-02 0.  1.
    8880023    1    1    2    0    0  0.42968501245E+03 -0.14921073975E+03  0.23596044982E+04  0.24916734635E+04  0.65864270000E+03 0. -1.
    8880022    1    1    2    0    0 -0.42968501245E+03  0.14921073975E+03  0.12960294177E+03  0.49707306335E+03  0.15294330000E+03 0.  0.
<mgrwt>
<rscale>  0 0.70433535E+03</rscale>
<asrwt>0</asrwt>
<pdfrwt beam="1">  1        2 0.42138109E+00 0.80043942E+03</pdfrwt>
<pdfrwt beam="2">  1       -2 0.38426082E-01 0.80043942E+03</pdfrwt>
<totfact> 0.16816379E+01</totfact>
</mgrwt>
</event>
<event>
 4    2  0.2930016E-007  0.1007151E+04  0.7818608E-02  0.9372261E-01
          2   -1    0    0  501    0  0.00000000000E+00  0.00000000000E+00  0.17008360393E+04  0.17008360393E+04  0.25500000000E-02 0. -1.
         -2   -1    0    0    0  501 -0.00000000000E+00 -0.00000000000E+00 -0.52866548383E+03  0.52866548383E+03  0.25500000000E-02 0.  1.
    8880023    1    1    2    0    0 -0.26589546736E+03 -0.71403238711E+03  0.27799256720E+03  0.10448122908E+04  0.65864270000E+03 0.  0.
    8880022    1    1    2    0    0  0.26589546736E+03  0.71403238711E+03  0.89417798827E+03  0.11846892323E+04  0.15294330000E+03 0.  0.
<mgrwt>
<rscale>  0 0.94394047E+03</rscale>
<asrwt>0</asrwt>
<pdfrwt beam="1">  1        2 0.26166708E+00 0.10071509E+04</pdfrwt>
<pdfrwt beam="2">  1       -2 0.81333153E-01 0.10071509E+04</pdfrwt>
<totfact> 0.13018888E+01</totfact>
</mgrwt>
</event>
<event>
 4    2  0.3291078E-007  0.7409208E+03  0.7818608E-02  0.9857273E-01
          2   -1    0    0  501    0  0.00000000000E+00  0.00000000000E+00  0.32251747401E+04  0.32251747401E+04  0.25500000000E-02 0. -1.
         -2   -1    0    0    0  501 -0.00000000000E+00 -0.00000000000E+00 -0.65427072269E+03  0.65427072269E+03  0.25500000000E-02 0.  1.
    8880023    1    1    2    0    0  0.31769223146E+03 -0.11926869770E+03  0.31251684821E+04  0.32117972576E+04  0.65864270000E+03 0.  0.
    8880022    1    1    2    0    0 -0.31769223146E+03  0.11926869770E+03 -0.55426446464E+03  0.66764820524E+03  0.15294330000E+03 0.  0.
<mgrwt>
<rscale>  0 0.62377461E+03</rscale>
<asrwt>0</asrwt>
<pdfrwt beam="1">  1        2 0.49618072E+00 0.74092077E+03</pdfrwt>
<pdfrwt beam="2">  1       -2 0.10065704E+00 0.74092077E+03</pdfrwt>
<totfact> 0.10955169E+00</totfact>
</mgrwt>
</event>
<event>
 4    2  0.2930016E-007  0.7222948E+03  0.7818608E-02  0.9914896E-01
          2   -1    0    0  501    0  0.00000000000E+00  0.00000000000E+00  0.24039268248E+04  0.24039268248E+04  0.25500000000E-02 0. -1.
         -2   -1    0    0    0  501 -0.00000000000E+00 -0.00000000000E+00 -0.13123397176E+03  0.13123397179E+03  0.25500000000E-02 0.  1.
    8880023    1    1    2    0    0  0.26230802969E+03 -0.13818152182E+03  0.19118188689E+04  0.20437126092E+04  0.65864270000E+03 0. -1.
    8880022    1    1    2    0    0 -0.26230802969E+03  0.13818152182E+03  0.36087398417E+03  0.49144818738E+03  0.15294330000E+03 0.  0.
<mgrwt>
<rscale>  0 0.59544758E+03</rscale>
<asrwt>0</asrwt>
<pdfrwt beam="1">  1        2 0.36983490E+00 0.72229484E+03</pdfrwt>
<pdfrwt beam="2">  1       -2 0.20189842E-01 0.72229484E+03</pdfrwt>
<totfact> 0.86291290E+01</totfact>
</mgrwt>
</event>
<event>
 4    2  0.2930016E-007  0.7833223E+03  0.7818608E-02  0.9748090E-01
         -2   -1    0    0    0  501 -0.00000000000E+00  0.00000000000E+00  0.51485673961E+03  0.51485673961E+03  0.25500000000E-02 0.  1.
          2   -1    0    0  501    0  0.00000000000E+00 -0.00000000000E+00 -0.21618176689E+04  0.21618176689E+04  0.25500000000E-02 0. -1.
    8880023    1    1    2    0    0 -0.32052940557E+03 -0.27756881373E+03 -0.19713876040E+04  0.21213115843E+04  0.65864270000E+03 0.  0.
    8880022    1    1    2    0    0  0.32052940557E+03  0.27756881373E+03  0.32442667474E+03  0.55536282419E+03  0.15294330000E+03 0.  0.
<mgrwt>
<rscale>  0 0.68224315E+03</rscale>
<asrwt>0</asrwt>
<pdfrwt beam="1">  1        2 0.33258733E+00 0.78332225E+03</pdfrwt>
<pdfrwt beam="2">  1       -2 0.79208730E-01 0.78332225E+03</pdfrwt>
<totfact> 0.79323936E+00</totfact>
</mgrwt>
</event>
<event>
 4    2  0.2930016E-007  0.6808340E+03  0.7818608E-02  0.1008856E+00
          2   -1    0    0  501    0  0.00000000000E+00  0.00000000000E+00  0.65589228669E+03  0.65589228670E+03  0.25500000000E-02 0. -1.
         -2   -1    0    0    0  501 -0.00000000000E+00 -0.00000000000E+00 -0.85547915749E+03  0.85547915749E+03  0.25500000000E-02 0.  1.
    8880023    1    1    2    0    0  0.11205856374E+02  0.17204420447E+03  0.45401214996E+03  0.81832879583E+03  0.65864270000E+03 0. -1.
    8880022    1    1    2    0    0 -0.11205856374E+02 -0.17204420447E+03 -0.65359902075E+03  0.69304264836E+03  0.15294330000E+03 0.  0.
<mgrwt>
<rscale>  0 0.51931941E+03</rscale>
<asrwt>0</asrwt>
<pdfrwt beam="1">  1        2 0.10090651E+00 0.68083404E+03</pdfrwt>
<pdfrwt beam="2">  1       -2 0.13161218E+00 0.68083404E+03</pdfrwt>
<totfact> 0.19102686E+01</totfact>
</mgrwt>
</event>
<event>
 4    2  0.2930016E-007  0.1593788E+04  0.7818608E-02  0.8846099E-01
         -2   -1    0    0    0  501 -0.00000000000E+00  0.00000000000E+00  0.10658311237E+04  0.10658311237E+04  0.25500000000E-02 0.  1.
          2   -1    0    0  501    0  0.00000000000E+00 -0.00000000000E+00 -0.22130628499E+04  0.22130628500E+04  0.25500000000E-02 0. -1.
    8880023    1    1    2    0    0  0.14493900275E+04 -0.74950208926E+02 -0.77803207479E+03  0.17735538056E+04  0.65864270000E+03 0.  1.
    8880022    1    1    2    0    0 -0.14493900275E+04  0.74950208926E+02 -0.36919965148E+03  0.15053401680E+04  0.15294330000E+03 0. -1.
<mgrwt>
<rscale>  0 0.15590631E+04</rscale>
<asrwt>0</asrwt>
<pdfrwt beam="1">  1        2 0.34047121E+00 0.15937877E+04</pdfrwt>
<pdfrwt beam="2">  1       -2 0.16397402E+00 0.15937877E+04</pdfrwt>
<totfact> 0.11172209E+00</totfact>
</mgrwt>
</event>
<event>
 4    2  0.2930016E-007  0.1186495E+04  0.7818608E-02  0.9170363E-01
          2   -1    0    0  501    0  0.00000000000E+00  0.00000000000E+00  0.43392009301E+04  0.43392009301E+04  0.25500000000E-02 0. -1.
         -2   -1    0    0    0  501 -0.00000000000E+00 -0.00000000000E+00 -0.52269207954E+03  0.52269207954E+03  0.25500000000E-02 0.  1.
    8880023    1    1    2    0    0 -0.49341259585E+03  0.85469572799E+03  0.36643993534E+04  0.38517000927E+04  0.65864270000E+03 0.  0.
    8880022    1    1    2    0    0  0.49341259585E+03 -0.85469572799E+03  0.15210949717E+03  0.10101929169E+04  0.15294330000E+03 0.  0.
<mgrwt>
<rscale>  0 0.11364637E+04</rscale>
<asrwt>0</asrwt>
<pdfrwt beam="1">  1        2 0.66756935E+00 0.11864953E+04</pdfrwt>
<pdfrwt beam="2">  1       -2 0.80414169E-01 0.11864953E+04</pdfrwt>
<totfact> 0.24582514E-01</totfact>
</mgrwt>
</event>
<event>
 4    2  0.2930016E-007  0.7854632E+03  0.7818608E-02  0.9743157E-01
          2   -1    0    0  501    0  0.00000000000E+00  0.00000000000E+00  0.18803449853E+04  0.18803449853E+04  0.25500000000E-02 0. -1.
         -2   -1    0    0    0  501 -0.00000000000E+00 -0.00000000000E+00 -0.24564002095E+03  0.24564002096E+03  0.25500000000E-02 0.  1.
    8880023    1    1    2    0    0  0.97557154387E+02 -0.41668322155E+03  0.14213337645E+04  0.16239280101E+04  0.65864270000E+03 0.  0.
    8880022    1    1    2    0    0 -0.97557154387E+02  0.41668322155E+03  0.21337119985E+03  0.50205699620E+03  0.15294330000E+03 0.  0.
<mgrwt>
<rscale>  0 0.68504379E+03</rscale>
<asrwt>0</asrwt>
<pdfrwt beam="1">  1        2 0.28928384E+00 0.78546325E+03</pdfrwt>
<pdfrwt beam="2">  1       -2 0.37790773E-01 0.78546325E+03</pdfrwt>
<totfact> 0.52651788E+01</totfact>
</mgrwt>
</event>
<event>
 4    2  0.2930016E-007  0.1012311E+04  0.7818608E-02  0.9365626E-01
          2   -1    0    0  501    0  0.00000000000E+00  0.00000000000E+00  0.21857655192E+04  0.21857655192E+04  0.25500000000E-02 0. -1.
         -2   -1    0    0    0  501 -0.00000000000E+00 -0.00000000000E+00 -0.41460427401E+03  0.41460427402E+03  0.25500000000E-02 0.  1.
    8880023    1    1    2    0    0  0.46032434065E+03  0.61568215012E+03  0.55767294578E+03  0.11557561721E+04  0.65864270000E+03 0.  1.
    8880022    1    1    2    0    0 -0.46032434065E+03 -0.61568215012E+03  0.12134882994E+04  0.14446136211E+04  0.15294330000E+03 0.  0.
<mgrwt>
<rscale>  0 0.94959366E+03</rscale>
<asrwt>0</asrwt>
<pdfrwt beam="1">  1        2 0.33627163E+00 0.10123108E+04</pdfrwt>
<pdfrwt beam="2">  1       -2 0.63785271E-01 0.10123108E+04</pdfrwt>
<totfact> 0.12014010E+01</totfact>
</mgrwt>
</event>
<event>
 4    2  0.2930016E-007  0.9129252E+03  0.7818608E-02  0.9505593E-01
         -2   -1    0    0    0  501 -0.00000000000E+00  0.00000000000E+00  0.90422097350E+03  0.90422097350E+03  0.25500000000E-02 0.  1.
          2   -1    0    0  501    0  0.00000000000E+00 -0.00000000000E+00 -0.15944037506E+04  0.15944037506E+04  0.25500000000E-02 0. -1.
    8880023    1    1    2    0    0 -0.56333247556E+03  0.28684286105E+03 -0.13122916051E+04  0.15986061954E+04  0.65864270000E+03 0.  0.
    8880022    1    1    2    0    0  0.56333247556E+03 -0.28684286105E+03  0.62210882804E+03  0.90001852864E+03  0.15294330000E+03 0.  0.
<mgrwt>
<rscale>  0 0.83872725E+03</rscale>
<asrwt>0</asrwt>
<pdfrwt beam="1">  1        2 0.24529288E+00 0.91292525E+03</pdfrwt>
<pdfrwt beam="2">  1       -2 0.13911092E+00 0.91292525E+03</pdfrwt>
<totfact> 0.41195239E+00</totfact>
</mgrwt>
</event>
<event>
 4    2  0.2930016E-007  0.8141568E+03  0.7818608E-02  0.9680983E-01
          2   -1    0    0  501    0  0.00000000000E+00  0.00000000000E+00  0.34483050181E+04  0.34483050181E+04  0.25500000000E-02 0. -1.
         -2   -1    0    0    0  501 -0.00000000000E+00 -0.00000000000E+00 -0.21618792702E+03  0.21618792703E+03  0.25500000000E-02 0.  1.
    8880023    1    1    2    0    0  0.22027990468E+03  0.42487400483E+03  0.30046002598E+04  0.31129526312E+04  0.65864270000E+03 0.  0.
    8880022    1    1    2    0    0 -0.22027990468E+03 -0.42487400483E+03  0.22751683124E+03  0.55154031394E+03  0.15294330000E+03 0.  0.
<mgrwt>
<rscale>  0 0.72160458E+03</rscale>
<asrwt>0</asrwt>
<pdfrwt beam="1">  1        2 0.53050849E+00 0.81415684E+03</pdfrwt>
<pdfrwt beam="2">  1       -2 0.33259679E-01 0.81415684E+03</pdfrwt>
<totfact> 0.79515269E+00</totfact>
</mgrwt>
</event>
<event>
 4    2  0.3006318E-007  0.8395569E+03  0.7818608E-02  0.9631016E-01
         -2   -1    0    0    0  501 -0.00000000000E+00  0.00000000000E+00  0.11305181225E+04  0.11305181225E+04  0.25500000000E-02 0.  1.
          2   -1    0    0  501    0  0.00000000000E+00 -0.00000000000E+00 -0.18445204704E+04  0.18445204704E+04  0.25500000000E-02 0. -1.
    8880023    1    1    2    0    0 -0.13788773887E+03 -0.50202846301E+03 -0.16737540590E+04  0.18725139418E+04  0.65864270000E+03 0. -1.
    8880022    1    1    2    0    0  0.13788773887E+03  0.50202846301E+03  0.95975171104E+03  0.11025246510E+04  0.15294330000E+03 0.  0.
<mgrwt>
<rscale>  0 0.75276896E+03</rscale>
<asrwt>0</asrwt>
<pdfrwt beam="1">  1        2 0.28377238E+00 0.83955691E+03</pdfrwt>
<pdfrwt beam="2">  1       -2 0.17392586E+00 0.83955691E+03</pdfrwt>
<totfact> 0.16625510E+00</totfact>
</mgrwt>
</event>
<event>
 4    2  0.2930016E-007  0.6742679E+03  0.7818608E-02  0.1012772E+00
         -2   -1    0    0    0  501 -0.00000000000E+00  0.00000000000E+00  0.24087408112E+03  0.24087408114E+03  0.25500000000E-02 0.  1.
          2   -1    0    0  501    0  0.00000000000E+00 -0.00000000000E+00 -0.81246950800E+03  0.81246950800E+03  0.25500000000E-02 0. -1.
    8880023    1    1    2    0    0 -0.14426302434E+03  0.38957515958E+01 -0.42572779130E+03  0.79742169247E+03  0.65864270000E+03 0.  1.
    8880022    1    1    2    0    0  0.14426302434E+03 -0.38957515958E+01 -0.14586763557E+03  0.25592189667E+03  0.15294330000E+03 0. -1.
<mgrwt>
<rscale>  0 0.50387760E+03</rscale>
<asrwt>0</asrwt>
<pdfrwt beam="1">  1        2 0.12499531E+00 0.67426790E+03</pdfrwt>
<pdfrwt beam="2">  1       -2 0.37057551E-01 0.67426790E+03</pdfrwt>
<totfact> 0.23449130E+02</totfact>
</mgrwt>
</event>
<event>
 4    2  0.2930016E-007  0.8781489E+03  0.7818608E-02  0.9562061E-01
          2   -1    0    0  501    0  0.00000000000E+00  0.00000000000E+00  0.93038122433E+03  0.93038122433E+03  0.25500000000E-02 0. -1.
         -2   -1    0    0    0  501 -0.00000000000E+00 -0.00000000000E+00 -0.59664157124E+03  0.59664157124E+03  0.25500000000E-02 0.  1.
    8880023    1    1    2    0    0 -0.13232908958E+03  0.56553002971E+03  0.10529484880E+03  0.88443903911E+03  0.65864270000E+03 0.  1.
    8880022    1    1    2    0    0  0.13232908958E+03 -0.56553002971E+03  0.22844480429E+03  0.64258375647E+03  0.15294330000E+03 0.  0.
<mgrwt>
<rscale>  0 0.79858916E+03</rscale>
<asrwt>0</asrwt>
<pdfrwt beam="1">  1        2 0.14313557E+00 0.87814885E+03</pdfrwt>
<pdfrwt beam="2">  1       -2 0.91791011E-01 0.87814885E+03</pdfrwt>
<totfact> 0.28361618E+01</totfact>
</mgrwt>
</event>
<event>
 4    2  0.2930016E-007  0.8113472E+03  0.7818608E-02  0.9686778E-01
          2   -1    0    0  501    0  0.00000000000E+00  0.00000000000E+00  0.26366198650E+04  0.26366198650E+04  0.25500000000E-02 0. -1.
         -2   -1    0    0    0  501 -0.00000000000E+00 -0.00000000000E+00 -0.18849300876E+03  0.18849300878E+03  0.25500000000E-02 0.  1.
    8880023    1    1    2    0    0 -0.38937072782E+03 -0.26993420643E+03  0.19879879095E+04  0.21471795859E+04  0.65864270000E+03 0.  0.
    8880022    1    1    2    0    0  0.38937072782E+03  0.26993420643E+03  0.46013894672E+03  0.67793328786E+03  0.15294330000E+03 0.  0.
<mgrwt>
<rscale>  0 0.71809533E+03</rscale>
<asrwt>0</asrwt>
<pdfrwt beam="1">  1        2 0.40563380E+00 0.81134718E+03</pdfrwt>
<pdfrwt beam="2">  1       -2 0.28998926E-01 0.81134718E+03</pdfrwt>
<totfact> 0.32805061E+01</totfact>
</mgrwt>
</event>
<event>
 4    2  0.2930016E-007  0.1263046E+04  0.7818608E-02  0.9098148E-01
         -2   -1    0    0    0  501 -0.00000000000E+00  0.00000000000E+00  0.91069578602E+03  0.91069578602E+03  0.25500000000E-02 0.  1.
          2   -1    0    0  501    0  0.00000000000E+00 -0.00000000000E+00 -0.34586963491E+04  0.34586963491E+04  0.25500000000E-02 0. -1.
    8880023    1    1    2    0    0  0.94901231021E+03  0.51073488090E+03 -0.29500009290E+04  0.32090170101E+04  0.65864270000E+03 0.  0.
    8880022    1    1    2    0    0 -0.94901231021E+03 -0.51073488090E+03  0.40200036597E+03  0.11603751250E+04  0.15294330000E+03 0.  0.
<mgrwt>
<rscale>  0 0.12169507E+04</rscale>
<asrwt>0</asrwt>
<pdfrwt beam="1">  1        2 0.53210712E+00 0.12630458E+04</pdfrwt>
<pdfrwt beam="2">  1       -2 0.14010705E+00 0.12630458E+04</pdfrwt>
<totfact> 0.30673322E-01</totfact>
</mgrwt>
</event>
<event>
 4    2  0.2930016E-007  0.6673200E+03  0.7818608E-02  0.1017662E+00
         -2   -1    0    0    0  501 -0.00000000000E+00  0.00000000000E+00  0.63375144732E+03  0.63375144732E+03  0.25500000000E-02 0.  1.
          2   -1    0    0  501    0  0.00000000000E+00 -0.00000000000E+00 -0.31277536918E+03  0.31277536920E+03  0.25500000000E-02 0. -1.
    8880023    1    1    2    0    0 -0.58960980626E+02  0.89606820751E+02  0.13093499546E+03  0.68004408597E+03  0.65864270000E+03 0. -1.
    8880022    1    1    2    0    0  0.58960980626E+02 -0.89606820751E+02  0.19004108268E+03  0.26648273055E+03  0.15294330000E+03 0.  1.
<mgrwt>
<rscale>  0 0.48540002E+03</rscale>
<asrwt>0</asrwt>
<pdfrwt beam="1">  1        2 0.48119287E-01 0.66732000E+03</pdfrwt>
<pdfrwt beam="2">  1       -2 0.97500223E-01 0.66732000E+03</pdfrwt>
<totfact> 0.93180526E+01</totfact>
</mgrwt>
</event>
<event>
 4    2  0.2930016E-007  0.6845097E+03  0.7818608E-02  0.1006880E+00
         -2   -1    0    0    0  501 -0.00000000000E+00  0.00000000000E+00  0.14567659645E+03  0.14567659647E+03  0.25500000000E-02 0.  1.
          2   -1    0    0  501    0  0.00000000000E+00 -0.00000000000E+00 -0.34760606921E+04  0.34760606921E+04  0.25500000000E-02 0. -1.
    8880023    1    1    2    0    0  0.18329272418E+03  0.33868403973E+02 -0.33096956371E+04  0.33797394438E+04  0.65864270000E+03 0. -1.
    8880022    1    1    2    0    0 -0.18329272418E+03 -0.33868403973E+02 -0.20688458525E+02  0.24199784474E+03  0.15294330000E+03 0.  0.
<mgrwt>
<rscale>  0 0.52733835E+03</rscale>
<asrwt>0</asrwt>
<pdfrwt beam="1">  1        2 0.53477851E+00 0.68450968E+03</pdfrwt>
<pdfrwt beam="2">  1       -2 0.22411787E-01 0.68450968E+03</pdfrwt>
<totfact> 0.16069295E+01</totfact>
</mgrwt>
</event>
<event>
 4    2  0.3145250E-007  0.1007846E+04  0.7818608E-02  0.9371364E-01
          2   -1    0    0  501    0  0.00000000000E+00  0.00000000000E+00  0.27745030006E+04  0.27745030006E+04  0.25500000000E-02 0. -1.
         -2   -1    0    0    0  501 -0.00000000000E+00 -0.00000000000E+00 -0.10947594561E+04  0.10947594561E+04  0.25500000000E-02 0.  1.
    8880023    1    1    2    0    0  0.36186525735E+03 -0.67156286130E+03  0.25260397706E+04  0.27196746626E+04  0.65864270000E+03 0.  0.
    8880022    1    1    2    0    0 -0.36186525735E+03  0.67156286130E+03 -0.84629622611E+03  0.11495877942E+04  0.15294330000E+03 0.  0.
<mgrwt>
<rscale>  0 0.94470247E+03</rscale>
<asrwt>0</asrwt>
<pdfrwt beam="1">  1        2 0.42684661E+00 0.10078459E+04</pdfrwt>
<pdfrwt beam="2">  1       -2 0.16842453E+00 0.10078459E+04</pdfrwt>
<totfact> 0.52926394E-01</totfact>
</mgrwt>
</event>
<event>
 4    2  0.2930016E-007  0.1304812E+04  0.7818608E-02  0.9061416E-01
         -2   -1    0    0    0  501 -0.00000000000E+00  0.00000000000E+00  0.51068362868E+03  0.51068362868E+03  0.25500000000E-02 0.  1.
          2   -1    0    0  501    0  0.00000000000E+00 -0.00000000000E+00 -0.39063679038E+04  0.39063679038E+04  0.25500000000E-02 0. -1.
    8880023    1    1    2    0    0 -0.62418796660E+03  0.93761012627E+03 -0.28940057009E+04  0.31745554917E+04  0.65864270000E+03 0. -1.
    8880022    1    1    2    0    0  0.62418796660E+03 -0.93761012627E+03 -0.50167857416E+03  0.12424960408E+04  0.15294330000E+03 0.  1.
<mgrwt>
<rscale>  0 0.12605890E+04</rscale>
<asrwt>0</asrwt>
<pdfrwt beam="1">  1        2 0.60097966E+00 0.13048117E+04</pdfrwt>
<pdfrwt beam="2">  1       -2 0.78566715E-01 0.13048117E+04</pdfrwt>
<totfact> 0.58407773E-01</totfact>
</mgrwt>
</event>
<event>
 4    2  0.2930016E-007  0.6719324E+03  0.7818608E-02  0.1014314E+00
         -2   -1    0    0    0  501 -0.00000000000E+00  0.00000000000E+00  0.17815865248E+03  0.17815865249E+03  0.25500000000E-02 0.  1.
          2   -1    0    0  501    0  0.00000000000E+00 -0.00000000000E+00 -0.24171678290E+04  0.24171678290E+04  0.25500000000E-02 0. -1.
    8880023    1    1    2    0    0  0.11193261291E+03 -0.71791490980E+02 -0.22898316952E+04  0.23863826866E+04  0.65864270000E+03 0. -1.
    8880022    1    1    2    0    0 -0.11193261291E+03  0.71791490980E+02  0.50822518717E+02  0.20894379492E+03  0.15294330000E+03 0.  0.
<mgrwt>
<rscale>  0 0.49795583E+03</rscale>
<asrwt>0</asrwt>
<pdfrwt beam="1">  1        2 0.37187195E+00 0.67193239E+03</pdfrwt>
<pdfrwt beam="2">  1       -2 0.27409025E-01 0.67193239E+03</pdfrwt>
<totfact> 0.49459680E+01</totfact>
</mgrwt>
</event>
<event>
 4    2  0.2930016E-007  0.7834241E+03  0.7818608E-02  0.9747854E-01
         -2   -1    0    0    0  501 -0.00000000000E+00  0.00000000000E+00  0.51640988262E+03  0.51640988263E+03  0.25500000000E-02 0.  1.
          2   -1    0    0  501    0  0.00000000000E+00 -0.00000000000E+00 -0.15214325447E+04  0.15214325447E+04  0.25500000000E-02 0. -1.
    8880023    1    1    2    0    0  0.41742496940E+03  0.75495227774E+02 -0.12865066682E+04  0.15062711403E+04  0.65864270000E+03 0.  0.
    8880022    1    1    2    0    0 -0.41742496940E+03 -0.75495227774E+02  0.28148400611E+03  0.53157128704E+03  0.15294330000E+03 0.  0.
<mgrwt>
<rscale>  0 0.68237666E+03</rscale>
<asrwt>0</asrwt>
<pdfrwt beam="1">  1        2 0.23406654E+00 0.78342411E+03</pdfrwt>
<pdfrwt beam="2">  1       -2 0.79447675E-01 0.78342411E+03</pdfrwt>
<totfact> 0.17684850E+01</totfact>
</mgrwt>
</event>
<event>
 4    2  0.3853843E-007  0.9024531E+03  0.7818608E-02  0.9522105E-01
          2   -1    0    0  501    0  0.00000000000E+00  0.00000000000E+00  0.25002460677E+04  0.25002460677E+04  0.25500000000E-02 0. -1.
         -2   -1    0    0    0  501 -0.00000000000E+00 -0.00000000000E+00 -0.12439017385E+04  0.12439017385E+04  0.25500000000E-02 0.  1.
    8880023    1    1    2    0    0 -0.11192622955E+03 -0.60669919336E+03  0.23287674113E+04  0.24975146154E+04  0.65864270000E+03 0. -1.
    8880022    1    1    2    0    0  0.11192622955E+03  0.60669919336E+03 -0.10724230821E+04  0.12466331907E+04  0.15294330000E+03 0.  0.
<mgrwt>
<rscale>  0 0.82673545E+03</rscale>
<asrwt>0</asrwt>
<pdfrwt beam="1">  1        2 0.38465324E+00 0.90245310E+03</pdfrwt>
<pdfrwt beam="2">  1       -2 0.19136950E+00 0.90245310E+03</pdfrwt>
<totfact> 0.54076724E-01</totfact>
</mgrwt>
</event>
<event>
 4    2  0.2930016E-007  0.7265163E+03  0.7818608E-02  0.9901124E-01
         -2   -1    0    0    0  501 -0.00000000000E+00  0.00000000000E+00  0.62191557075E+03  0.62191557075E+03  0.25500000000E-02 0.  1.
          2   -1    0    0  501    0  0.00000000000E+00 -0.00000000000E+00 -0.57672695187E+03  0.57672695187E+03  0.25500000000E-02 0. -1.
    8880023    1    1    2    0    0  0.19195889562E+03  0.23909715360E+03 -0.22687897091E+03  0.76111756002E+03  0.65864270000E+03 0. -1.
    8880022    1    1    2    0    0 -0.19195889562E+03 -0.23909715360E+03  0.27206758979E+03  0.43752496260E+03  0.15294330000E+03 0. -1.
<mgrwt>
<rscale>  0 0.60206849E+03</rscale>
<asrwt>0</asrwt>
<pdfrwt beam="1">  1        2 0.88727223E-01 0.72651626E+03</pdfrwt>
<pdfrwt beam="2">  1       -2 0.95679319E-01 0.72651626E+03</pdfrwt>
<totfact> 0.48343311E+01</totfact>
</mgrwt>
</event>
<event>
 4    2  0.2930016E-007  0.9479347E+03  0.7818608E-02  0.9453092E-01
         -2   -1    0    0    0  501 -0.00000000000E+00  0.00000000000E+00  0.62379787723E+03  0.62379787724E+03  0.25500000000E-02 0.  1.
          2   -1    0    0  501    0  0.00000000000E+00 -0.00000000000E+00 -0.16779705139E+04  0.16779705139E+04  0.25500000000E-02 0. -1.
    8880023    1    1    2    0    0 -0.65740589729E+03  0.18051990771E+03 -0.12568808653E+04  0.15742711541E+04  0.65864270000E+03 0.  0.
    8880022    1    1    2    0    0  0.65740589729E+03 -0.18051990771E+03  0.20270822865E+03  0.72749723700E+03  0.15294330000E+03 0.  0.
<mgrwt>
<rscale>  0 0.87832301E+03</rscale>
<asrwt>0</asrwt>
<pdfrwt beam="1">  1        2 0.25814931E+00 0.94793468E+03</pdfrwt>
<pdfrwt beam="2">  1       -2 0.95968905E-01 0.94793468E+03</pdfrwt>
<totfact> 0.92077413E+00</totfact>
</mgrwt>
</event>
<event>
 4    2  0.3926279E-007  0.8175875E+03  0.7818608E-02  0.9673984E-01
         -2   -1    0    0    0  501 -0.00000000000E+00  0.00000000000E+00  0.16246657851E+04  0.16246657851E+04  0.25500000000E-02 0.  1.
          2   -1    0    0  501    0  0.00000000000E+00 -0.00000000000E+00 -0.16162029923E+04  0.16162029923E+04  0.25500000000E-02 0. -1.
    8880023    1    1    2    0    0 -0.30460068103E+03  0.37663985112E+03 -0.14675318390E+04  0.16799104313E+04  0.65864270000E+03 0.  0.
    8880022    1    1    2    0    0  0.30460068103E+03 -0.37663985112E+03  0.14759946318E+04  0.15609583462E+04  0.15294330000E+03 0.  0.
<mgrwt>
<rscale>  0 0.72587132E+03</rscale>
<asrwt>0</asrwt>
<pdfrwt beam="1">  1        2 0.24864661E+00 0.81758752E+03</pdfrwt>
<pdfrwt beam="2">  1       -2 0.24994858E+00 0.81758752E+03</pdfrwt>
<totfact> 0.72394201E-01</totfact>
</mgrwt>
</event>
<event>
 4    2  0.2930016E-007  0.8502740E+03  0.7818608E-02  0.9611104E-01
          2   -1    0    0  501    0  0.00000000000E+00  0.00000000000E+00  0.17898452824E+04  0.17898452824E+04  0.25500000000E-02 0. -1.
         -2   -1    0    0    0  501 -0.00000000000E+00 -0.00000000000E+00 -0.63107528567E+03  0.63107528567E+03  0.25500000000E-02 0.  1.
    8880023    1    1    2    0    0 -0.78850988261E+02  0.53191927615E+03  0.15296093222E+04  0.17500487077E+04  0.65864270000E+03 0. -1.
    8880022    1    1    2    0    0  0.78850988261E+02 -0.53191927615E+03 -0.37083932544E+03  0.67087186035E+03  0.15294330000E+03 0.  0.
<mgrwt>
<rscale>  0 0.76565587E+03</rscale>
<asrwt>0</asrwt>
<pdfrwt beam="1">  1        2 0.27536081E+00 0.85027396E+03</pdfrwt>
<pdfrwt beam="2">  1       -2 0.97088506E-01 0.85027396E+03</pdfrwt>
<totfact> 0.78688152E+00</totfact>
</mgrwt>
</event>
<event>
 4    2  0.2930016E-007  0.7713065E+03  0.7818608E-02  0.9776669E-01
          2   -1    0    0  501    0  0.00000000000E+00  0.00000000000E+00  0.15089851634E+04  0.15089851634E+04  0.25500000000E-02 0. -1.
         -2   -1    0    0    0  501 -0.00000000000E+00 -0.00000000000E+00 -0.30492978032E+03  0.30492978033E+03  0.25500000000E-02 0.  1.
    8880023    1    1    2    0    0 -0.39054214401E+03 -0.92630144435E+02  0.11446937462E+04  0.13803034046E+04  0.65864270000E+03 0.  1.
    8880022    1    1    2    0    0  0.39054214401E+03  0.92630144435E+02  0.59361636858E+02  0.43361153911E+03  0.15294330000E+03 0.  0.
<mgrwt>
<rscale>  0 0.66629778E+03</rscale>
<asrwt>0</asrwt>
<pdfrwt beam="1">  1        2 0.23215157E+00 0.77130650E+03</pdfrwt>
<pdfrwt beam="2">  1       -2 0.46912274E-01 0.77130650E+03</pdfrwt>
<totfact> 0.55079578E+01</totfact>
</mgrwt>
</event>
<event>
 4    2  0.2930016E-007  0.6879181E+03  0.7818608E-02  0.1005158E+00
         -2   -1    0    0    0  501 -0.00000000000E+00  0.00000000000E+00  0.34823295250E+03  0.34823295251E+03  0.25500000000E-02 0.  1.
          2   -1    0    0  501    0  0.00000000000E+00 -0.00000000000E+00 -0.42479867438E+04  0.42479867438E+04  0.25500000000E-02 0. -1.
    8880023    1    1    2    0    0 -0.19849268357E+03  0.46617643601E+01 -0.41707473147E+04  0.42270988216E+04  0.65864270000E+03 0. -1.
    8880022    1    1    2    0    0  0.19849268357E+03 -0.46617643601E+01  0.27099352340E+03  0.36912087481E+03  0.15294330000E+03 0.  0.
<mgrwt>
<rscale>  0 0.53445175E+03</rscale>
<asrwt>0</asrwt>
<pdfrwt beam="1">  1        2 0.65353639E+00 0.68791808E+03</pdfrwt>
<pdfrwt beam="2">  1       -2 0.53574303E-01 0.68791808E+03</pdfrwt>
<totfact> 0.79398574E-01</totfact>
</mgrwt>
</event>
<event>
 4    2  0.2930016E-007  0.9161579E+03  0.7818608E-02  0.9500575E-01
          2   -1    0    0  501    0  0.00000000000E+00  0.00000000000E+00  0.38313899214E+04  0.38313899214E+04  0.25500000000E-02 0. -1.
         -2   -1    0    0    0  501 -0.00000000000E+00 -0.00000000000E+00 -0.37948466972E+03  0.37948466973E+03  0.25500000000E-02 0.  1.
    8880023    1    1    2    0    0 -0.62196773548E+03 -0.13671590520E+03  0.34356958327E+04  0.35557490299E+04  0.65864270000E+03 0. -1.
    8880022    1    1    2    0    0  0.62196773548E+03  0.13671590520E+03  0.16209419013E+02  0.65512556124E+03  0.15294330000E+03 0.  0.
<mgrwt>
<rscale>  0 0.84241413E+03</rscale>
<asrwt>0</asrwt>
<pdfrwt beam="1">  1        2 0.58944462E+00 0.91615791E+03</pdfrwt>
<pdfrwt beam="2">  1       -2 0.58382255E-01 0.91615791E+03</pdfrwt>
<totfact> 0.13572836E+00</totfact>
</mgrwt>
</event>
<event>
 4    2  0.2930016E-007  0.1084755E+04  0.7818608E-02  0.9278222E-01
          2   -1    0    0  501    0  0.00000000000E+00  0.00000000000E+00  0.35873167020E+04  0.35873167020E+04  0.25500000000E-02 0. -1.
         -2   -1    0    0    0  501 -0.00000000000E+00 -0.00000000000E+00 -0.60851806170E+03  0.60851806170E+03  0.25500000000E-02 0.  1.
    8880023    1    1    2    0    0  0.71241947003E+03  0.48512060130E+03  0.31253791390E+04  0.33082757545E+04  0.65864270000E+03 0. -1.
    8880022    1    1    2    0    0 -0.71241947003E+03 -0.48512060130E+03 -0.14658049875E+03  0.88755900915E+03  0.15294330000E+03 0.  0.
<mgrwt>
<rscale>  0 0.10281273E+04</rscale>
<asrwt>0</asrwt>
<pdfrwt beam="1">  1        2 0.55189488E+00 0.10847551E+04</pdfrwt>
<pdfrwt beam="2">  1       -2 0.93618163E-01 0.10847551E+04</pdfrwt>
<totfact> 0.69473413E-01</totfact>
</mgrwt>
</event>
<event>
 4    2  0.2930016E-007  0.6993035E+03  0.7818608E-02  0.1000010E+00
          2   -1    0    0  501    0  0.00000000000E+00  0.00000000000E+00  0.32028316153E+04  0.32028316153E+04  0.25500000000E-02 0. -1.
         -2   -1    0    0    0  501 -0.00000000000E+00 -0.00000000000E+00 -0.24088702028E+03  0.24088702029E+03  0.25500000000E-02 0.  1.
    8880023    1    1    2    0    0 -0.15080090636E+03  0.18020599403E+03  0.30659427682E+04  0.31446828740E+04  0.65864270000E+03 0. -1.
    8880022    1    1    2    0    0  0.15080090636E+03 -0.18020599403E+03 -0.10399817324E+03  0.29903576157E+03  0.15294330000E+03 0.  0.
<mgrwt>
<rscale>  0 0.55645717E+03</rscale>
<asrwt>0</asrwt>
<pdfrwt beam="1">  1        2 0.49274327E+00 0.69930345E+03</pdfrwt>
<pdfrwt beam="2">  1       -2 0.37059545E-01 0.69930345E+03</pdfrwt>
<totfact> 0.95729984E+00</totfact>
</mgrwt>
</event>
<event>
 4    2  0.2930016E-007  0.6602333E+03  0.7818608E-02  0.1023919E+00
         -2   -1    0    0    0  501 -0.00000000000E+00  0.00000000000E+00  0.12471946387E+03  0.12471946390E+03  0.25500000000E-02 0.  1.
          2   -1    0    0  501    0  0.00000000000E+00 -0.00000000000E+00 -0.22176870429E+04  0.22176870429E+04  0.25500000000E-02 0. -1.
    8880023    1    1    2    0    0  0.42016240435E+02  0.18232311018E+02 -0.20799487849E+04  0.21822224763E+04  0.65864270000E+03 0. -1.
    8880022    1    1    2    0    0 -0.42016240435E+02 -0.18232311018E+02 -0.13018794073E+02  0.16018403054E+03  0.15294330000E+03 0.  0.
<mgrwt>
<rscale>  0 0.46298624E+03</rscale>
<asrwt>0</asrwt>
<pdfrwt beam="1">  1        2 0.34118259E+00 0.66023328E+03</pdfrwt>
<pdfrwt beam="2">  1       -2 0.19187611E-01 0.66023328E+03</pdfrwt>
<totfact> 0.12055045E+02</totfact>
</mgrwt>
</event>
<event>
 4    2  0.2930016E-007  0.6749690E+03  0.7818608E-02  0.1012326E+00
          2   -1    0    0  501    0  0.00000000000E+00  0.00000000000E+00  0.17066718690E+04  0.17066718690E+04  0.25500000000E-02 0. -1.
         -2   -1    0    0    0  501 -0.00000000000E+00 -0.00000000000E+00 -0.32158062269E+03  0.32158062270E+03  0.25500000000E-02 0.  1.
    8880023    1    1    2    0    0 -0.42184307789E+02  0.14139796700E+03  0.15935250939E+04  0.17305794787E+04  0.65864270000E+03 0. -1.
    8880022    1    1    2    0    0  0.42184307789E+02 -0.14139796700E+03 -0.20843384754E+03  0.29767301307E+03  0.15294330000E+03 0.  0.
<mgrwt>
<rscale>  0 0.50560641E+03</rscale>
<asrwt>0</asrwt>
<pdfrwt beam="1">  1        2 0.26256490E+00 0.67496897E+03</pdfrwt>
<pdfrwt beam="2">  1       -2 0.49473942E-01 0.67496897E+03</pdfrwt>
<totfact> 0.38933998E+01</totfact>
</mgrwt>
</event>
<event>
 4    2  0.2930016E-007  0.7178047E+03  0.7818608E-02  0.9930085E-01
          2   -1    0    0  501    0  0.00000000000E+00  0.00000000000E+00  0.28856886587E+04  0.28856886587E+04  0.25500000000E-02 0. -1.
         -2   -1    0    0    0  501 -0.00000000000E+00 -0.00000000000E+00 -0.31115576137E+03  0.31115576138E+03  0.25500000000E-02 0.  1.
    8880023    1    1    2    0    0 -0.16639410692E+03 -0.23183266218E+03  0.27405500425E+04  0.28329945506E+04  0.65864270000E+03 0. -1.
    8880022    1    1    2    0    0  0.16639410692E+03  0.23183266218E+03 -0.16601714510E+03  0.36384986953E+03  0.15294330000E+03 0.  0.
<mgrwt>
<rscale>  0 0.58825124E+03</rscale>
<asrwt>0</asrwt>
<pdfrwt beam="1">  1        2 0.44395209E+00 0.71780470E+03</pdfrwt>
<pdfrwt beam="2">  1       -2 0.47870118E-01 0.71780470E+03</pdfrwt>
<totfact> 0.90401798E+00</totfact>
</mgrwt>
</event>
<event>
 4    2  0.2930016E-007  0.1234476E+04  0.7818608E-02  0.9124316E-01
         -2   -1    0    0    0  501 -0.00000000000E+00  0.00000000000E+00  0.27165263017E+04  0.27165263017E+04  0.25500000000E-02 0.  1.
          2   -1    0    0  501    0  0.00000000000E+00 -0.00000000000E+00 -0.57545124396E+03  0.57545124397E+03  0.25500000000E-02 0. -1.
    8880023    1    1    2    0    0  0.92476293226E+03 -0.48470140346E+03  0.48093098430E+03  0.13248497082E+04  0.65864270000E+03 0.  0.
    8880022    1    1    2    0    0 -0.92476293226E+03  0.48470140346E+03  0.16601440735E+04  0.19671278375E+04  0.15294330000E+03 0.  0.
<mgrwt>
<rscale>  0 0.11869954E+04</rscale>
<asrwt>0</asrwt>
<pdfrwt beam="1">  1        2 0.88530960E-01 0.12344765E+04</pdfrwt>
<pdfrwt beam="2">  1       -2 0.41792713E+00 0.12344765E+04</pdfrwt>
<totfact> 0.29173083E-01</totfact>
</mgrwt>
</event>
<event>
 4    2  0.2930016E-007  0.7792828E+03  0.7818608E-02  0.9757525E-01
         -2   -1    0    0    0  501 -0.00000000000E+00  0.00000000000E+00  0.58193346888E+03  0.58193346889E+03  0.25500000000E-02 0.  1.
          2   -1    0    0  501    0  0.00000000000E+00 -0.00000000000E+00 -0.90388861086E+03  0.90388861086E+03  0.25500000000E-02 0. -1.
    8880023    1    1    2    0    0 -0.15380846695E+03 -0.38705859795E+03 -0.58101311895E+03  0.97203798969E+03  0.65864270000E+03 0. -1.
    8880022    1    1    2    0    0  0.15380846695E+03  0.38705859795E+03  0.25905797697E+03  0.51378409006E+03  0.15294330000E+03 0.  0.
<mgrwt>
<rscale>  0 0.67692698E+03</rscale>
<asrwt>0</asrwt>
<pdfrwt beam="1">  1        2 0.13905979E+00 0.77928275E+03</pdfrwt>
<pdfrwt beam="2">  1       -2 0.89528226E-01 0.77928275E+03</pdfrwt>
<totfact> 0.31562317E+01</totfact>
</mgrwt>
</event>
<event>
 4    2  0.2930016E-007  0.6610016E+03  0.7818608E-02  0.1023153E+00
         -2   -1    0    0    0  501 -0.00000000000E+00  0.00000000000E+00  0.10055787297E+04  0.10055787297E+04  0.25500000000E-02 0.  1.
          2   -1    0    0  501    0  0.00000000000E+00 -0.00000000000E+00 -0.21698316881E+03  0.21698316883E+03  0.25500000000E-02 0. -1.
    8880023    1    1    2    0    0  0.53890704115E+02  0.14445063440E+02  0.33583948890E+03  0.74142513878E+03  0.65864270000E+03 0. -1.
    8880022    1    1    2    0    0 -0.53890704115E+02 -0.14445063440E+02  0.45275607196E+03  0.48113675972E+03  0.15294330000E+03 0.  0.
<mgrwt>
<rscale>  0 0.46565778E+03</rscale>
<asrwt>0</asrwt>
<pdfrwt beam="1">  1        2 0.33382025E-01 0.66100157E+03</pdfrwt>
<pdfrwt beam="2">  1       -2 0.15470442E+00 0.66100157E+03</pdfrwt>
<totfact> 0.44262187E+01</totfact>
</mgrwt>
</event>
<event>
 4    2  0.2930016E-007  0.6964558E+03  0.7818608E-02  0.1001223E+00
         -2   -1    0    0    0  501 -0.00000000000E+00  0.00000000000E+00  0.18546492937E+03  0.18546492939E+03  0.25500000000E-02 0.  1.
          2   -1    0    0  501    0  0.00000000000E+00 -0.00000000000E+00 -0.19569964042E+04  0.19569964042E+04  0.25500000000E-02 0. -1.
    8880023    1    1    2    0    0  0.13070140496E+03  0.18481797164E+03 -0.17315472114E+04  0.18663618330E+04  0.65864270000E+03 0.  1.
    8880022    1    1    2    0    0 -0.13070140496E+03 -0.18481797164E+03 -0.39984263390E+02  0.27609950060E+03  0.15294330000E+03 0. -1.
<mgrwt>
<rscale>  0 0.55117050E+03</rscale>
<asrwt>0</asrwt>
<pdfrwt beam="1">  1        2 0.30107635E+00 0.69645585E+03</pdfrwt>
<pdfrwt beam="2">  1       -2 0.28533068E-01 0.69645585E+03</pdfrwt>
<totfact> 0.82027079E+01</totfact>
</mgrwt>
</event>
<event>
 4    2  0.4500504E-007  0.7454996E+03  0.7818608E-02  0.9844207E-01
         -2   -1    0    0    0  501 -0.00000000000E+00  0.00000000000E+00  0.65781894001E+03  0.65781894002E+03  0.25500000000E-02 0.  1.
          2   -1    0    0  501    0  0.00000000000E+00 -0.00000000000E+00 -0.22935193903E+04  0.22935193903E+04  0.25500000000E-02 0. -1.
    8880023    1    1    2    0    0  0.34000000721E+03  0.79745688411E+02 -0.21702712676E+04  0.22947433323E+04  0.65864270000E+03 0. -1.
    8880022    1    1    2    0    0 -0.34000000721E+03 -0.79745688411E+02  0.53457081732E+03  0.65659499805E+03  0.15294330000E+03 0.  0.
<mgrwt>
<rscale>  0 0.63043136E+03</rscale>
<asrwt>0</asrwt>
<pdfrwt beam="1">  1        2 0.35284913E+00 0.74549955E+03</pdfrwt>
<pdfrwt beam="2">  1       -2 0.10120291E+00 0.74549955E+03</pdfrwt>
<totfact> 0.38355022E+00</totfact>
</mgrwt>
</event>
<event>
 4    2  0.2930016E-007  0.7697772E+03  0.7818608E-02  0.9780423E-01
          2   -1    0    0  501    0  0.00000000000E+00  0.00000000000E+00  0.38634171012E+04  0.38634171012E+04  0.25500000000E-02 0. -1.
         -2   -1    0    0    0  501 -0.00000000000E+00 -0.00000000000E+00 -0.68921029782E+03  0.68921029782E+03  0.25500000000E-02 0.  1.
    8880023    1    1    2    0    0  0.17249522966E+03  0.35915465699E+03  0.37543289244E+04  0.38324329806E+04  0.65864270000E+03 0. -1.
    8880022    1    1    2    0    0 -0.17249522966E+03 -0.35915465699E+03 -0.58012212107E+03  0.72019441838E+03  0.15294330000E+03 0.  0.
<mgrwt>
<rscale>  0 0.66423833E+03</rscale>
<asrwt>0</asrwt>
<pdfrwt beam="1">  1        2 0.59437188E+00 0.76977716E+03</pdfrwt>
<pdfrwt beam="2">  1       -2 0.10603235E+00 0.76977716E+03</pdfrwt>
<totfact> 0.34710932E-01</totfact>
</mgrwt>
</event>
<event>
 4    2  0.2930016E-007  0.6894247E+03  0.7818608E-02  0.1004427E+00
         -2   -1    0    0    0  501 -0.00000000000E+00  0.00000000000E+00  0.19083624788E+03  0.19083624790E+03  0.25500000000E-02 0.  1.
          2   -1    0    0  501    0  0.00000000000E+00 -0.00000000000E+00 -0.13348957862E+04  0.13348957862E+04  0.25500000000E-02 0. -1.
    8880023    1    1    2    0    0  0.18860558049E+03  0.76968134469E+02 -0.10460270803E+04  0.12527884968E+04  0.65864270000E+03 0. -1.
    8880022    1    1    2    0    0 -0.18860558049E+03 -0.76968134469E+02 -0.98032458018E+02  0.27294353730E+03  0.15294330000E+03 0.  1.
<mgrwt>
<rscale>  0 0.53750871E+03</rscale>
<asrwt>0</asrwt>
<pdfrwt beam="1">  1        2 0.20536858E+00 0.68942466E+03</pdfrwt>
<pdfrwt beam="2">  1       -2 0.29359424E-01 0.68942466E+03</pdfrwt>
<totfact> 0.17143072E+02</totfact>
</mgrwt>
</event>
<event>
 4    2  0.2930016E-007  0.6870701E+03  0.7818608E-02  0.1005577E+00
         -2   -1    0    0    0  501 -0.00000000000E+00  0.00000000000E+00  0.11378225960E+04  0.11378225960E+04  0.25500000000E-02 0.  1.
          2   -1    0    0  501    0  0.00000000000E+00 -0.00000000000E+00 -0.87786885153E+03  0.87786885153E+03  0.25500000000E-02 0. -1.
    8880023    1    1    2    0    0  0.19530596221E+03 -0.10519920367E+02 -0.72563747047E+03  0.99930727627E+03  0.65864270000E+03 0. -1.
    8880022    1    1    2    0    0 -0.19530596221E+03  0.10519920367E+02  0.98559121491E+03  0.10163841712E+04  0.15294330000E+03 0.  0.
<mgrwt>
<rscale>  0 0.53270840E+03</rscale>
<asrwt>0</asrwt>
<pdfrwt beam="1">  1        2 0.13505675E+00 0.68707008E+03</pdfrwt>
<pdfrwt beam="2">  1       -2 0.17504963E+00 0.68707008E+03</pdfrwt>
<totfact> 0.61268335E+00</totfact>
</mgrwt>
</event>
<event>
 4    2  0.2930016E-007  0.7242067E+03  0.7818608E-02  0.9908601E-01
          2   -1    0    0  501    0  0.00000000000E+00  0.00000000000E+00  0.11332332903E+04  0.11332332903E+04  0.25500000000E-02 0. -1.
         -2   -1    0    0    0  501 -0.00000000000E+00 -0.00000000000E+00 -0.27540890739E+03  0.27540890740E+03  0.25500000000E-02 0.  1.
    8880023    1    1    2    0    0 -0.22431905326E+03 -0.20086321167E+03  0.77541393515E+03  0.10610099173E+04  0.65864270000E+03 0. -1.
    8880022    1    1    2    0    0  0.22431905326E+03  0.20086321167E+03  0.82410447717E+02  0.34763228038E+03  0.15294330000E+03 0.  0.
<mgrwt>
<rscale>  0 0.59846257E+03</rscale>
<asrwt>0</asrwt>
<pdfrwt beam="1">  1        2 0.17434359E+00 0.72420665E+03</pdfrwt>
<pdfrwt beam="2">  1       -2 0.42370600E-01 0.72420665E+03</pdfrwt>
<totfact> 0.11150793E+02</totfact>
</mgrwt>
</event>
<event>
 4    2  0.2930016E-007  0.9670563E+03  0.7818608E-02  0.9425987E-01
          2   -1    0    0  501    0  0.00000000000E+00  0.00000000000E+00  0.14428203085E+04  0.14428203085E+04  0.25500000000E-02 0. -1.
         -2   -1    0    0    0  501 -0.00000000000E+00 -0.00000000000E+00 -0.10825630702E+04  0.10825630702E+04  0.25500000000E-02 0.  1.
    8880023    1    1    2    0    0  0.34146606804E+03 -0.62031332437E+03  0.11172276396E+04  0.14776317204E+04  0.65864270000E+03 0.  0.
    8880022    1    1    2    0    0 -0.34146606804E+03  0.62031332437E+03 -0.75697040136E+03  0.10477516583E+04  0.15294330000E+03 0.  0.
<mgrwt>
<rscale>  0 0.89967554E+03</rscale>
<asrwt>0</asrwt>
<pdfrwt beam="1">  1        2 0.22197235E+00 0.96705631E+03</pdfrwt>
<pdfrwt beam="2">  1       -2 0.16654817E+00 0.96705631E+03</pdfrwt>
<totfact> 0.30743604E+00</totfact>
</mgrwt>
</event>
<event>
 4    2  0.2930016E-007  0.1017130E+04  0.7818608E-02  0.9359482E-01
         -2   -1    0    0    0  501 -0.00000000000E+00  0.00000000000E+00  0.23177261544E+04  0.23177261544E+04  0.25500000000E-02 0.  1.
          2   -1    0    0  501    0  0.00000000000E+00 -0.00000000000E+00 -0.78780930070E+03  0.78780930071E+03  0.25500000000E-02 0. -1.
    8880023    1    1    2    0    0  0.65245675570E+03  0.41838074322E+03 -0.34252346991E+03  0.10732543026E+04  0.65864270000E+03 0. -1.
    8880022    1    1    2    0    0 -0.65245675570E+03 -0.41838074322E+03  0.18724403236E+04  0.20322811525E+04  0.15294330000E+03 0.  0.
<mgrwt>
<rscale>  0 0.95486488E+03</rscale>
<asrwt>0</asrwt>
<pdfrwt beam="1">  1        2 0.12120143E+00 0.10171295E+04</pdfrwt>
<pdfrwt beam="2">  1       -2 0.35657325E+00 0.10171295E+04</pdfrwt>
<totfact> 0.50224431E-01</totfact>
</mgrwt>
</event>
<event>
 4    2  0.2930016E-007  0.7216703E+03  0.7818608E-02  0.9916974E-01
         -2   -1    0    0    0  501 -0.00000000000E+00  0.00000000000E+00  0.39218221950E+03  0.39218221951E+03  0.25500000000E-02 0.  1.
          2   -1    0    0  501    0  0.00000000000E+00 -0.00000000000E+00 -0.14786860344E+04  0.14786860344E+04  0.25500000000E-02 0. -1.
    8880023    1    1    2    0    0  0.11411624100E+03  0.27198387607E+03 -0.12922254327E+04  0.14800859842E+04  0.65864270000E+03 0. -1.
    8880022    1    1    2    0    0 -0.11411624100E+03 -0.27198387607E+03  0.20572161781E+03  0.39078226975E+03  0.15294330000E+03 0.  0.
<mgrwt>
<rscale>  0 0.59445642E+03</rscale>
<asrwt>0</asrwt>
<pdfrwt beam="1">  1        2 0.22749016E+00 0.72167025E+03</pdfrwt>
<pdfrwt beam="2">  1       -2 0.60335727E-01 0.72167025E+03</pdfrwt>
<totfact> 0.34269653E+01</totfact>
</mgrwt>
</event>
<event>
 4    2  0.2930016E-007  0.8711786E+03  0.7818608E-02  0.9573980E-01
         -2   -1    0    0    0  501 -0.00000000000E+00  0.00000000000E+00  0.94965007972E+03  0.94965007972E+03  0.25500000000E-02 0.  1.
          2   -1    0    0  501    0  0.00000000000E+00 -0.00000000000E+00 -0.99951159889E+03  0.99951159890E+03  0.25500000000E-02 0. -1.
    8880023    1    1    2    0    0 -0.55414279091E+03  0.13441593627E+03  0.61018379838E+03  0.10636147567E+04  0.65864270000E+03 0.  1.
    8880022    1    1    2    0    0  0.55414279091E+03 -0.13441593627E+03 -0.66004531755E+03  0.88554692190E+03  0.15294330000E+03 0.  0.
<mgrwt>
<rscale>  0 0.79042552E+03</rscale>
<asrwt>0</asrwt>
<pdfrwt beam="1">  1        2 0.15377102E+00 0.87117856E+03</pdfrwt>
<pdfrwt beam="2">  1       -2 0.14610001E+00 0.87117856E+03</pdfrwt>
<totfact> 0.81302465E+00</totfact>
</mgrwt>
</event>
<event>
 4    2  0.2930016E-007  0.9094451E+03  0.7818608E-02  0.9511036E-01
          2   -1    0    0  501    0  0.00000000000E+00  0.00000000000E+00  0.14160610821E+04  0.14160610821E+04  0.25500000000E-02 0. -1.
         -2   -1    0    0    0  501 -0.00000000000E+00 -0.00000000000E+00 -0.45856192854E+03  0.45856192854E+03  0.25500000000E-02 0.  1.
    8880023    1    1    2    0    0 -0.46687806241E+03  0.41869444740E+03  0.31128798778E+03  0.96124428895E+03  0.65864270000E+03 0.  0.
    8880022    1    1    2    0    0  0.46687806241E+03 -0.41869444740E+03  0.64621116578E+03  0.91337872169E+03  0.15294330000E+03 0.  0.
<mgrwt>
<rscale>  0 0.83475038E+03</rscale>
<asrwt>0</asrwt>
<pdfrwt beam="1">  1        2 0.21785555E+00 0.90944509E+03</pdfrwt>
<pdfrwt beam="2">  1       -2 0.70547990E-01 0.90944509E+03</pdfrwt>
<totfact> 0.26031767E+01</totfact>
</mgrwt>
</event>
<event>
 4    2  0.2930016E-007  0.6642598E+03  0.7818608E-02  0.1020163E+00
         -2   -1    0    0    0  501 -0.00000000000E+00  0.00000000000E+00  0.54184414213E+03  0.54184414214E+03  0.25500000000E-02 0.  1.
          2   -1    0    0  501    0  0.00000000000E+00 -0.00000000000E+00 -0.96203026982E+03  0.96203026982E+03  0.25500000000E-02 0. -1.
    8880023    1    1    2    0    0 -0.66605610437E+02 -0.54722988375E+02 -0.82703169723E+03  0.10607650764E+04  0.65864270000E+03 0. -1.
    8880022    1    1    2    0    0  0.66605610437E+02  0.54722988375E+02  0.40684556954E+03  0.44310933557E+03  0.15294330000E+03 0.  0.
<mgrwt>
<rscale>  0 0.47627972E+03</rscale>
<asrwt>0</asrwt>
<pdfrwt beam="1">  1        2 0.14800466E+00 0.66425983E+03</pdfrwt>
<pdfrwt beam="2">  1       -2 0.83360638E-01 0.66425983E+03</pdfrwt>
<totfact> 0.34390590E+01</totfact>
</mgrwt>
</event>
<event>
 4    2  0.2930016E-007  0.8315276E+03  0.7818608E-02  0.9646368E-01
         -2   -1    0    0    0  501 -0.00000000000E+00  0.00000000000E+00  0.71288736276E+03  0.71288736276E+03  0.25500000000E-02 0.  1.
          2   -1    0    0  501    0  0.00000000000E+00 -0.00000000000E+00 -0.31253376420E+04  0.31253376420E+04  0.25500000000E-02 0. -1.
    8880023    1    1    2    0    0 -0.16234879918E+03  0.48090617733E+03 -0.29609060313E+04  0.30754516118E+04  0.65864270000E+03 0. -1.
    8880022    1    1    2    0    0  0.16234879918E+03 -0.48090617733E+03  0.54845575208E+03  0.76277339295E+03  0.15294330000E+03 0.  0.
<mgrwt>
<rscale>  0 0.74301837E+03</rscale>
<asrwt>0</asrwt>
<pdfrwt beam="1">  1        2 0.48082117E+00 0.83152756E+03</pdfrwt>
<pdfrwt beam="2">  1       -2 0.10967498E+00 0.83152756E+03</pdfrwt>
<totfact> 0.10113181E+00</totfact>
</mgrwt>
</event>
<event>
 4    2  0.2930016E-007  0.9889490E+03  0.7818608E-02  0.9396161E-01
          2   -1    0    0  501    0  0.00000000000E+00  0.00000000000E+00  0.10476734828E+04  0.10476734828E+04  0.25500000000E-02 0. -1.
         -2   -1    0    0    0  501 -0.00000000000E+00 -0.00000000000E+00 -0.13341385659E+04  0.13341385659E+04  0.25500000000E-02 0.  1.
    8880023    1    1    2    0    0 -0.38139901967E+02  0.73671927502E+03  0.64734346533E+03  0.11819787268E+04  0.65864270000E+03 0. -1.
    8880022    1    1    2    0    0  0.38139901967E+02 -0.73671927502E+03 -0.93380854842E+03  0.11998333219E+04  0.15294330000E+03 0.  0.
<mgrwt>
<rscale>  0 0.92392321E+03</rscale>
<asrwt>0</asrwt>
<pdfrwt beam="1">  1        2 0.16118053E+00 0.98894901E+03</pdfrwt>
<pdfrwt beam="2">  1       -2 0.20525209E+00 0.98894901E+03</pdfrwt>
<totfact> 0.28684213E+00</totfact>
</mgrwt>
</event>
<event>
 4    2  0.2930016E-007  0.7122473E+03  0.7818608E-02  0.9949749E-01
         -2   -1    0    0    0  501 -0.00000000000E+00  0.00000000000E+00  0.53130320978E+03  0.53130320979E+03  0.25500000000E-02 0.  1.
          2   -1    0    0  501    0  0.00000000000E+00 -0.00000000000E+00 -0.12136888057E+04  0.12136888057E+04  0.25500000000E-02 0. -1.
    8880023    1    1    2    0    0 -0.61763971978E+02 -0.26395308376E+03 -0.10465585157E+04  0.12659308637E+04  0.65864270000E+03 0. -1.
    8880022    1    1    2    0    0  0.61763971978E+02  0.26395308376E+03  0.36417291976E+03  0.47906115179E+03  0.15294330000E+03 0.  0.
<mgrwt>
<rscale>  0 0.57909668E+03</rscale>
<asrwt>0</asrwt>
<pdfrwt beam="1">  1        2 0.18672135E+00 0.71224731E+03</pdfrwt>
<pdfrwt beam="2">  1       -2 0.81738956E-01 0.71224731E+03</pdfrwt>
<totfact> 0.25047940E+01</totfact>
</mgrwt>
</event>
<event>
 4    2  0.2930016E-007  0.8036135E+03  0.7818608E-02  0.9703037E-01
         -2   -1    0    0    0  501 -0.00000000000E+00  0.00000000000E+00  0.24826447945E+03  0.24826447946E+03  0.25500000000E-02 0.  1.
          2   -1    0    0  501    0  0.00000000000E+00 -0.00000000000E+00 -0.18495464969E+04  0.18495464969E+04  0.25500000000E-02 0. -1.
    8880023    1    1    2    0    0  0.23976138425E+03  0.39306361426E+03 -0.12949514985E+04  0.15240387515E+04  0.65864270000E+03 0. -1.
    8880022    1    1    2    0    0 -0.23976138425E+03 -0.39306361426E+03 -0.30633051897E+03  0.57377222492E+03  0.15294330000E+03 0.  0.
<mgrwt>
<rscale>  0 0.70836281E+03</rscale>
<asrwt>0</asrwt>
<pdfrwt beam="1">  1        2 0.28454561E+00 0.80361355E+03</pdfrwt>
<pdfrwt beam="2">  1       -2 0.38194537E-01 0.80361355E+03</pdfrwt>
<totfact> 0.53511930E+01</totfact>
</mgrwt>
</event>
<event>
 4    2  0.2930016E-007  0.7615773E+03  0.7818608E-02  0.9801041E-01
          2   -1    0    0  501    0  0.00000000000E+00  0.00000000000E+00  0.10016074633E+04  0.10016074633E+04  0.25500000000E-02 0. -1.
         -2   -1    0    0    0  501 -0.00000000000E+00 -0.00000000000E+00 -0.47234701027E+03  0.47234701028E+03  0.25500000000E-02 0.  1.
    8880023    1    1    2    0    0  0.37862944322E+03 -0.53192959695E+02 -0.50019098292E+02  0.76321809641E+03  0.65864270000E+03 0.  1.
    8880022    1    1    2    0    0 -0.37862944322E+03  0.53192959695E+02  0.57927955134E+03  0.71073637718E+03  0.15294330000E+03 0.  0.
<mgrwt>
<rscale>  0 0.65306703E+03</rscale>
<asrwt>0</asrwt>
<pdfrwt beam="1">  1        2 0.15409346E+00 0.76157728E+03</pdfrwt>
<pdfrwt beam="2">  1       -2 0.72668771E-01 0.76157728E+03</pdfrwt>
<totfact> 0.43659192E+01</totfact>
</mgrwt>
</event>
<event>
 4    2  0.2930016E-007  0.9633033E+03  0.7818608E-02  0.9431226E-01
         -2   -1    0    0    0  501 -0.00000000000E+00  0.00000000000E+00  0.46598728170E+03  0.46598728170E+03  0.25500000000E-02 0.  1.
          2   -1    0    0  501    0  0.00000000000E+00 -0.00000000000E+00 -0.27859580294E+04  0.27859580294E+04  0.25500000000E-02 0. -1.
    8880023    1    1    2    0    0 -0.44214089465E+03  0.54649285130E+03 -0.23418277565E+04  0.25322145357E+04  0.65864270000E+03 0. -1.
    8880022    1    1    2    0    0  0.44214089465E+03 -0.54649285130E+03  0.21857008816E+02  0.71973077542E+03  0.15294330000E+03 0.  0.
<mgrwt>
<rscale>  0 0.89549819E+03</rscale>
<asrwt>0</asrwt>
<pdfrwt beam="1">  1        2 0.42860892E+00 0.96330328E+03</pdfrwt>
<pdfrwt beam="2">  1       -2 0.71690352E-01 0.96330328E+03</pdfrwt>
<totfact> 0.42526630E+00</totfact>
</mgrwt>
</event>
<event>
 4    2  0.2930016E-007  0.6809684E+03  0.7818608E-02  0.1008781E+00
         -2   -1    0    0    0  501 -0.00000000000E+00  0.00000000000E+00  0.26000726429E+04  0.26000726429E+04  0.25500000000E-02 0.  1.
          2   -1    0    0  501    0  0.00000000000E+00 -0.00000000000E+00 -0.16326668784E+03  0.16326668786E+03  0.25500000000E-02 0. -1.
    8880023    1    1    2    0    0 -0.51100338180E+02 -0.16521635957E+03  0.58660374950E+03  0.89878910497E+03  0.65864270000E+03 0. -1.
    8880022    1    1    2    0    0  0.51100338180E+02  0.16521635957E+03  0.18502022055E+04  0.18645502258E+04  0.15294330000E+03 0.  0.
<mgrwt>
<rscale>  0 0.51961949E+03</rscale>
<asrwt>0</asrwt>
<pdfrwt beam="1">  1        2 0.25117952E-01 0.68096835E+03</pdfrwt>
<pdfrwt beam="2">  1       -2 0.40001118E+00 0.68096835E+03</pdfrwt>
<totfact> 0.17352327E+00</totfact>
</mgrwt>
</event>
<event>
 4    2  0.2930016E-007  0.6856086E+03  0.7818608E-02  0.1006314E+00
         -2   -1    0    0    0  501 -0.00000000000E+00  0.00000000000E+00  0.16640455480E+04  0.16640455480E+04  0.25500000000E-02 0.  1.
          2   -1    0    0  501    0  0.00000000000E+00 -0.00000000000E+00 -0.33620296405E+03  0.33620296406E+03  0.25500000000E-02 0. -1.
    8880023    1    1    2    0    0  0.18283509217E+03  0.53106007377E+02  0.37106206657E+02  0.68661196886E+03  0.65864270000E+03 0. -1.
    8880022    1    1    2    0    0 -0.18283509217E+03 -0.53106007377E+02  0.12907363773E+04  0.13136365432E+04  0.15294330000E+03 0.  1.
<mgrwt>
<rscale>  0 0.52966333E+03</rscale>
<asrwt>0</asrwt>
<pdfrwt beam="1">  1        2 0.51723533E-01 0.68560858E+03</pdfrwt>
<pdfrwt beam="2">  1       -2 0.25600701E+00 0.68560858E+03</pdfrwt>
<totfact> 0.59198283E+00</totfact>
</mgrwt>
</event>
<event>
 4    2  0.2930016E-007  0.9256788E+03  0.7818608E-02  0.9486006E-01
         -2   -1    0    0    0  501 -0.00000000000E+00  0.00000000000E+00  0.64686944718E+03  0.64686944718E+03  0.25500000000E-02 0.  1.
          2   -1    0    0  501    0  0.00000000000E+00 -0.00000000000E+00 -0.15333101227E+04  0.15333101227E+04  0.25500000000E-02 0. -1.
    8880023    1    1    2    0    0 -0.29822129664E+03 -0.57804422877E+03  0.15921287390E+03  0.93927100331E+03  0.65864270000E+03 0.  1.
    8880022    1    1    2    0    0  0.29822129664E+03  0.57804422877E+03 -0.10456535495E+04  0.12409085666E+04  0.15294330000E+03 0. -1.
<mgrwt>
<rscale>  0 0.85323448E+03</rscale>
<asrwt>0</asrwt>
<pdfrwt beam="1">  1        2 0.23589386E+00 0.92567882E+03</pdfrwt>
<pdfrwt beam="2">  1       -2 0.99518377E-01 0.92567882E+03</pdfrwt>
<totfact> 0.10192755E+01</totfact>
</mgrwt>
</event>
<event>
 4    2  0.2930016E-007  0.7416871E+03  0.7818608E-02  0.9855060E-01
         -2   -1    0    0    0  501 -0.00000000000E+00  0.00000000000E+00  0.36692855988E+03  0.36692855989E+03  0.25500000000E-02 0.  1.
          2   -1    0    0  501    0  0.00000000000E+00 -0.00000000000E+00 -0.84819877819E+03  0.84819877820E+03  0.25500000000E-02 0. -1.
    8880023    1    1    2    0    0 -0.10600218829E+03  0.32411883158E+03 -0.33392514806E+03  0.81339147505E+03  0.65864270000E+03 0. -1.
    8880022    1    1    2    0    0  0.10600218829E+03 -0.32411883158E+03 -0.14734507026E+03  0.40173586304E+03  0.15294330000E+03 0.  1.
<mgrwt>
<rscale>  0 0.62489600E+03</rscale>
<asrwt>0</asrwt>
<pdfrwt beam="1">  1        2 0.13049212E+00 0.74168705E+03</pdfrwt>
<pdfrwt beam="2">  1       -2 0.56450548E-01 0.74168705E+03</pdfrwt>
<totfact> 0.94977391E+01</totfact>
</mgrwt>
</event>
<event>
 4    2  0.2930016E-007  0.6656153E+03  0.7818608E-02  0.1019023E+00
          2   -1    0    0  501    0  0.00000000000E+00  0.00000000000E+00  0.12570233847E+04  0.12570233847E+04  0.25500000000E-02 0. -1.
         -2   -1    0    0    0  501 -0.00000000000E+00 -0.00000000000E+00 -0.65997285593E+03  0.65997285594E+03  0.25500000000E-02 0.  1.
    8880023    1    1    2    0    0 -0.57322170271E+02 -0.77121085752E+02  0.11536085984E+04  0.13318620415E+04  0.65864270000E+03 0. -1.
    8880022    1    1    2    0    0  0.57322170271E+02  0.77121085752E+02 -0.55655806964E+03  0.58513419911E+03  0.15294330000E+03 0.  0.
<mgrwt>
<rscale>  0 0.48040943E+03</rscale>
<asrwt>0</asrwt>
<pdfrwt beam="1">  1        2 0.19338821E+00 0.66561528E+03</pdfrwt>
<pdfrwt beam="2">  1       -2 0.10153429E+00 0.66561528E+03</pdfrwt>
<totfact> 0.14393923E+01</totfact>
</mgrwt>
</event>
<event>
 4    2  0.2930016E-007  0.7311287E+03  0.7818608E-02  0.9886586E-01
          2   -1    0    0  501    0  0.00000000000E+00  0.00000000000E+00  0.32463720566E+03  0.32463720567E+03  0.25500000000E-02 0. -1.
         -2   -1    0    0    0  501 -0.00000000000E+00 -0.00000000000E+00 -0.15908100070E+04  0.15908100070E+04  0.25500000000E-02 0.  1.
    8880023    1    1    2    0    0  0.25159028670E+03  0.19349737387E+03 -0.13659130204E+04  0.15492796686E+04  0.65864270000E+03 0.  1.
    8880022    1    1    2    0    0 -0.25159028670E+03 -0.19349737387E+03  0.99740219001E+02  0.36616754411E+03  0.15294330000E+03 0.  0.
<mgrwt>
<rscale>  0 0.60915834E+03</rscale>
<asrwt>0</asrwt>
<pdfrwt beam="1">  1        2 0.49944187E-01 0.73112866E+03</pdfrwt>
<pdfrwt beam="2">  1       -2 0.24474000E+00 0.73112866E+03</pdfrwt>
<totfact> 0.71599042E+00</totfact>
</mgrwt>
</event>
<event>
 4    2  0.2930016E-007  0.6655098E+03  0.7818608E-02  0.1019109E+00
          2   -1    0    0  501    0  0.00000000000E+00  0.00000000000E+00  0.10382550664E+04  0.10382550664E+04  0.25500000000E-02 0. -1.
         -2   -1    0    0    0  501 -0.00000000000E+00 -0.00000000000E+00 -0.17275838626E+03  0.17275838628E+03  0.25500000000E-02 0.  1.
    8880023    1    1    2    0    0 -0.87088352658E+02 -0.38842369217E+02  0.70767932741E+03  0.97144909672E+03  0.65864270000E+03 0. -1.
    8880022    1    1    2    0    0  0.87088352658E+02  0.38842369217E+02  0.15781735277E+03  0.23956435600E+03  0.15294330000E+03 0.  1.
<mgrwt>
<rscale>  0 0.48009349E+03</rscale>
<asrwt>0</asrwt>
<pdfrwt beam="1">  1        2 0.15973155E+00 0.66550982E+03</pdfrwt>
<pdfrwt beam="2">  1       -2 0.26578213E-01 0.66550982E+03</pdfrwt>
<totfact> 0.30917495E+02</totfact>
</mgrwt>
</event>
<event>
 4    2  0.2930016E-007  0.6590196E+03  0.7818608E-02  0.1025184E+00
          2   -1    0    0  501    0  0.00000000000E+00  0.00000000000E+00  0.30900719984E+04  0.30900719984E+04  0.25500000000E-02 0. -1.
         -2   -1    0    0    0  501 -0.00000000000E+00 -0.00000000000E+00 -0.67487789713E+02  0.67487789761E+02  0.25500000000E-02 0.  1.
    8880023    1    1    2    0    0 -0.31667866303E+01 -0.22060074403E+02  0.28529369954E+04  0.29280635891E+04  0.65864270000E+03 0. -1.
    8880022    1    1    2    0    0  0.31667866303E+01  0.22060074403E+02  0.16964721324E+03  0.22949619909E+03  0.15294330000E+03 0.  0.
<mgrwt>
<rscale>  0 0.45861366E+03</rscale>
<asrwt>0</asrwt>
<pdfrwt beam="1">  1        2 0.47539563E+00 0.65901964E+03</pdfrwt>
<pdfrwt beam="2">  1       -2 0.10382738E-01 0.65901964E+03</pdfrwt>
<totfact> 0.10567429E+02</totfact>
</mgrwt>
</event>
<event>
 4    2  0.2930016E-007  0.7067705E+03  0.7818608E-02  0.9970195E-01
         -2   -1    0    0    0  501 -0.00000000000E+00  0.00000000000E+00  0.13294282369E+04  0.13294282369E+04  0.25500000000E-02 0.  1.
          2   -1    0    0  501    0  0.00000000000E+00 -0.00000000000E+00 -0.84964979934E+03  0.84964979934E+03  0.25500000000E-02 0. -1.
    8880023    1    1    2    0    0 -0.24741448182E+03  0.67085418760E+02 -0.68043499636E+03  0.98107918628E+03  0.65864270000E+03 0. -1.
    8880022    1    1    2    0    0  0.24741448182E+03 -0.67085418760E+02  0.11602134339E+04  0.11979988500E+04  0.15294330000E+03 0.  0.
<mgrwt>
<rscale>  0 0.56976690E+03</rscale>
<asrwt>0</asrwt>
<pdfrwt beam="1">  1        2 0.13071535E+00 0.70677053E+03</pdfrwt>
<pdfrwt beam="2">  1       -2 0.20452742E+00 0.70677053E+03</pdfrwt>
<totfact> 0.40618296E+00</totfact>
</mgrwt>
</event>
<event>
 4    2  0.2930016E-007  0.8332570E+03  0.7818608E-02  0.9643028E-01
          2   -1    0    0  501    0  0.00000000000E+00  0.00000000000E+00  0.10644744195E+04  0.10644744195E+04  0.25500000000E-02 0. -1.
         -2   -1    0    0    0  501 -0.00000000000E+00 -0.00000000000E+00 -0.71046732612E+03  0.71046732613E+03  0.25500000000E-02 0.  1.
    8880023    1    1    2    0    0  0.76196222041E+02  0.50467929916E+03 -0.34002876025E+03  0.89996490116E+03  0.65864270000E+03 0.  1.
    8880022    1    1    2    0    0 -0.76196222041E+02 -0.50467929916E+03  0.69403585366E+03  0.87497684451E+03  0.15294330000E+03 0.  0.
<mgrwt>
<rscale>  0 0.74512591E+03</rscale>
<asrwt>0</asrwt>
<pdfrwt beam="1">  1        2 0.16376529E+00 0.83325702E+03</pdfrwt>
<pdfrwt beam="2">  1       -2 0.10930267E+00 0.83325702E+03</pdfrwt>
<totfact> 0.15426371E+01</totfact>
</mgrwt>
</event>
<event>
 4    2  0.2930016E-007  0.6836785E+03  0.7818608E-02  0.1007315E+00
          2   -1    0    0  501    0  0.00000000000E+00  0.00000000000E+00  0.16593211193E+04  0.16593211193E+04  0.25500000000E-02 0. -1.
         -2   -1    0    0    0  501 -0.00000000000E+00 -0.00000000000E+00 -0.29164045770E+03  0.29164045772E+03  0.25500000000E-02 0.  1.
    8880023    1    1    2    0    0 -0.17439673687E+03 -0.56496930848E+02  0.15207506975E+04  0.16673628925E+04  0.65864270000E+03 0. -1.
    8880022    1    1    2    0    0  0.17439673687E+03  0.56496930848E+02 -0.15307003583E+03  0.28359868461E+03  0.15294330000E+03 0.  0.
<mgrwt>
<rscale>  0 0.52555866E+03</rscale>
<asrwt>0</asrwt>
<pdfrwt beam="1">  1        2 0.25528017E+00 0.68367853E+03</pdfrwt>
<pdfrwt beam="2">  1       -2 0.44867763E-01 0.68367853E+03</pdfrwt>
<totfact> 0.50230760E+01</totfact>
</mgrwt>
</event>
<event>
 4    2  0.2930016E-007  0.9454114E+03  0.7818608E-02  0.9456747E-01
         -2   -1    0    0    0  501 -0.00000000000E+00  0.00000000000E+00  0.14689421278E+04  0.14689421278E+04  0.25500000000E-02 0.  1.
          2   -1    0    0  501    0  0.00000000000E+00 -0.00000000000E+00 -0.48157523416E+03  0.48157523417E+03  0.25500000000E-02 0. -1.
    8880023    1    1    2    0    0  0.70270846661E+02  0.67457733802E+03  0.35244241796E+03  0.10089689991E+04  0.65864270000E+03 0.  0.
    8880022    1    1    2    0    0 -0.70270846661E+02 -0.67457733802E+03  0.63492447571E+03  0.94154836293E+03  0.15294330000E+03 0.  0.
<mgrwt>
<rscale>  0 0.87549203E+03</rscale>
<asrwt>0</asrwt>
<pdfrwt beam="1">  1        2 0.74088500E-01 0.94541144E+03</pdfrwt>
<pdfrwt beam="2">  1       -2 0.22599109E+00 0.94541144E+03</pdfrwt>
<totfact> 0.58430251E+00</totfact>
</mgrwt>
</event>
<event>
 4    2  0.2930016E-007  0.9212257E+03  0.7818608E-02  0.9492782E-01
          2   -1    0    0  501    0  0.00000000000E+00  0.00000000000E+00  0.21500960659E+04  0.21500960659E+04  0.25500000000E-02 0. -1.
         -2   -1    0    0    0  501 -0.00000000000E+00 -0.00000000000E+00 -0.11500239932E+04  0.11500239932E+04  0.25500000000E-02 0.  1.
    8880023    1    1    2    0    0 -0.64146172168E+03 -0.58080834113E+02  0.19416559540E+04  0.21491125083E+04  0.65864270000E+03 0. -1.
    8880022    1    1    2    0    0  0.64146172168E+03  0.58080834113E+02 -0.94158388124E+03  0.11510075508E+04  0.15294330000E+03 0.  0.
<mgrwt>
<rscale>  0 0.84818053E+03</rscale>
<asrwt>0</asrwt>
<pdfrwt beam="1">  1        2 0.33078401E+00 0.92122567E+03</pdfrwt>
<pdfrwt beam="2">  1       -2 0.17692677E+00 0.92122567E+03</pdfrwt>
<totfact> 0.10620747E+00</totfact>
</mgrwt>
</event>
<event>
 4    2  0.2930016E-007  0.1044834E+04  0.7818608E-02  0.9325118E-01
         -2   -1    0    0    0  501 -0.00000000000E+00  0.00000000000E+00  0.80240799961E+03  0.80240799962E+03  0.25500000000E-02 0.  1.
          2   -1    0    0  501    0  0.00000000000E+00 -0.00000000000E+00 -0.18059274629E+04  0.18059274629E+04  0.25500000000E-02 0. -1.
    8880023    1    1    2    0    0  0.57970233437E+03 -0.56728557404E+03 -0.13551495099E+04  0.17111715634E+04  0.65864270000E+03 0. -1.
    8880022    1    1    2    0    0 -0.57970233437E+03  0.56728557404E+03  0.35163004669E+03  0.89716389904E+03  0.15294330000E+03 0.  0.
<mgrwt>
<rscale>  0 0.98503012E+03</rscale>
<asrwt>0</asrwt>
<pdfrwt beam="1">  1        2 0.27783499E+00 0.10448339E+04</pdfrwt>
<pdfrwt beam="2">  1       -2 0.12344739E+00 0.10448339E+04</pdfrwt>
<totfact> 0.41997215E+00</totfact>
</mgrwt>
</event>
<event>
 4    2  0.2930016E-007  0.8843879E+03  0.7818608E-02  0.9551574E-01
         -2   -1    0    0    0  501 -0.00000000000E+00  0.00000000000E+00  0.56211009196E+03  0.56211009197E+03  0.25500000000E-02 0.  1.
          2   -1    0    0  501    0  0.00000000000E+00 -0.00000000000E+00 -0.14014854441E+04  0.14014854441E+04  0.25500000000E-02 0. -1.
    8880023    1    1    2    0    0  0.53792745109E+03  0.24282891516E+03 -0.99813577062E+03  0.13335730379E+04  0.65864270000E+03 0.  0.
    8880022    1    1    2    0    0 -0.53792745109E+03 -0.24282891516E+03  0.15876041847E+03  0.63002249814E+03  0.15294330000E+03 0.  0.
<mgrwt>
<rscale>  0 0.80586002E+03</rscale>
<asrwt>0</asrwt>
<pdfrwt beam="1">  1        2 0.21561314E+00 0.88438794E+03</pdfrwt>
<pdfrwt beam="2">  1       -2 0.86478476E-01 0.88438794E+03</pdfrwt>
<totfact> 0.16849253E+01</totfact>
</mgrwt>
</event>
<event>
 4    2  0.2930016E-007  0.7815587E+03  0.7818608E-02  0.9752188E-01
         -2   -1    0    0    0  501 -0.00000000000E+00  0.00000000000E+00  0.77337171795E+03  0.77337171795E+03  0.25500000000E-02 0.  1.
          2   -1    0    0  501    0  0.00000000000E+00 -0.00000000000E+00 -0.77925100653E+03  0.77925100654E+03  0.25500000000E-02 0. -1.
    8880023    1    1    2    0    0  0.40461420638E+03  0.11537394190E+03 -0.46657947124E+03  0.91023645923E+03  0.65864270000E+03 0.  0.
    8880022    1    1    2    0    0 -0.40461420638E+03 -0.11537394190E+03  0.46070018265E+03  0.64238626525E+03  0.15294330000E+03 0.  0.
<mgrwt>
<rscale>  0 0.67992750E+03</rscale>
<asrwt>0</asrwt>
<pdfrwt beam="1">  1        2 0.11988477E+00 0.78155870E+03</pdfrwt>
<pdfrwt beam="2">  1       -2 0.11898026E+00 0.78155870E+03</pdfrwt>
<totfact> 0.19566192E+01</totfact>
</mgrwt>
</event>
<event>
 4    2  0.2930016E-007  0.7035250E+03  0.7818608E-02  0.9982881E-01
         -2   -1    0    0    0  501 -0.00000000000E+00  0.00000000000E+00  0.57254764469E+03  0.57254764470E+03  0.25500000000E-02 0.  1.
          2   -1    0    0  501    0  0.00000000000E+00 -0.00000000000E+00 -0.80278434947E+03  0.80278434947E+03  0.25500000000E-02 0. -1.
    8880023    1    1    2    0    0 -0.23454708732E+03  0.78261293711E+02 -0.58619006821E+03  0.91573258575E+03  0.65864270000E+03 0. -1.
    8880022    1    1    2    0    0  0.23454708732E+03 -0.78261293711E+02  0.35595336344E+03  0.45959940842E+03  0.15294330000E+03 0.  0.
<mgrwt>
<rscale>  0 0.56407290E+03</rscale>
<asrwt>0</asrwt>
<pdfrwt beam="1">  1        2 0.12350528E+00 0.70352496E+03</pdfrwt>
<pdfrwt beam="2">  1       -2 0.88084253E-01 0.70352496E+03</pdfrwt>
<totfact> 0.38763674E+01</totfact>
</mgrwt>
</event>
<event>
 4    2  0.2930016E-007  0.7318812E+03  0.7818608E-02  0.9884261E-01
         -2   -1    0    0    0  501 -0.00000000000E+00  0.00000000000E+00  0.61531943932E+03  0.61531943932E+03  0.25500000000E-02 0.  1.
          2   -1    0    0  501    0  0.00000000000E+00 -0.00000000000E+00 -0.19836369136E+04  0.19836369136E+04  0.25500000000E-02 0. -1.
    8880023    1    1    2    0    0  0.26996543545E+03 -0.17017217642E+03 -0.18567566163E+04  0.19957943893E+04  0.65864270000E+03 0. -1.
    8880022    1    1    2    0    0 -0.26996543545E+03  0.17017217642E+03  0.48843914198E+03  0.60316196365E+03  0.15294330000E+03 0.  0.
<mgrwt>
<rscale>  0 0.61030183E+03</rscale>
<asrwt>0</asrwt>
<pdfrwt beam="1">  1        2 0.30517491E+00 0.73188121E+03</pdfrwt>
<pdfrwt beam="2">  1       -2 0.94664530E-01 0.73188121E+03</pdfrwt>
<totfact> 0.66580700E+00</totfact>
</mgrwt>
</event>
<event>
 4    2  0.2930016E-007  0.7365834E+03  0.7818608E-02  0.9870013E-01
         -2   -1    0    0    0  501 -0.00000000000E+00  0.00000000000E+00  0.24359325753E+03  0.24359325754E+03  0.25500000000E-02 0.  1.
          2   -1    0    0  501    0  0.00000000000E+00 -0.00000000000E+00 -0.12984554778E+04  0.12984554778E+04  0.25500000000E-02 0. -1.
    8880023    1    1    2    0    0  0.11586539351E+03  0.30873966114E+03 -0.85016203203E+03  0.11248691723E+04  0.65864270000E+03 0. -1.
    8880022    1    1    2    0    0 -0.11586539351E+03 -0.30873966114E+03 -0.20470018828E+03  0.41717956311E+03  0.15294330000E+03 0. -1.
<mgrwt>
<rscale>  0 0.61736836E+03</rscale>
<asrwt>0</asrwt>
<pdfrwt beam="1">  1        2 0.19976238E+00 0.73658345E+03</pdfrwt>
<pdfrwt beam="2">  1       -2 0.37475887E-01 0.73658345E+03</pdfrwt>
<totfact> 0.11308171E+02</totfact>
</mgrwt>
</event>
<event>
 4    2  0.2930016E-007  0.6631143E+03  0.7818608E-02  0.1021171E+00
          2   -1    0    0  501    0  0.00000000000E+00  0.00000000000E+00  0.19167069649E+04  0.19167069649E+04  0.25500000000E-02 0. -1.
         -2   -1    0    0    0  501 -0.00000000000E+00 -0.00000000000E+00 -0.26125946311E+03  0.26125946312E+03  0.25500000000E-02 0.  1.
    8880023    1    1    2    0    0 -0.76686838116E+01  0.76495259508E+02  0.18221306784E+04  0.19390411932E+04  0.65864270000E+03 0. -1.
    8880022    1    1    2    0    0  0.76686838116E+01 -0.76495259508E+02 -0.16668317664E+03  0.23892523481E+03  0.15294330000E+03 0.  0.
<mgrwt>
<rscale>  0 0.47266497E+03</rscale>
<asrwt>0</asrwt>
<pdfrwt beam="1">  1        2 0.29487799E+00 0.66311427E+03</pdfrwt>
<pdfrwt beam="2">  1       -2 0.40193764E-01 0.66311427E+03</pdfrwt>
<totfact> 0.45307869E+01</totfact>
</mgrwt>
</event>
<event>
 4    2  0.2930016E-007  0.9476929E+03  0.7818608E-02  0.9453441E-01
          2   -1    0    0  501    0  0.00000000000E+00  0.00000000000E+00  0.22089350873E+04  0.22089350873E+04  0.25500000000E-02 0. -1.
         -2   -1    0    0    0  501 -0.00000000000E+00 -0.00000000000E+00 -0.33301127052E+03  0.33301127053E+03  0.25500000000E-02 0.  1.
    8880023    1    1    2    0    0 -0.48468601687E+03 -0.47894780578E+03  0.14225873472E+04  0.17093497308E+04  0.65864270000E+03 0. -1.
    8880022    1    1    2    0    0  0.48468601687E+03  0.47894780578E+03  0.45333646954E+03  0.83259662697E+03  0.15294330000E+03 0.  1.
<mgrwt>
<rscale>  0 0.87805183E+03</rscale>
<asrwt>0</asrwt>
<pdfrwt beam="1">  1        2 0.33983618E+00 0.94769285E+03</pdfrwt>
<pdfrwt beam="2">  1       -2 0.51232501E-01 0.94769285E+03</pdfrwt>
<totfact> 0.18613446E+01</totfact>
</mgrwt>
</event>
<event>
 4    2  0.2930016E-007  0.1283911E+04  0.7818608E-02  0.9079580E-01
          2   -1    0    0  501    0  0.00000000000E+00  0.00000000000E+00  0.12911041597E+04  0.12911041597E+04  0.25500000000E-02 0. -1.
         -2   -1    0    0    0  501 -0.00000000000E+00 -0.00000000000E+00 -0.12396135160E+04  0.12396135160E+04  0.25500000000E-02 0.  1.
    8880023    1    1    2    0    0  0.61109861162E+03  0.91715578468E+03  0.43223990748E+03  0.13547168672E+04  0.65864270000E+03 0.  0.
    8880022    1    1    2    0    0 -0.61109861162E+03 -0.91715578468E+03 -0.38074926380E+03  0.11760008084E+04  0.15294330000E+03 0.  0.
<mgrwt>
<rscale>  0 0.12387724E+04</rscale>
<asrwt>0</asrwt>
<pdfrwt beam="1">  1        2 0.19863141E+00 0.12839106E+04</pdfrwt>
<pdfrwt beam="2">  1       -2 0.19070977E+00 0.12839106E+04</pdfrwt>
<totfact> 0.24698153E+00</totfact>
</mgrwt>
</event>
<event>
 4    2  0.2930016E-007  0.8887296E+03  0.7818608E-02  0.9544372E-01
         -2   -1    0    0    0  501 -0.00000000000E+00  0.00000000000E+00  0.70447582400E+03  0.70447582400E+03  0.25500000000E-02 0.  1.
          2   -1    0    0  501    0  0.00000000000E+00 -0.00000000000E+00 -0.11235704329E+04  0.11235704329E+04  0.25500000000E-02 0. -1.
    8880023    1    1    2    0    0  0.44668113626E+03 -0.39560843293E+03 -0.71880311043E+03  0.11430302654E+04  0.65864270000E+03 0. -1.
    8880022    1    1    2    0    0 -0.44668113626E+03  0.39560843293E+03  0.29970850157E+03  0.68501599151E+03  0.15294330000E+03 0.  1.
<mgrwt>
<rscale>  0 0.81090038E+03</rscale>
<asrwt>0</asrwt>
<pdfrwt beam="1">  1        2 0.17285699E+00 0.88872959E+03</pdfrwt>
<pdfrwt beam="2">  1       -2 0.10838090E+00 0.88872959E+03</pdfrwt>
<totfact> 0.14400304E+01</totfact>
</mgrwt>
</event>
<event>
 4    2  0.3617984E-007  0.8628971E+03  0.7818608E-02  0.9588431E-01
          2   -1    0    0  501    0  0.00000000000E+00  0.00000000000E+00  0.95094372647E+03  0.95094372647E+03  0.25500000000E-02 0. -1.
         -2   -1    0    0    0  501 -0.00000000000E+00 -0.00000000000E+00 -0.16313976908E+04  0.16313976908E+04  0.25500000000E-02 0.  1.
    8880023    1    1    2    0    0 -0.55184085944E+03  0.79075368528E+02  0.68359140604E+03  0.11008581492E+04  0.65864270000E+03 0. -1.
    8880022    1    1    2    0    0  0.55184085944E+03 -0.79075368528E+02 -0.13640453703E+04  0.14814832680E+04  0.15294330000E+03 0.  0.
<mgrwt>
<rscale>  0 0.78066673E+03</rscale>
<asrwt>0</asrwt>
<pdfrwt beam="1">  1        2 0.14629904E+00 0.86289713E+03</pdfrwt>
<pdfrwt beam="2">  1       -2 0.25098426E+00 0.86289713E+03</pdfrwt>
<totfact> 0.17447591E+00</totfact>
</mgrwt>
</event>
<event>
 4    2  0.2930016E-007  0.7943985E+03  0.7818608E-02  0.9723041E-01
          2   -1    0    0  501    0  0.00000000000E+00  0.00000000000E+00  0.11854698328E+04  0.11854698328E+04  0.25500000000E-02 0. -1.
         -2   -1    0    0    0  501 -0.00000000000E+00 -0.00000000000E+00 -0.38026300486E+03  0.38026300487E+03  0.25500000000E-02 0.  1.
    8880023    1    1    2    0    0  0.43061111103E+03 -0.10877879660E+03  0.23802529289E+03  0.82929186771E+03  0.65864270000E+03 0.  0.
    8880022    1    1    2    0    0 -0.43061111103E+03  0.10877879660E+03  0.56718153503E+03  0.73644096995E+03  0.15294330000E+03 0.  0.
<mgrwt>
<rscale>  0 0.69661352E+03</rscale>
<asrwt>0</asrwt>
<pdfrwt beam="1">  1        2 0.18237997E+00 0.79439849E+03</pdfrwt>
<pdfrwt beam="2">  1       -2 0.58502002E-01 0.79439849E+03</pdfrwt>
<totfact> 0.53497629E+01</totfact>
</mgrwt>
</event>
<event>
 4    2  0.2930016E-007  0.1243142E+04  0.7818608E-02  0.9116285E-01
         -2   -1    0    0    0  501 -0.00000000000E+00  0.00000000000E+00  0.17284187773E+04  0.17284187773E+04  0.25500000000E-02 0.  1.
          2   -1    0    0  501    0  0.00000000000E+00 -0.00000000000E+00 -0.14250819047E+04  0.14250819047E+04  0.25500000000E-02 0. -1.
    8880023    1    1    2    0    0 -0.10069348238E+04  0.31252701843E+03 -0.90866625250E+03  0.15398296793E+04  0.65864270000E+03 0.  0.
    8880022    1    1    2    0    0  0.10069348238E+04 -0.31252701843E+03  0.12120031251E+04  0.16136710027E+04  0.15294330000E+03 0.  0.
<mgrwt>
<rscale>  0 0.11960907E+04</rscale>
<asrwt>0</asrwt>
<pdfrwt beam="1">  1        2 0.21924337E+00 0.12431416E+04</pdfrwt>
<pdfrwt beam="2">  1       -2 0.26591058E+00 0.12431416E+04</pdfrwt>
<totfact> 0.69555415E-01</totfact>
</mgrwt>
</event>
<event>
 4    2  0.2930016E-007  0.6909469E+03  0.7818608E-02  0.1003706E+00
         -2   -1    0    0    0  501 -0.00000000000E+00  0.00000000000E+00  0.25319586025E+03  0.25319586026E+03  0.25500000000E-02 0.  1.
          2   -1    0    0  501    0  0.00000000000E+00 -0.00000000000E+00 -0.13949833682E+04  0.13949833682E+04  0.25500000000E-02 0. -1.
    8880023    1    1    2    0    0 -0.11251128155E+03  0.17589393183E+03 -0.11983249873E+04  0.13832535722E+04  0.65864270000E+03 0. -1.
    8880022    1    1    2    0    0  0.11251128155E+03 -0.17589393183E+03  0.56537479328E+02  0.26492565621E+03  0.15294330000E+03 0.  0.
<mgrwt>
<rscale>  0 0.54054774E+03</rscale>
<asrwt>0</asrwt>
<pdfrwt beam="1">  1        2 0.21461282E+00 0.69094694E+03</pdfrwt>
<pdfrwt beam="2">  1       -2 0.38953210E-01 0.69094694E+03</pdfrwt>
<totfact> 0.92828637E+01</totfact>
</mgrwt>
</event>
<event>
 4    2  0.2930016E-007  0.7185636E+03  0.7818608E-02  0.9927477E-01
          2   -1    0    0  501    0  0.00000000000E+00  0.00000000000E+00  0.17344972758E+04  0.17344972758E+04  0.25500000000E-02 0. -1.
         -2   -1    0    0    0  501 -0.00000000000E+00 -0.00000000000E+00 -0.17364443687E+03  0.17364443689E+03  0.25500000000E-02 0.  1.
    8880023    1    1    2    0    0  0.11572192261E+03  0.26292934215E+03  0.13212534512E+04  0.15040094052E+04  0.65864270000E+03 0.  0.
    8880022    1    1    2    0    0 -0.11572192261E+03 -0.26292934215E+03  0.23959938768E+03  0.40413230745E+03  0.15294330000E+03 0.  0.
<mgrwt>
<rscale>  0 0.58947937E+03</rscale>
<asrwt>0</asrwt>
<pdfrwt beam="1">  1        2 0.26684573E+00 0.71856357E+03</pdfrwt>
<pdfrwt beam="2">  1       -2 0.26714530E-01 0.71856357E+03</pdfrwt>
<totfact> 0.12200038E+02</totfact>
</mgrwt>
</event>
<event>
 4    2  0.2930016E-007  0.6736402E+03  0.7818608E-02  0.1013177E+00
         -2   -1    0    0    0  501 -0.00000000000E+00  0.00000000000E+00  0.23176933802E+03  0.23176933803E+03  0.25500000000E-02 0.  1.
          2   -1    0    0  501    0  0.00000000000E+00 -0.00000000000E+00 -0.97203129467E+03  0.97203129467E+03  0.25500000000E-02 0. -1.
    8880023    1    1    2    0    0  0.14052708610E+03 -0.15265730561E+02 -0.73283338708E+03  0.99540739597E+03  0.65864270000E+03 0. -1.
    8880022    1    1    2    0    0 -0.14052708610E+03  0.15265730561E+02 -0.74285695706E+01  0.20839323674E+03  0.15294330000E+03 0.  0.
<mgrwt>
<rscale>  0 0.50231121E+03</rscale>
<asrwt>0</asrwt>
<pdfrwt beam="1">  1        2 0.14954327E+00 0.67364019E+03</pdfrwt>
<pdfrwt beam="2">  1       -2 0.35656822E-01 0.67364019E+03</pdfrwt>
<totfact> 0.19700707E+02</totfact>
</mgrwt>
</event>
<event>
 4    2  0.2930016E-007  0.7791021E+03  0.7818608E-02  0.9757950E-01
          2   -1    0    0  501    0  0.00000000000E+00  0.00000000000E+00  0.53830393354E+03  0.53830393355E+03  0.25500000000E-02 0. -1.
         -2   -1    0    0    0  501 -0.00000000000E+00 -0.00000000000E+00 -0.77405985573E+03  0.77405985573E+03  0.25500000000E-02 0.  1.
    8880023    1    1    2    0    0 -0.61213535579E+02  0.41163437184E+03 -0.35060384155E+03  0.85435543715E+03  0.65864270000E+03 0.  1.
    8880022    1    1    2    0    0  0.61213535579E+02 -0.41163437184E+03  0.11484791937E+03  0.45800835213E+03  0.15294330000E+03 0.  0.
<mgrwt>
<rscale>  0 0.67668829E+03</rscale>
<asrwt>0</asrwt>
<pdfrwt beam="1">  1        2 0.82815990E-01 0.77910215E+03</pdfrwt>
<pdfrwt beam="2">  1       -2 0.11908613E+00 0.77910215E+03</pdfrwt>
<totfact> 0.30871976E+01</totfact>
</mgrwt>
</event>
<event>
 4    2  0.2930016E-007  0.8093624E+03  0.7818608E-02  0.9690907E-01
          2   -1    0    0  501    0  0.00000000000E+00  0.00000000000E+00  0.40239432492E+04  0.40239432492E+04  0.25500000000E-02 0. -1.
         -2   -1    0    0    0  501 -0.00000000000E+00 -0.00000000000E+00 -0.16810470110E+03  0.16810470112E+03  0.25500000000E-02 0.  1.
    8880023    1    1    2    0    0 -0.36182143964E+03  0.30057036039E+03  0.34744203004E+04  0.35674450137E+04  0.65864270000E+03 0. -1.
    8880022    1    1    2    0    0  0.36182143964E+03 -0.30057036039E+03  0.38141824769E+03  0.62460293661E+03  0.15294330000E+03 0.  0.
<mgrwt>
<rscale>  0 0.71560800E+03</rscale>
<asrwt>0</asrwt>
<pdfrwt beam="1">  1        2 0.61906817E+00 0.80936240E+03</pdfrwt>
<pdfrwt beam="2">  1       -2 0.25862263E-01 0.80936240E+03</pdfrwt>
<totfact> 0.48140843E+00</totfact>
</mgrwt>
</event>
<event>
 4    2  0.2930016E-007  0.6656385E+03  0.7818608E-02  0.1019004E+00
          2   -1    0    0  501    0  0.00000000000E+00  0.00000000000E+00  0.24058345240E+04  0.24058345240E+04  0.25500000000E-02 0. -1.
         -2   -1    0    0    0  501 -0.00000000000E+00 -0.00000000000E+00 -0.25851658400E+03  0.25851658401E+03  0.25500000000E-02 0.  1.
    8880023    1    1    2    0    0 -0.72547930085E+02 -0.63254945826E+02  0.23204833860E+04  0.24140666398E+04  0.65864270000E+03 0. -1.
    8880022    1    1    2    0    0  0.72547930085E+02  0.63254945826E+02 -0.17316544601E+03  0.25028446823E+03  0.15294330000E+03 0.  0.
<mgrwt>
<rscale>  0 0.48047884E+03</rscale>
<asrwt>0</asrwt>
<pdfrwt beam="1">  1        2 0.37012839E+00 0.66563849E+03</pdfrwt>
<pdfrwt beam="2">  1       -2 0.39771782E-01 0.66563849E+03</pdfrwt>
<totfact> 0.24918696E+01</totfact>
</mgrwt>
</event>
<event>
 4    2  0.2930016E-007  0.6633554E+03  0.7818608E-02  0.1020955E+00
         -2   -1    0    0    0  501 -0.00000000000E+00  0.00000000000E+00  0.13991529609E+03  0.13991529611E+03  0.25500000000E-02 0.  1.
          2   -1    0    0  501    0  0.00000000000E+00 -0.00000000000E+00 -0.42307027659E+04  0.42307027659E+04  0.25500000000E-02 0. -1.
    8880023    1    1    2    0    0 -0.28813988533E+02 -0.73483886628E+02 -0.41390494855E+04  0.41918696279E+04  0.65864270000E+03 0. -1.
    8880022    1    1    2    0    0  0.28813988533E+02  0.73483886628E+02  0.48262015686E+02  0.17874843412E+03  0.15294330000E+03 0.  0.
<mgrwt>
<rscale>  0 0.47343578E+03</rscale>
<asrwt>0</asrwt>
<pdfrwt beam="1">  1        2 0.65087725E+00 0.66335536E+03</pdfrwt>
<pdfrwt beam="2">  1       -2 0.21525433E-01 0.66335536E+03</pdfrwt>
<totfact> 0.46697740E+00</totfact>
</mgrwt>
</event>
<event>
 4    2  0.3285108E-007  0.9068158E+03  0.7818608E-02  0.9515177E-01
         -2   -1    0    0    0  501 -0.00000000000E+00  0.00000000000E+00  0.89983510271E+03  0.89983510271E+03  0.25500000000E-02 0.  1.
          2   -1    0    0  501    0  0.00000000000E+00 -0.00000000000E+00 -0.16951356941E+04  0.16951356941E+04  0.25500000000E-02 0. -1.
    8880023    1    1    2    0    0 -0.51948637606E+03  0.34443948323E+03 -0.14293901444E+04  0.16927702277E+04  0.65864270000E+03 0.  0.
    8880022    1    1    2    0    0  0.51948637606E+03 -0.34443948323E+03  0.63408955308E+03  0.90220056908E+03  0.15294330000E+03 0.  0.
<mgrwt>
<rscale>  0 0.83174038E+03</rscale>
<asrwt>0</asrwt>
<pdfrwt beam="1">  1        2 0.26079011E+00 0.90681578E+03</pdfrwt>
<pdfrwt beam="2">  1       -2 0.13843617E+00 0.90681578E+03</pdfrwt>
<totfact> 0.36726875E+00</totfact>
</mgrwt>
</event>
<event>
 4    2  0.2930016E-007  0.7850186E+03  0.7818608E-02  0.9744178E-01
         -2   -1    0    0    0  501 -0.00000000000E+00  0.00000000000E+00  0.92802457094E+03  0.92802457094E+03  0.25500000000E-02 0.  1.
          2   -1    0    0  501    0  0.00000000000E+00 -0.00000000000E+00 -0.11055727513E+04  0.11055727513E+04  0.25500000000E-02 0. -1.
    8880023    1    1    2    0    0 -0.35360240801E+03 -0.23960249839E+03 -0.89138803333E+03  0.11877823254E+04  0.65864270000E+03 0. -1.
    8880022    1    1    2    0    0  0.35360240801E+03  0.23960249839E+03  0.71383985300E+03  0.84581499687E+03  0.15294330000E+03 0.  0.
<mgrwt>
<rscale>  0 0.68446311E+03</rscale>
<asrwt>0</asrwt>
<pdfrwt beam="1">  1        2 0.17008812E+00 0.78501862E+03</pdfrwt>
<pdfrwt beam="2">  1       -2 0.14277301E+00 0.78501862E+03</pdfrwt>
<totfact> 0.74857971E+00</totfact>
</mgrwt>
</event>
<event>
 4    2  0.2930016E-007  0.6701056E+03  0.7818608E-02  0.1015587E+00
          2   -1    0    0  501    0  0.00000000000E+00  0.00000000000E+00  0.76263194469E+03  0.76263194469E+03  0.25500000000E-02 0. -1.
         -2   -1    0    0    0  501 -0.00000000000E+00 -0.00000000000E+00 -0.40748897545E+03  0.40748897546E+03  0.25500000000E-02 0.  1.
    8880023    1    1    2    0    0 -0.83821985549E+02  0.90582149296E+02  0.56942271481E+03  0.87936550162E+03  0.65864270000E+03 0. -1.
    8880022    1    1    2    0    0  0.83821985549E+02 -0.90582149296E+02 -0.21427974556E+03  0.29075541853E+03  0.15294330000E+03 0.  0.
<mgrwt>
<rscale>  0 0.49313182E+03</rscale>
<asrwt>0</asrwt>
<pdfrwt beam="1">  1        2 0.11732799E+00 0.67010556E+03</pdfrwt>
<pdfrwt beam="2">  1       -2 0.62690612E-01 0.67010556E+03</pdfrwt>
<totfact> 0.88140738E+01</totfact>
</mgrwt>
</event>
<event>
 4    2  0.2930016E-007  0.7635986E+03  0.7818608E-02  0.9795879E-01
          2   -1    0    0  501    0  0.00000000000E+00  0.00000000000E+00  0.21306393665E+04  0.21306393665E+04  0.25500000000E-02 0. -1.
         -2   -1    0    0    0  501 -0.00000000000E+00 -0.00000000000E+00 -0.22708035814E+03  0.22708035815E+03  0.25500000000E-02 0.  1.
    8880023    1    1    2    0    0  0.29361096209E+03  0.25112786826E+03  0.17592889037E+04  0.19178582471E+04  0.65864270000E+03 0. -1.
    8880022    1    1    2    0    0 -0.29361096209E+03 -0.25112786826E+03  0.14427010469E+03  0.43986147751E+03  0.15294330000E+03 0.  0.
<mgrwt>
<rscale>  0 0.65584188E+03</rscale>
<asrwt>0</asrwt>
<pdfrwt beam="1">  1        2 0.32779066E+00 0.76359859E+03</pdfrwt>
<pdfrwt beam="2">  1       -2 0.34935441E-01 0.76359859E+03</pdfrwt>
<totfact> 0.44780561E+01</totfact>
</mgrwt>
</event>
<event>
 4    2  0.2930016E-007  0.8836453E+03  0.7818608E-02  0.9552813E-01
          2   -1    0    0  501    0  0.00000000000E+00  0.00000000000E+00  0.38682313870E+04  0.38682313870E+04  0.25500000000E-02 0. -1.
         -2   -1    0    0    0  501 -0.00000000000E+00 -0.00000000000E+00 -0.28446027593E+03  0.28446027594E+03  0.25500000000E-02 0.  1.
    8880023    1    1    2    0    0 -0.44455107354E+03 -0.38651409970E+03  0.34058366074E+04  0.35186008596E+04  0.65864270000E+03 0. -1.
    8880022    1    1    2    0    0  0.44455107354E+03  0.38651409970E+03  0.17793450359E+03  0.63409080331E+03  0.15294330000E+03 0.  0.
<mgrwt>
<rscale>  0 0.80499630E+03</rscale>
<asrwt>0</asrwt>
<pdfrwt beam="1">  1        2 0.59511252E+00 0.88364530E+03</pdfrwt>
<pdfrwt beam="2">  1       -2 0.43763120E-01 0.88364530E+03</pdfrwt>
<totfact> 0.23102579E+00</totfact>
</mgrwt>
</event>
<event>
 4    2  0.2930016E-007  0.7079384E+03  0.7818608E-02  0.9965738E-01
          2   -1    0    0  501    0  0.00000000000E+00  0.00000000000E+00  0.13421990120E+04  0.13421990120E+04  0.25500000000E-02 0. -1.
         -2   -1    0    0    0  501 -0.00000000000E+00 -0.00000000000E+00 -0.89198863106E+03  0.89198863106E+03  0.25500000000E-02 0.  1.
    8880023    1    1    2    0    0 -0.25002530991E+03 -0.69669970714E+02  0.12183427064E+04  0.14090903864E+04  0.65864270000E+03 0.  0.
    8880022    1    1    2    0    0  0.25002530991E+03  0.69669970714E+02 -0.76813232552E+03  0.82509725666E+03  0.15294330000E+03 0.  1.
<mgrwt>
<rscale>  0 0.57178445E+03</rscale>
<asrwt>0</asrwt>
<pdfrwt beam="1">  1        2 0.20649216E+00 0.70793839E+03</pdfrwt>
<pdfrwt beam="2">  1       -2 0.13722902E+00 0.70793839E+03</pdfrwt>
<totfact> 0.60821386E+00</totfact>
</mgrwt>
</event>
<event>
 4    2  0.2930016E-007  0.9097033E+03  0.7818608E-02  0.9510631E-01
          2   -1    0    0  501    0  0.00000000000E+00  0.00000000000E+00  0.14646460049E+04  0.14646460049E+04  0.25500000000E-02 0. -1.
         -2   -1    0    0    0  501 -0.00000000000E+00 -0.00000000000E+00 -0.10359796760E+04  0.10359796760E+04  0.25500000000E-02 0.  1.
    8880023    1    1    2    0    0  0.26939357970E+03 -0.56672477368E+03  0.11927963351E+04  0.15001077205E+04  0.65864270000E+03 0.  0.
    8880022    1    1    2    0    0 -0.26939357970E+03  0.56672477368E+03 -0.76413000616E+03  0.10005179605E+04  0.15294330000E+03 0.  0.
<mgrwt>
<rscale>  0 0.83504572E+03</rscale>
<asrwt>0</asrwt>
<pdfrwt beam="1">  1        2 0.22533015E+00 0.90970329E+03</pdfrwt>
<pdfrwt beam="2">  1       -2 0.15938149E+00 0.90970329E+03</pdfrwt>
<totfact> 0.33955968E+00</totfact>
</mgrwt>
</event>
<event>
 4    2  0.2930016E-007  0.1332665E+04  0.7818608E-02  0.9037852E-01
         -2   -1    0    0    0  501 -0.00000000000E+00  0.00000000000E+00  0.17078051904E+04  0.17078051904E+04  0.25500000000E-02 0.  1.
          2   -1    0    0  501    0  0.00000000000E+00 -0.00000000000E+00 -0.21716175334E+04  0.21716175334E+04  0.25500000000E-02 0. -1.
    8880023    1    1    2    0    0 -0.94115156740E+03  0.67558889470E+03 -0.17120229153E+04  0.21695666149E+04  0.65864270000E+03 0.  0.
    8880022    1    1    2    0    0  0.94115156740E+03 -0.67558889470E+03  0.12482105723E+04  0.17098561089E+04  0.15294330000E+03 0.  0.
<mgrwt>
<rscale>  0 0.12896011E+04</rscale>
<asrwt>0</asrwt>
<pdfrwt beam="1">  1        2 0.33409501E+00 0.13326653E+04</pdfrwt>
<pdfrwt beam="2">  1       -2 0.26273926E+00 0.13326653E+04</pdfrwt>
<totfact> 0.27522402E-01</totfact>
</mgrwt>
</event>
<event>
 4    2  0.2930016E-007  0.9128057E+03  0.7818608E-02  0.9505779E-01
          2   -1    0    0  501    0  0.00000000000E+00  0.00000000000E+00  0.29977979297E+04  0.29977979297E+04  0.25500000000E-02 0. -1.
         -2   -1    0    0    0  501 -0.00000000000E+00 -0.00000000000E+00 -0.36632731627E+03  0.36632731628E+03  0.25500000000E-02 0.  1.
    8880023    1    1    2    0    0  0.90390216313E+02 -0.62548678894E+03  0.25504419622E+04  0.27088684950E+04  0.65864270000E+03 0.  0.
    8880022    1    1    2    0    0 -0.90390216313E+02  0.62548678894E+03  0.81028651184E+02  0.65525675095E+03  0.15294330000E+03 0.  1.
<mgrwt>
<rscale>  0 0.83859081E+03</rscale>
<asrwt>0</asrwt>
<pdfrwt beam="1">  1        2 0.46119967E+00 0.91280574E+03</pdfrwt>
<pdfrwt beam="2">  1       -2 0.56358049E-01 0.91280574E+03</pdfrwt>
<totfact> 0.53476569E+00</totfact>
</mgrwt>
</event>
<event>
 4    2  0.2930016E-007  0.8950477E+03  0.7818608E-02  0.9534029E-01
          2   -1    0    0  501    0  0.00000000000E+00  0.00000000000E+00  0.11723493611E+04  0.11723493611E+04  0.25500000000E-02 0. -1.
         -2   -1    0    0    0  501 -0.00000000000E+00 -0.00000000000E+00 -0.80901627211E+03  0.80901627211E+03  0.25500000000E-02 0.  1.
    8880023    1    1    2    0    0  0.53324046418E+03  0.28801875800E+03  0.81475424107E+03  0.12103449414E+04  0.65864270000E+03 0. -1.
    8880022    1    1    2    0    0 -0.53324046418E+03 -0.28801875800E+03 -0.45142115209E+03  0.77102069179E+03  0.15294330000E+03 0.  0.
<mgrwt>
<rscale>  0 0.81820840E+03</rscale>
<asrwt>0</asrwt>
<pdfrwt beam="1">  1        2 0.18036144E+00 0.89504771E+03</pdfrwt>
<pdfrwt beam="2">  1       -2 0.12446404E+00 0.89504771E+03</pdfrwt>
<totfact> 0.95642256E+00</totfact>
</mgrwt>
</event>
<event>
 4    2  0.2930016E-007  0.1310591E+04  0.7818608E-02  0.9056467E-01
          2   -1    0    0  501    0  0.00000000000E+00  0.00000000000E+00  0.26135658759E+04  0.26135658759E+04  0.25500000000E-02 0. -1.
         -2   -1    0    0    0  501 -0.00000000000E+00 -0.00000000000E+00 -0.81614594237E+03  0.81614594237E+03  0.25500000000E-02 0.  1.
    8880023    1    1    2    0    0 -0.10887782824E+04 -0.31368852696E+03  0.18706005589E+04  0.22840304939E+04  0.65864270000E+03 0. -1.
    8880022    1    1    2    0    0  0.10887782824E+04  0.31368852696E+03 -0.73180625320E+02  0.11456813244E+04  0.15294330000E+03 0.  0.
<mgrwt>
<rscale>  0 0.12666144E+04</rscale>
<asrwt>0</asrwt>
<pdfrwt beam="1">  1        2 0.40208706E+00 0.13105910E+04</pdfrwt>
<pdfrwt beam="2">  1       -2 0.12556091E+00 0.13105910E+04</pdfrwt>
<totfact> 0.13720243E+00</totfact>
</mgrwt>
</event>
<event>
 4    2  0.2930016E-007  0.6713734E+03  0.7818608E-02  0.1014697E+00
          2   -1    0    0  501    0  0.00000000000E+00  0.00000000000E+00  0.38730270925E+04  0.38730270925E+04  0.25500000000E-02 0. -1.
         -2   -1    0    0    0  501 -0.00000000000E+00 -0.00000000000E+00 -0.10328892920E+03  0.10328892923E+03  0.25500000000E-02 0.  1.
    8880023    1    1    2    0    0 -0.10700539430E+01  0.13011884482E+03  0.37049900306E+04  0.37653277934E+04  0.65864270000E+03 0. -1.
    8880022    1    1    2    0    0  0.10700539430E+01 -0.13011884482E+03  0.64748132734E+02  0.21098822834E+03  0.15294330000E+03 0.  0.
<mgrwt>
<rscale>  0 0.49649876E+03</rscale>
<asrwt>0</asrwt>
<pdfrwt beam="1">  1        2 0.59585023E+00 0.67137342E+03</pdfrwt>
<pdfrwt beam="2">  1       -2 0.15890607E-01 0.67137342E+03</pdfrwt>
<totfact> 0.15240845E+01</totfact>
</mgrwt>
</event>
<event>
 4    2  0.2930016E-007  0.8274416E+03  0.7818608E-02  0.9654331E-01
          2   -1    0    0  501    0  0.00000000000E+00  0.00000000000E+00  0.15513213063E+04  0.15513213063E+04  0.25500000000E-02 0. -1.
         -2   -1    0    0    0  501 -0.00000000000E+00 -0.00000000000E+00 -0.85061156637E+03  0.85061156638E+03  0.25500000000E-02 0.  1.
    8880023    1    1    2    0    0  0.11424098945E+03  0.48764571508E+03  0.13404008834E+04  0.15752250892E+04  0.65864270000E+03 0. -1.
    8880022    1    1    2    0    0 -0.11424098945E+03 -0.48764571508E+03 -0.63969114352E+03  0.82670778345E+03  0.15294330000E+03 0.  0.
<mgrwt>
<rscale>  0 0.73802241E+03</rscale>
<asrwt>0</asrwt>
<pdfrwt beam="1">  1        2 0.23866482E+00 0.82744157E+03</pdfrwt>
<pdfrwt beam="2">  1       -2 0.13086332E+00 0.82744157E+03</pdfrwt>
<totfact> 0.51487481E+00</totfact>
</mgrwt>
</event>
<event>
 4    2  0.2930016E-007  0.6889144E+03  0.7818608E-02  0.1004673E+00
         -2   -1    0    0    0  501 -0.00000000000E+00  0.00000000000E+00  0.12032047166E+03  0.12032047169E+03  0.25500000000E-02 0.  1.
          2   -1    0    0  501    0  0.00000000000E+00 -0.00000000000E+00 -0.40810383869E+04  0.40810383869E+04  0.25500000000E-02 0. -1.
    8880023    1    1    2    0    0 -0.18905270118E+03 -0.71076675297E+02 -0.38721811808E+04  0.39329874295E+04  0.65864270000E+03 0.  0.
    8880022    1    1    2    0    0  0.18905270118E+03  0.71076675297E+02 -0.88536734493E+02  0.26837142912E+03  0.15294330000E+03 0.  1.
<mgrwt>
<rscale>  0 0.53647895E+03</rscale>
<asrwt>0</asrwt>
<pdfrwt beam="1">  1        2 0.62785195E+00 0.68891438E+03</pdfrwt>
<pdfrwt beam="2">  1       -2 0.18510845E-01 0.68891438E+03</pdfrwt>
<totfact> 0.80397851E+00</totfact>
</mgrwt>
</event>
<event>
 4    2  0.2930016E-007  0.7960603E+03  0.7818608E-02  0.9719380E-01
          2   -1    0    0  501    0  0.00000000000E+00  0.00000000000E+00  0.59717169578E+03  0.59717169579E+03  0.25500000000E-02 0. -1.
         -2   -1    0    0    0  501 -0.00000000000E+00 -0.00000000000E+00 -0.85853408288E+03  0.85853408289E+03  0.25500000000E-02 0.  1.
    8880023    1    1    2    0    0  0.30904179733E+02  0.44603447616E+03  0.17212159052E+03  0.81445556689E+03  0.65864270000E+03 0. -1.
    8880022    1    1    2    0    0 -0.30904179733E+02 -0.44603447616E+03 -0.43348397762E+03  0.64125021179E+03  0.15294330000E+03 0.  0.
<mgrwt>
<rscale>  0 0.69874544E+03</rscale>
<asrwt>0</asrwt>
<pdfrwt beam="1">  1        2 0.91872568E-01 0.79606032E+03</pdfrwt>
<pdfrwt beam="2">  1       -2 0.13208217E+00 0.79606032E+03</pdfrwt>
<totfact> 0.21001343E+01</totfact>
</mgrwt>
</event>
<event>
 4    2  0.2930016E-007  0.6949099E+03  0.7818608E-02  0.1001901E+00
          2   -1    0    0  501    0  0.00000000000E+00  0.00000000000E+00  0.33591503510E+04  0.33591503510E+04  0.25500000000E-02 0. -1.
         -2   -1    0    0    0  501 -0.00000000000E+00 -0.00000000000E+00 -0.16766790935E+03  0.16766790937E+03  0.25500000000E-02 0.  1.
    8880023    1    1    2    0    0 -0.76505647867E+02 -0.20793365157E+03  0.31824582161E+04  0.32574437863E+04  0.65864270000E+03 0. -1.
    8880022    1    1    2    0    0  0.76505647867E+02  0.20793365157E+03  0.90242255726E+01  0.26937447406E+03  0.15294330000E+03 0.  0.
<mgrwt>
<rscale>  0 0.54824478E+03</rscale>
<asrwt>0</asrwt>
<pdfrwt beam="1">  1        2 0.51679229E+00 0.69490987E+03</pdfrwt>
<pdfrwt beam="2">  1       -2 0.25795066E-01 0.69490987E+03</pdfrwt>
<totfact> 0.14916896E+01</totfact>
</mgrwt>
</event>
<event>
 4    2  0.2930016E-007  0.1691494E+04  0.7818608E-02  0.8785058E-01
         -2   -1    0    0    0  501 -0.00000000000E+00  0.00000000000E+00  0.17511469264E+04  0.17511469264E+04  0.25500000000E-02 0.  1.
          2   -1    0    0  501    0  0.00000000000E+00 -0.00000000000E+00 -0.20381865782E+04  0.20381865782E+04  0.25500000000E-02 0. -1.
    8880023    1    1    2    0    0 -0.15368568808E+03 -0.15503943973E+04 -0.11075717468E+04  0.20218475359E+04  0.65864270000E+03 0.  0.
    8880022    1    1    2    0    0  0.15368568808E+03  0.15503943973E+04  0.82053209498E+03  0.17674859688E+04  0.15294330000E+03 0.  0.
<mgrwt>
<rscale>  0 0.16590707E+04</rscale>
<asrwt>0</asrwt>
<pdfrwt beam="1">  1        2 0.31356717E+00 0.16914941E+04</pdfrwt>
<pdfrwt beam="2">  1       -2 0.26940722E+00 0.16914941E+04</pdfrwt>
<totfact> 0.28554008E-01</totfact>
</mgrwt>
</event>
<event>
 4    2  0.2930016E-007  0.7848182E+03  0.7818608E-02  0.9744638E-01
          2   -1    0    0  501    0  0.00000000000E+00  0.00000000000E+00  0.84336774472E+03  0.84336774473E+03  0.25500000000E-02 0. -1.
         -2   -1    0    0    0  501 -0.00000000000E+00 -0.00000000000E+00 -0.84307994060E+03  0.84307994061E+03  0.25500000000E-02 0.  1.
    8880023    1    1    2    0    0 -0.42676539469E+03  0.83952371818E+00  0.56150454591E+03  0.96500101982E+03  0.65864270000E+03 0.  0.
    8880022    1    1    2    0    0  0.42676539469E+03 -0.83952371818E+00 -0.56121674179E+03  0.72144666552E+03  0.15294330000E+03 0.  0.
<mgrwt>
<rscale>  0 0.68420122E+03</rscale>
<asrwt>0</asrwt>
<pdfrwt beam="1">  1        2 0.12974888E+00 0.78481820E+03</pdfrwt>
<pdfrwt beam="2">  1       -2 0.12970461E+00 0.78481820E+03</pdfrwt>
<totfact> 0.14178629E+01</totfact>
</mgrwt>
</event>
<event>
 4    2  0.2930016E-007  0.6689138E+03  0.7818608E-02  0.1016454E+00
         -2   -1    0    0    0  501 -0.00000000000E+00  0.00000000000E+00  0.43710679127E+03  0.43710679128E+03  0.25500000000E-02 0.  1.
          2   -1    0    0  501    0  0.00000000000E+00 -0.00000000000E+00 -0.11559189080E+04  0.11559189080E+04  0.25500000000E-02 0. -1.
    8880023    1    1    2    0    0 -0.70362885253E+01 -0.11655866208E+03 -0.10294095689E+04  0.12276521078E+04  0.65864270000E+03 0. -1.
    8880022    1    1    2    0    0  0.70362885253E+01  0.11655866208E+03  0.31059745213E+03  0.36537359148E+03  0.15294330000E+03 0.  0.
<mgrwt>
<rscale>  0 0.48988320E+03</rscale>
<asrwt>0</asrwt>
<pdfrwt beam="1">  1        2 0.17783368E+00 0.66891377E+03</pdfrwt>
<pdfrwt beam="2">  1       -2 0.67247199E-01 0.66891377E+03</pdfrwt>
<totfact> 0.41909103E+01</totfact>
</mgrwt>
</event>
<event>
 4    2  0.2930016E-007  0.1214936E+04  0.7818608E-02  0.9142739E-01
         -2   -1    0    0    0  501 -0.00000000000E+00  0.00000000000E+00  0.84311649460E+03  0.84311649460E+03  0.25500000000E-02 0.  1.
          2   -1    0    0  501    0  0.00000000000E+00 -0.00000000000E+00 -0.17510747876E+04  0.17510747876E+04  0.25500000000E-02 0. -1.
    8880023    1    1    2    0    0  0.69722780437E+03 -0.74574239039E+03 -0.97778458714E+03  0.15595291691E+04  0.65864270000E+03 0.  0.
    8880022    1    1    2    0    0 -0.69722780437E+03  0.74574239039E+03  0.69826294142E+02  0.10346621131E+04  0.15294330000E+03 0.  0.
<mgrwt>
<rscale>  0 0.11664517E+04</rscale>
<asrwt>0</asrwt>
<pdfrwt beam="1">  1        2 0.26939612E+00 0.12149356E+04</pdfrwt>
<pdfrwt beam="2">  1       -2 0.12971023E+00 0.12149356E+04</pdfrwt>
<totfact> 0.39026285E+00</totfact>
</mgrwt>
</event>
<event>
 4    2  0.2930016E-007  0.7188394E+03  0.7818608E-02  0.9926533E-01
         -2   -1    0    0    0  501 -0.00000000000E+00  0.00000000000E+00  0.10478061803E+03  0.10478061806E+03  0.25500000000E-02 0.  1.
          2   -1    0    0  501    0  0.00000000000E+00 -0.00000000000E+00 -0.30376907568E+04  0.30376907568E+04  0.25500000000E-02 0. -1.
    8880023    1    1    2    0    0 -0.18457244190E+02  0.28736600135E+03 -0.24951148832E+04  0.25965993867E+04  0.65864270000E+03 0. -1.
    8880022    1    1    2    0    0  0.18457244190E+02 -0.28736600135E+03 -0.43779525557E+03  0.54587198812E+03  0.15294330000E+03 0.  0.
<mgrwt>
<rscale>  0 0.58992454E+03</rscale>
<asrwt>0</asrwt>
<pdfrwt beam="1">  1        2 0.46733697E+00 0.71883941E+03</pdfrwt>
<pdfrwt beam="2">  1       -2 0.16120097E-01 0.71883941E+03</pdfrwt>
<totfact> 0.54245681E+01</totfact>
</mgrwt>
</event>
<event>
 4    2  0.2930016E-007  0.7017400E+03  0.7818608E-02  0.9990058E-01
         -2   -1    0    0    0  501 -0.00000000000E+00  0.00000000000E+00  0.11078173768E+04  0.11078173769E+04  0.25500000000E-02 0.  1.
          2   -1    0    0  501    0  0.00000000000E+00 -0.00000000000E+00 -0.54977961626E+03  0.54977961626E+03  0.25500000000E-02 0. -1.
    8880023    1    1    2    0    0  0.22792358745E+03  0.81729584015E+02 -0.29240740434E+03  0.76022442936E+03  0.65864270000E+03 0. -1.
    8880022    1    1    2    0    0 -0.22792358745E+03 -0.81729584015E+02  0.85044516493E+03  0.89737256376E+03  0.15294330000E+03 0.  0.
<mgrwt>
<rscale>  0 0.56088332E+03</rscale>
<asrwt>0</asrwt>
<pdfrwt beam="1">  1        2 0.84581480E-01 0.70174005E+03</pdfrwt>
<pdfrwt beam="2">  1       -2 0.17043344E+00 0.70174005E+03</pdfrwt>
<totfact> 0.11900832E+01</totfact>
</mgrwt>
</event>
<event>
 4    2  0.2930016E-007  0.8444540E+03  0.7818608E-02  0.9621838E-01
         -2   -1    0    0    0  501 -0.00000000000E+00  0.00000000000E+00  0.87468213248E+03  0.87468213248E+03  0.25500000000E-02 0.  1.
          2   -1    0    0  501    0  0.00000000000E+00 -0.00000000000E+00 -0.76843072231E+03  0.76843072231E+03  0.25500000000E-02 0. -1.
    8880023    1    1    2    0    0 -0.52727005011E+03 -0.35757763367E+02 -0.36380312553E+03  0.91948640218E+03  0.65864270000E+03 0. -1.
    8880022    1    1    2    0    0  0.52727005011E+03  0.35757763367E+02  0.47005453570E+03  0.72362645262E+03  0.15294330000E+03 0.  0.
<mgrwt>
<rscale>  0 0.75867482E+03</rscale>
<asrwt>0</asrwt>
<pdfrwt beam="1">  1        2 0.11822011E+00 0.84445398E+03</pdfrwt>
<pdfrwt beam="2">  1       -2 0.13456648E+00 0.84445398E+03</pdfrwt>
<totfact> 0.14533116E+01</totfact>
</mgrwt>
</event>
<event>
 4    2  0.2930016E-007  0.9504020E+03  0.7818608E-02  0.9449536E-01
         -2   -1    0    0    0  501 -0.00000000000E+00  0.00000000000E+00  0.60926625752E+03  0.60926625753E+03  0.25500000000E-02 0.  1.
          2   -1    0    0  501    0  0.00000000000E+00 -0.00000000000E+00 -0.18145037083E+04  0.18145037083E+04  0.25500000000E-02 0. -1.
    8880023    1    1    2    0    0 -0.14561893024E+02 -0.68501222640E+03 -0.14028326139E+04  0.16944625543E+04  0.65864270000E+03 0.  0.
    8880022    1    1    2    0    0  0.14561893024E+02  0.68501222640E+03  0.19759516310E+03  0.72930741155E+03  0.15294330000E+03 0.  0.
<mgrwt>
<rscale>  0 0.88108815E+03</rscale>
<asrwt>0</asrwt>
<pdfrwt beam="1">  1        2 0.27915441E+00 0.95040202E+03</pdfrwt>
<pdfrwt beam="2">  1       -2 0.93733271E-01 0.95040202E+03</pdfrwt>
<totfact> 0.81818131E+00</totfact>
</mgrwt>
</event>
<event>
 4    2  0.2930016E-007  0.9761967E+03  0.7818608E-02  0.9413384E-01
          2   -1    0    0  501    0  0.00000000000E+00  0.00000000000E+00  0.12731198616E+04  0.12731198616E+04  0.25500000000E-02 0. -1.
         -2   -1    0    0    0  501 -0.00000000000E+00 -0.00000000000E+00 -0.11425939170E+04  0.11425939170E+04  0.25500000000E-02 0.  1.
    8880023    1    1    2    0    0  0.71976690781E+03  0.32943927626E+02  0.91617395763E+03  0.13387810242E+04  0.65864270000E+03 0.  0.
    8880022    1    1    2    0    0 -0.71976690781E+03 -0.32943927626E+02 -0.78564801306E+03  0.10769327543E+04  0.15294330000E+03 0.  0.
<mgrwt>
<rscale>  0 0.90982338E+03</rscale>
<asrwt>0</asrwt>
<pdfrwt beam="1">  1        2 0.19586459E+00 0.97619666E+03</pdfrwt>
<pdfrwt beam="2">  1       -2 0.17578368E+00 0.97619666E+03</pdfrwt>
<totfact> 0.33065885E+00</totfact>
</mgrwt>
</event>
<event>
 4    2  0.2930016E-007  0.9600422E+03  0.7818608E-02  0.9435810E-01
          2   -1    0    0  501    0  0.00000000000E+00  0.00000000000E+00  0.27140711092E+04  0.27140711092E+04  0.25500000000E-02 0. -1.
         -2   -1    0    0    0  501 -0.00000000000E+00 -0.00000000000E+00 -0.49591919192E+03  0.49591919193E+03  0.25500000000E-02 0.  1.
    8880023    1    1    2    0    0 -0.52841102156E+03  0.45678506444E+03  0.22980393445E+04  0.24905151752E+04  0.65864270000E+03 0.  0.
    8880022    1    1    2    0    0  0.52841102156E+03 -0.45678506444E+03 -0.79887427204E+02  0.71947512594E+03  0.15294330000E+03 0.  0.
<mgrwt>
<rscale>  0 0.89186316E+03</rscale>
<asrwt>0</asrwt>
<pdfrwt beam="1">  1        2 0.41754939E+00 0.96004219E+03</pdfrwt>
<pdfrwt beam="2">  1       -2 0.76295262E-01 0.96004219E+03</pdfrwt>
<totfact> 0.40867983E+00</totfact>
</mgrwt>
</event>
<event>
 4    2  0.2930016E-007  0.8644282E+03  0.7818608E-02  0.9585735E-01
         -2   -1    0    0    0  501 -0.00000000000E+00  0.00000000000E+00  0.53018766716E+03  0.53018766717E+03  0.25500000000E-02 0.  1.
          2   -1    0    0  501    0  0.00000000000E+00 -0.00000000000E+00 -0.10350247068E+04  0.10350247068E+04  0.25500000000E-02 0. -1.
    8880023    1    1    2    0    0  0.73217558142E+02  0.55503606835E+03 -0.12954377207E+03  0.87408102779E+03  0.65864270000E+03 0.  0.
    8880022    1    1    2    0    0 -0.73217558142E+02 -0.55503606835E+03 -0.37529326759E+03  0.69113134620E+03  0.15294330000E+03 0.  0.
<mgrwt>
<rscale>  0 0.78247598E+03</rscale>
<asrwt>0</asrwt>
<pdfrwt beam="1">  1        2 0.15923457E+00 0.86442817E+03</pdfrwt>
<pdfrwt beam="2">  1       -2 0.81567334E-01 0.86442817E+03</pdfrwt>
<totfact> 0.31845603E+01</totfact>
</mgrwt>
</event>
<event>
 4    2  0.2930016E-007  0.9918117E+03  0.7818608E-02  0.9392350E-01
          2   -1    0    0  501    0  0.00000000000E+00  0.00000000000E+00  0.58881927019E+03  0.58881927020E+03  0.25500000000E-02 0. -1.
         -2   -1    0    0    0  501 -0.00000000000E+00 -0.00000000000E+00 -0.21781702739E+04  0.21781702739E+04  0.25500000000E-02 0.  1.
    8880023    1    1    2    0    0 -0.33052841998E+03  0.66380061556E+03  0.16114538089E+02  0.99194262850E+03  0.65864270000E+03 0.  0.
    8880022    1    1    2    0    0  0.33052841998E+03 -0.66380061556E+03 -0.16054655417E+04  0.17750469155E+04  0.15294330000E+03 0.  0.
<mgrwt>
<rscale>  0 0.92707958E+03</rscale>
<asrwt>0</asrwt>
<pdfrwt beam="1">  1        2 0.90587581E-01 0.99181173E+03</pdfrwt>
<pdfrwt beam="2">  1       -2 0.33510311E+00 0.99181173E+03</pdfrwt>
<totfact> 0.99128744E-01</totfact>
</mgrwt>
</event>
<event>
 4    2  0.2930016E-007  0.7278180E+03  0.7818608E-02  0.9896969E-01
          2   -1    0    0  501    0  0.00000000000E+00  0.00000000000E+00  0.10877029895E+04  0.10877029895E+04  0.25500000000E-02 0. -1.
         -2   -1    0    0    0  501 -0.00000000000E+00 -0.00000000000E+00 -0.29034886926E+03  0.29034886927E+03  0.25500000000E-02 0.  1.
    8880023    1    1    2    0    0  0.30359469963E+03 -0.61148302075E+02  0.72065864196E+03  0.10242401774E+04  0.65864270000E+03 0.  0.
    8880022    1    1    2    0    0 -0.30359469963E+03  0.61148302075E+02  0.76695478288E+02  0.35381168140E+03  0.15294330000E+03 0.  0.
<mgrwt>
<rscale>  0 0.60408408E+03</rscale>
<asrwt>0</asrwt>
<pdfrwt beam="1">  1        2 0.16733892E+00 0.72781801E+03</pdfrwt>
<pdfrwt beam="2">  1       -2 0.44669057E-01 0.72781801E+03</pdfrwt>
<totfact> 0.10702335E+02</totfact>
</mgrwt>
</event>
<event>
 4    2  0.2930016E-007  0.6913575E+03  0.7818608E-02  0.1003514E+00
         -2   -1    0    0    0  501 -0.00000000000E+00  0.00000000000E+00  0.53858100755E+03  0.53858100755E+03  0.25500000000E-02 0.  1.
          2   -1    0    0  501    0  0.00000000000E+00 -0.00000000000E+00 -0.21218547826E+04  0.21218547826E+04  0.25500000000E-02 0. -1.
    8880023    1    1    2    0    0 -0.20600805996E+03  0.41540429611E+02 -0.20295027556E+04  0.21440281177E+04  0.65864270000E+03 0. -1.
    8880022    1    1    2    0    0  0.20600805996E+03 -0.41540429611E+02  0.44622898058E+03  0.51640767247E+03  0.15294330000E+03 0.  0.
<mgrwt>
<rscale>  0 0.54135911E+03</rscale>
<asrwt>0</asrwt>
<pdfrwt beam="1">  1        2 0.32643919E+00 0.69135746E+03</pdfrwt>
<pdfrwt beam="2">  1       -2 0.82858618E-01 0.69135746E+03</pdfrwt>
<totfact> 0.76519322E+00</totfact>
</mgrwt>
</event>
<event>
 4    2  0.2930016E-007  0.8036320E+03  0.7818608E-02  0.9702997E-01
          2   -1    0    0  501    0  0.00000000000E+00  0.00000000000E+00  0.14873212520E+04  0.14873212520E+04  0.25500000000E-02 0. -1.
         -2   -1    0    0    0  501 -0.00000000000E+00 -0.00000000000E+00 -0.40021713681E+03  0.40021713682E+03  0.25500000000E-02 0.  1.
    8880023    1    1    2    0    0 -0.34633714850E+03  0.30342177898E+03  0.11450379742E+04  0.13989054167E+04  0.65864270000E+03 0. -1.
    8880022    1    1    2    0    0  0.34633714850E+03 -0.30342177898E+03 -0.57933858972E+02  0.48863297210E+03  0.15294330000E+03 0.  0.
<mgrwt>
<rscale>  0 0.70838617E+03</rscale>
<asrwt>0</asrwt>
<pdfrwt beam="1">  1        2 0.22881866E+00 0.80363201E+03</pdfrwt>
<pdfrwt beam="2">  1       -2 0.61571867E-01 0.80363201E+03</pdfrwt>
<totfact> 0.32174431E+01</totfact>
</mgrwt>
</event>
<event>
 4    2  0.2930016E-007  0.1258969E+04  0.7818608E-02  0.9101828E-01
         -2   -1    0    0    0  501 -0.00000000000E+00  0.00000000000E+00  0.56762311861E+03  0.56762311861E+03  0.25500000000E-02 0.  1.
          2   -1    0    0  501    0  0.00000000000E+00 -0.00000000000E+00 -0.37261809200E+04  0.37261809200E+04  0.25500000000E-02 0. -1.
    8880023    1    1    2    0    0  0.69086722899E+03  0.82091162453E+03 -0.29259958291E+04  0.31853500940E+04  0.65864270000E+03 0. -1.
    8880022    1    1    2    0    0 -0.69086722899E+03 -0.82091162453E+03 -0.23256197235E+03  0.11084539446E+04  0.15294330000E+03 0.  0.
<mgrwt>
<rscale>  0 0.12126819E+04</rscale>
<asrwt>0</asrwt>
<pdfrwt beam="1">  1        2 0.57325859E+00 0.12589693E+04</pdfrwt>
<pdfrwt beam="2">  1       -2 0.87326636E-01 0.12589693E+04</pdfrwt>
<totfact> 0.63164148E-01</totfact>
</mgrwt>
</event>
<event>
 4    2  0.2930016E-007  0.1136233E+04  0.7818608E-02  0.9221749E-01
          2   -1    0    0  501    0  0.00000000000E+00  0.00000000000E+00  0.17044641328E+04  0.17044641328E+04  0.25500000000E-02 0. -1.
         -2   -1    0    0    0  501 -0.00000000000E+00 -0.00000000000E+00 -0.87340403328E+03  0.87340403329E+03  0.25500000000E-02 0.  1.
    8880023    1    1    2    0    0  0.90958270834E+03 -0.17283934593E+03 -0.23221029726E+03  0.11597180568E+04  0.65864270000E+03 0.  0.
    8880022    1    1    2    0    0 -0.90958270834E+03  0.17283934593E+03  0.10632703967E+04  0.14181501093E+04  0.15294330000E+03 0.  0.
<mgrwt>
<rscale>  0 0.10831737E+04</rscale>
<asrwt>0</asrwt>
<pdfrwt beam="1">  1        2 0.26222525E+00 0.11362325E+04</pdfrwt>
<pdfrwt beam="2">  1       -2 0.13436985E+00 0.11362325E+04</pdfrwt>
<totfact> 0.38148640E+00</totfact>
</mgrwt>
</event>
<event>
 4    2  0.2930016E-007  0.6700660E+03  0.7818608E-02  0.1015616E+00
         -2   -1    0    0    0  501 -0.00000000000E+00  0.00000000000E+00  0.38314561948E+03  0.38314561949E+03  0.25500000000E-02 0.  1.
          2   -1    0    0  501    0  0.00000000000E+00 -0.00000000000E+00 -0.29919981903E+04  0.29919981903E+04  0.25500000000E-02 0. -1.
    8880023    1    1    2    0    0 -0.22912245676E+01 -0.12317892048E+03 -0.29262020850E+04  0.30019405631E+04  0.65864270000E+03 0. -1.
    8880022    1    1    2    0    0  0.22912245676E+01  0.12317892048E+03  0.31734951416E+03  0.37320324665E+03  0.15294330000E+03 0.  0.
<mgrwt>
<rscale>  0 0.49302545E+03</rscale>
<asrwt>0</asrwt>
<pdfrwt beam="1">  1        2 0.46030740E+00 0.67006604E+03</pdfrwt>
<pdfrwt beam="2">  1       -2 0.58945482E-01 0.67006604E+03</pdfrwt>
<totfact> 0.51307791E+00</totfact>
</mgrwt>
</event>
<event>
 4    2  0.2930016E-007  0.1524844E+04  0.7818608E-02  0.8892289E-01
         -2   -1    0    0    0  501 -0.00000000000E+00  0.00000000000E+00  0.27053056874E+04  0.27053056874E+04  0.25500000000E-02 0.  1.
          2   -1    0    0  501    0  0.00000000000E+00 -0.00000000000E+00 -0.21957205740E+04  0.21957205740E+04  0.25500000000E-02 0. -1.
    8880023    1    1    2    0    0 -0.28519149968E+03  0.13453644498E+04 -0.17064352219E+04  0.22884647839E+04  0.65864270000E+03 0. -1.
    8880022    1    1    2    0    0  0.28519149968E+03 -0.13453644498E+04  0.22160203353E+04  0.26125614775E+04  0.15294330000E+03 0.  0.
<mgrwt>
<rscale>  0 0.14882730E+04</rscale>
<asrwt>0</asrwt>
<pdfrwt beam="1">  1        2 0.33780317E+00 0.15248442E+04</pdfrwt>
<pdfrwt beam="2">  1       -2 0.41620087E+00 0.15248442E+04</pdfrwt>
<totfact> 0.28228719E-02</totfact>
</mgrwt>
</event>
<event>
 4    2  0.2930016E-007  0.9071841E+03  0.7818608E-02  0.9514596E-01
         -2   -1    0    0    0  501 -0.00000000000E+00  0.00000000000E+00  0.42454940396E+03  0.42454940397E+03  0.25500000000E-02 0.  1.
          2   -1    0    0  501    0  0.00000000000E+00 -0.00000000000E+00 -0.18214291399E+04  0.18214291399E+04  0.25500000000E-02 0. -1.
    8880023    1    1    2    0    0 -0.14064810523E+03 -0.60777536006E+03 -0.13162980555E+04  0.15986317759E+04  0.65864270000E+03 0. -1.
    8880022    1    1    2    0    0  0.14064810523E+03  0.60777536006E+03 -0.80581680502E+02  0.64734676801E+03  0.15294330000E+03 0.  0.
<mgrwt>
<rscale>  0 0.83216231E+03</rscale>
<asrwt>0</asrwt>
<pdfrwt beam="1">  1        2 0.28021986E+00 0.90718410E+03</pdfrwt>
<pdfrwt beam="2">  1       -2 0.65315294E-01 0.90718410E+03</pdfrwt>
<totfact> 0.18336472E+01</totfact>
</mgrwt>
</event>
<event>
 4    2  0.2930016E-007  0.8973429E+03  0.7818608E-02  0.9530311E-01
          2   -1    0    0  501    0  0.00000000000E+00  0.00000000000E+00  0.12369771638E+04  0.12369771638E+04  0.25500000000E-02 0. -1.
         -2   -1    0    0    0  501 -0.00000000000E+00 -0.00000000000E+00 -0.79055620329E+03  0.79055620330E+03  0.25500000000E-02 0.  1.
    8880023    1    1    2    0    0  0.20251659326E+03  0.57480523074E+03  0.88573296508E+03  0.12608517421E+04  0.65864270000E+03 0. -1.
    8880022    1    1    2    0    0 -0.20251659326E+03 -0.57480523074E+03 -0.43931200455E+03  0.76668162504E+03  0.15294330000E+03 0.  0.
<mgrwt>
<rscale>  0 0.82085555E+03</rscale>
<asrwt>0</asrwt>
<pdfrwt beam="1">  1        2 0.19030418E+00 0.89734287E+03</pdfrwt>
<pdfrwt beam="2">  1       -2 0.12162403E+00 0.89734287E+03</pdfrwt>
<totfact> 0.92731082E+00</totfact>
</mgrwt>
</event>
<event>
 4    2  0.2930016E-007  0.7680151E+03  0.7818608E-02  0.9784782E-01
          2   -1    0    0  501    0  0.00000000000E+00  0.00000000000E+00  0.91290847091E+03  0.91290847091E+03  0.25500000000E-02 0. -1.
         -2   -1    0    0    0  501 -0.00000000000E+00 -0.00000000000E+00 -0.11586415296E+04  0.11586415296E+04  0.25500000000E-02 0.  1.
    8880023    1    1    2    0    0  0.23024548953E+03  0.32097344451E+03  0.69755947332E+03  0.10375145120E+04  0.65864270000E+03 0. -1.
    8880022    1    1    2    0    0 -0.23024548953E+03 -0.32097344451E+03 -0.94329253202E+03  0.10340354885E+04  0.15294330000E+03 0.  0.
<mgrwt>
<rscale>  0 0.66185638E+03</rscale>
<asrwt>0</asrwt>
<pdfrwt beam="1">  1        2 0.14044746E+00 0.76801507E+03</pdfrwt>
<pdfrwt beam="2">  1       -2 0.17825254E+00 0.76801507E+03</pdfrwt>
<totfact> 0.54534717E+00</totfact>
</mgrwt>
</event>
<event>
 4    2  0.2930016E-007  0.8200154E+03  0.7818608E-02  0.9669081E-01
          2   -1    0    0  501    0  0.00000000000E+00  0.00000000000E+00  0.87080032436E+03  0.87080032436E+03  0.25500000000E-02 0. -1.
         -2   -1    0    0    0  501 -0.00000000000E+00 -0.00000000000E+00 -0.11698864876E+04  0.11698864876E+04  0.25500000000E-02 0.  1.
    8880023    1    1    2    0    0 -0.44213459130E+03 -0.20768252507E+03 -0.92235754083E+03  0.12341671959E+04  0.65864270000E+03 0.  0.
    8880022    1    1    2    0    0  0.44213459130E+03  0.20768252507E+03  0.62327137756E+03  0.80651961609E+03  0.15294330000E+03 0.  0.
<mgrwt>
<rscale>  0 0.72887918E+03</rscale>
<asrwt>0</asrwt>
<pdfrwt beam="1">  1        2 0.13396928E+00 0.82001539E+03</pdfrwt>
<pdfrwt beam="2">  1       -2 0.17998254E+00 0.82001539E+03</pdfrwt>
<totfact> 0.56296724E+00</totfact>
</mgrwt>
</event>
<event>
 4    2  0.2930016E-007  0.7291330E+03  0.7818608E-02  0.9892814E-01
         -2   -1    0    0    0  501 -0.00000000000E+00  0.00000000000E+00  0.20857980069E+03  0.20857980070E+03  0.25500000000E-02 0.  1.
          2   -1    0    0  501    0  0.00000000000E+00 -0.00000000000E+00 -0.22030867772E+04  0.22030867772E+04  0.25500000000E-02 0. -1.
    8880023    1    1    2    0    0  0.25574631509E+02  0.31172215245E+03 -0.19225190358E+04  0.20561406594E+04  0.65864270000E+03 0. -1.
    8880022    1    1    2    0    0 -0.25574631509E+02 -0.31172215245E+03 -0.71987940747E+02  0.35552591851E+03  0.15294330000E+03 0.  0.
<mgrwt>
<rscale>  0 0.60610834E+03</rscale>
<asrwt>0</asrwt>
<pdfrwt beam="1">  1        2 0.33893641E+00 0.72913303E+03</pdfrwt>
<pdfrwt beam="2">  1       -2 0.32089202E-01 0.72913303E+03</pdfrwt>
<totfact> 0.48181540E+01</totfact>
</mgrwt>
</event>
<event>
 4    2  0.2930016E-007  0.9245914E+03  0.7818608E-02  0.9487655E-01
          2   -1    0    0  501    0  0.00000000000E+00  0.00000000000E+00  0.23245118998E+04  0.23245118998E+04  0.25500000000E-02 0. -1.
         -2   -1    0    0    0  501 -0.00000000000E+00 -0.00000000000E+00 -0.46030136415E+03  0.46030136416E+03  0.25500000000E-02 0.  1.
    8880023    1    1    2    0    0  0.13627805289E+03  0.63441891232E+03  0.19043485133E+04  0.21169347015E+04  0.65864270000E+03 0. -1.
    8880022    1    1    2    0    0 -0.13627805289E+03 -0.63441891232E+03 -0.40137977606E+02  0.66787856251E+03  0.15294330000E+03 0.  0.
<mgrwt>
<rscale>  0 0.85200146E+03</rscale>
<asrwt>0</asrwt>
<pdfrwt beam="1">  1        2 0.35761721E+00 0.92459141E+03</pdfrwt>
<pdfrwt beam="2">  1       -2 0.70815595E-01 0.92459141E+03</pdfrwt>
<totfact> 0.80966950E+00</totfact>
</mgrwt>
</event>
<event>
 4    2  0.2930016E-007  0.9369288E+03  0.7818608E-02  0.9469175E-01
          2   -1    0    0  501    0  0.00000000000E+00  0.00000000000E+00  0.95016945548E+03  0.95016945548E+03  0.25500000000E-02 0. -1.
         -2   -1    0    0    0  501 -0.00000000000E+00 -0.00000000000E+00 -0.73605421666E+03  0.73605421666E+03  0.25500000000E-02 0.  1.
    8880023    1    1    2    0    0 -0.51184752639E+03 -0.42665861399E+03 -0.83362033539E+02  0.94063005378E+03  0.65864270000E+03 0.  0.
    8880022    1    1    2    0    0  0.51184752639E+03  0.42665861399E+03  0.29747727236E+03  0.74559361837E+03  0.15294330000E+03 0.  0.
<mgrwt>
<rscale>  0 0.86595044E+03</rscale>
<asrwt>0</asrwt>
<pdfrwt beam="1">  1        2 0.14617992E+00 0.93692885E+03</pdfrwt>
<pdfrwt beam="2">  1       -2 0.11323911E+00 0.93692885E+03</pdfrwt>
<totfact> 0.16591013E+01</totfact>
</mgrwt>
</event>
<event>
 4    2  0.2930016E-007  0.7532124E+03  0.7818608E-02  0.9823008E-01
         -2   -1    0    0    0  501 -0.00000000000E+00  0.00000000000E+00  0.78982229823E+03  0.78982229823E+03  0.25500000000E-02 0.  1.
          2   -1    0    0  501    0  0.00000000000E+00 -0.00000000000E+00 -0.54384099317E+03  0.54384099317E+03  0.25500000000E-02 0. -1.
    8880023    1    1    2    0    0  0.36336722710E+03 -0.38510201018E+02 -0.15611817704E+03  0.76922159926E+03  0.65864270000E+03 0. -1.
    8880022    1    1    2    0    0 -0.36336722710E+03  0.38510201018E+02  0.40209948210E+03  0.56444169214E+03  0.15294330000E+03 0.  1.
<mgrwt>
<rscale>  0 0.64142309E+03</rscale>
<asrwt>0</asrwt>
<pdfrwt beam="1">  1        2 0.83667846E-01 0.75321244E+03</pdfrwt>
<pdfrwt beam="2">  1       -2 0.12151112E+00 0.75321244E+03</pdfrwt>
<totfact> 0.29068680E+01</totfact>
</mgrwt>
</event>
<event>
 4    2  0.2930016E-007  0.7342174E+03  0.7818608E-02  0.9877123E-01
          2   -1    0    0  501    0  0.00000000000E+00  0.00000000000E+00  0.15884342017E+04  0.15884342017E+04  0.25500000000E-02 0. -1.
         -2   -1    0    0    0  501 -0.00000000000E+00 -0.00000000000E+00 -0.21454287386E+03  0.21454287388E+03  0.25500000000E-02 0.  1.
    8880023    1    1    2    0    0 -0.30482404382E+03 -0.11111801969E+03  0.11940637766E+04  0.14017358599E+04  0.65864270000E+03 0.  0.
    8880022    1    1    2    0    0  0.30482404382E+03  0.11111801969E+03  0.17982755125E+03  0.40124121573E+03  0.15294330000E+03 0.  0.
<mgrwt>
<rscale>  0 0.61382910E+03</rscale>
<asrwt>0</asrwt>
<pdfrwt beam="1">  1        2 0.24437449E+00 0.73421735E+03</pdfrwt>
<pdfrwt beam="2">  1       -2 0.33006597E-01 0.73421735E+03</pdfrwt>
<totfact> 0.98996558E+01</totfact>
</mgrwt>
</event>
<event>
 4    2  0.2930016E-007  0.1044761E+04  0.7818608E-02  0.9325206E-01
          2   -1    0    0  501    0  0.00000000000E+00  0.00000000000E+00  0.20223032837E+04  0.20223032837E+04  0.25500000000E-02 0. -1.
         -2   -1    0    0    0  501 -0.00000000000E+00 -0.00000000000E+00 -0.86808168551E+03  0.86808168551E+03  0.25500000000E-02 0.  1.
    8880023    1    1    2    0    0 -0.31561481407E+03 -0.74706279439E+03  0.16312567049E+04  0.19371433022E+04  0.65864270000E+03 0. -1.
    8880022    1    1    2    0    0  0.31561481407E+03  0.74706279439E+03 -0.47703510674E+03  0.95324166700E+03  0.15294330000E+03 0.  0.
<mgrwt>
<rscale>  0 0.98495111E+03</rscale>
<asrwt>0</asrwt>
<pdfrwt beam="1">  1        2 0.31112358E+00 0.10447611E+04</pdfrwt>
<pdfrwt beam="2">  1       -2 0.13355103E+00 0.10447611E+04</pdfrwt>
<totfact> 0.26141185E+00</totfact>
</mgrwt>
</event>
<event>
 4    2  0.2930016E-007  0.8279270E+03  0.7818608E-02  0.9653379E-01
         -2   -1    0    0    0  501 -0.00000000000E+00  0.00000000000E+00  0.12073289442E+04  0.12073289442E+04  0.25500000000E-02 0.  1.
          2   -1    0    0  501    0  0.00000000000E+00 -0.00000000000E+00 -0.45933671341E+03  0.45933671341E+03  0.25500000000E-02 0. -1.
    8880023    1    1    2    0    0  0.24288819228E+02  0.50106180461E+03  0.10138410724E+03  0.83411139678E+03  0.65864270000E+03 0.  0.
    8880022    1    1    2    0    0 -0.24288819228E+02 -0.50106180461E+03  0.64660812356E+03  0.83255426084E+03  0.15294330000E+03 0.  0.
<mgrwt>
<rscale>  0 0.73861718E+03</rscale>
<asrwt>0</asrwt>
<pdfrwt beam="1">  1        2 0.70667186E-01 0.82792698E+03</pdfrwt>
<pdfrwt beam="2">  1       -2 0.18574292E+00 0.82792698E+03</pdfrwt>
<totfact> 0.11356181E+01</totfact>
</mgrwt>
</event>
<event>
 4    2  0.2930016E-007  0.8000881E+03  0.7818608E-02  0.9710606E-01
         -2   -1    0    0    0  501 -0.00000000000E+00  0.00000000000E+00  0.26481311479E+03  0.26481311480E+03  0.25500000000E-02 0.  1.
          2   -1    0    0  501    0  0.00000000000E+00 -0.00000000000E+00 -0.19764228064E+04  0.19764228064E+04  0.25500000000E-02 0. -1.
    8880023    1    1    2    0    0  0.12600392050E+03 -0.43641002216E+03 -0.15339588921E+04  0.17300782596E+04  0.65864270000E+03 0.  0.
    8880022    1    1    2    0    0 -0.12600392050E+03  0.43641002216E+03 -0.17765079949E+03  0.51115766159E+03  0.15294330000E+03 0.  0.
<mgrwt>
<rscale>  0 0.70388830E+03</rscale>
<asrwt>0</asrwt>
<pdfrwt beam="1">  1        2 0.30406504E+00 0.80008806E+03</pdfrwt>
<pdfrwt beam="2">  1       -2 0.40740481E-01 0.80008806E+03</pdfrwt>
<totfact> 0.40247592E+01</totfact>
</mgrwt>
</event>
<event>
 4    2  0.2930016E-007  0.8017653E+03  0.7818608E-02  0.9706992E-01
         -2   -1    0    0    0  501 -0.00000000000E+00  0.00000000000E+00  0.83171034828E+03  0.83171034829E+03  0.25500000000E-02 0.  1.
          2   -1    0    0  501    0  0.00000000000E+00 -0.00000000000E+00 -0.95155915795E+03  0.95155915796E+03  0.25500000000E-02 0. -1.
    8880023    1    1    2    0    0 -0.42154245411E+03  0.17697285737E+03 -0.67495870286E+03  0.10480443167E+04  0.65864270000E+03 0. -1.
    8880022    1    1    2    0    0  0.42154245411E+03 -0.17697285737E+03  0.55510989319E+03  0.73522518958E+03  0.15294330000E+03 0.  0.
<mgrwt>
<rscale>  0 0.70602014E+03</rscale>
<asrwt>0</asrwt>
<pdfrwt beam="1">  1        2 0.14639372E+00 0.80176533E+03</pdfrwt>
<pdfrwt beam="2">  1       -2 0.12795544E+00 0.80176533E+03</pdfrwt>
<totfact> 0.12378376E+01</totfact>
</mgrwt>
</event>
<event>
 4    2  0.2930016E-007  0.7800046E+03  0.7818608E-02  0.9755826E-01
         -2   -1    0    0    0  501 -0.00000000000E+00  0.00000000000E+00  0.23922122053E+03  0.23922122055E+03  0.25500000000E-02 0.  1.
          2   -1    0    0  501    0  0.00000000000E+00 -0.00000000000E+00 -0.28015457801E+04  0.28015457801E+04  0.25500000000E-02 0. -1.
    8880023    1    1    2    0    0 -0.31131242907E+03  0.27871414859E+03 -0.24647604531E+04  0.25852371849E+04  0.65864270000E+03 0. -1.
    8880022    1    1    2    0    0  0.31131242907E+03 -0.27871414859E+03 -0.97564106508E+02  0.45552981572E+03  0.15294330000E+03 0.  0.
<mgrwt>
<rscale>  0 0.67788016E+03</rscale>
<asrwt>0</asrwt>
<pdfrwt beam="1">  1        2 0.43100702E+00 0.78000462E+03</pdfrwt>
<pdfrwt beam="2">  1       -2 0.36803267E-01 0.78000462E+03</pdfrwt>
<totfact> 0.16842352E+01</totfact>
</mgrwt>
</event>
<event>
 4    2  0.2930016E-007  0.6793783E+03  0.7818608E-02  0.1009678E+00
          2   -1    0    0  501    0  0.00000000000E+00  0.00000000000E+00  0.35103133218E+04  0.35103133218E+04  0.25500000000E-02 0. -1.
         -2   -1    0    0    0  501 -0.00000000000E+00 -0.00000000000E+00 -0.10893492515E+03  0.10893492518E+03  0.25500000000E-02 0.  1.
    8880023    1    1    2    0    0  0.14985882068E+03 -0.72711757508E+02  0.33038534547E+04  0.33729812514E+04  0.65864270000E+03 0. -1.
    8880022    1    1    2    0    0 -0.14985882068E+03  0.72711757508E+02  0.97524941995E+02  0.24626699564E+03  0.15294330000E+03 0.  0.
<mgrwt>
<rscale>  0 0.51602998E+03</rscale>
<asrwt>0</asrwt>
<pdfrwt beam="1">  1        2 0.54004814E+00 0.67937830E+03</pdfrwt>
<pdfrwt beam="2">  1       -2 0.16759221E-01 0.67937830E+03</pdfrwt>
<totfact> 0.25286136E+01</totfact>
</mgrwt>
</event>
<event>
 4    2  0.2930016E-007  0.6865029E+03  0.7818608E-02  0.1005861E+00
         -2   -1    0    0    0  501 -0.00000000000E+00  0.00000000000E+00  0.43326897497E+03  0.43326897498E+03  0.25500000000E-02 0.  1.
          2   -1    0    0  501    0  0.00000000000E+00 -0.00000000000E+00 -0.13465940288E+04  0.13465940288E+04  0.25500000000E-02 0. -1.
    8880023    1    1    2    0    0 -0.18719900657E+03  0.49320284456E+02 -0.12117240986E+04  0.13926813907E+04  0.65864270000E+03 0. -1.
    8880022    1    1    2    0    0  0.18719900657E+03 -0.49320284456E+02  0.29839904483E+03  0.38718161306E+03  0.15294330000E+03 0.  0.
<mgrwt>
<rscale>  0 0.53153277E+03</rscale>
<asrwt>0</asrwt>
<pdfrwt beam="1">  1        2 0.20716831E+00 0.68650285E+03</pdfrwt>
<pdfrwt beam="2">  1       -2 0.66656766E-01 0.68650285E+03</pdfrwt>
<totfact> 0.33014476E+01</totfact>
</mgrwt>
</event>
<event>
 4    2  0.2930016E-007  0.7103956E+03  0.7818608E-02  0.9956535E-01
          2   -1    0    0  501    0  0.00000000000E+00  0.00000000000E+00  0.11692570519E+04  0.11692570519E+04  0.25500000000E-02 0. -1.
         -2   -1    0    0    0  501 -0.00000000000E+00 -0.00000000000E+00 -0.31335073055E+03  0.31335073056E+03  0.25500000000E-02 0.  1.
    8880023    1    1    2    0    0 -0.22137903787E+03 -0.14779400317E+03  0.92659963656E+03  0.11675824761E+04  0.65864270000E+03 0.  0.
    8880022    1    1    2    0    0  0.22137903787E+03  0.14779400317E+03 -0.70693315257E+02  0.31502530631E+03  0.15294330000E+03 0.  0.
<mgrwt>
<rscale>  0 0.57597891E+03</rscale>
<asrwt>0</asrwt>
<pdfrwt beam="1">  1        2 0.17988571E+00 0.71039563E+03</pdfrwt>
<pdfrwt beam="2">  1       -2 0.48207803E-01 0.71039563E+03</pdfrwt>
<totfact> 0.82110050E+01</totfact>
</mgrwt>
</event>
<event>
 4    2  0.2930016E-007  0.6801076E+03  0.7818608E-02  0.1009263E+00
         -2   -1    0    0    0  501 -0.00000000000E+00  0.00000000000E+00  0.21337281711E+03  0.21337281713E+03  0.25500000000E-02 0.  1.
          2   -1    0    0  501    0  0.00000000000E+00 -0.00000000000E+00 -0.21275629280E+04  0.21275629280E+04  0.25500000000E-02 0. -1.
    8880023    1    1    2    0    0 -0.13907417896E+03 -0.96925537965E+02 -0.19878961597E+04  0.21010182139E+04  0.65864270000E+03 0. -1.
    8880022    1    1    2    0    0  0.13907417896E+03  0.96925537965E+02  0.73706048772E+02  0.23991753126E+03  0.15294330000E+03 0.  0.
<mgrwt>
<rscale>  0 0.51768664E+03</rscale>
<asrwt>0</asrwt>
<pdfrwt beam="1">  1        2 0.32731736E+00 0.68010763E+03</pdfrwt>
<pdfrwt beam="2">  1       -2 0.32826589E-01 0.68010763E+03</pdfrwt>
<totfact> 0.51126847E+01</totfact>
</mgrwt>
</event>
<event>
 4    2  0.2930016E-007  0.1037781E+04  0.7818608E-02  0.9333716E-01
         -2   -1    0    0    0  501 -0.00000000000E+00  0.00000000000E+00  0.15861358712E+04  0.15861358712E+04  0.25500000000E-02 0.  1.
          2   -1    0    0  501    0  0.00000000000E+00 -0.00000000000E+00 -0.11964271479E+04  0.11964271479E+04  0.25500000000E-02 0. -1.
    8880023    1    1    2    0    0 -0.76741024199E+03  0.23294135693E+03 -0.82032930897E+03  0.13228494006E+04  0.65864270000E+03 0. -1.
    8880022    1    1    2    0    0  0.76741024199E+03 -0.23294135693E+03  0.12100380323E+04  0.14597136185E+04  0.15294330000E+03 0.  0.
<mgrwt>
<rscale>  0 0.97737291E+03</rscale>
<asrwt>0</asrwt>
<pdfrwt beam="1">  1        2 0.18406572E+00 0.10377815E+04</pdfrwt>
<pdfrwt beam="2">  1       -2 0.24402090E+00 0.10377815E+04</pdfrwt>
<totfact> 0.13198539E+00</totfact>
</mgrwt>
</event>
<event>
 4    2  0.2930016E-007  0.8970217E+03  0.7818608E-02  0.9530830E-01
          2   -1    0    0  501    0  0.00000000000E+00  0.00000000000E+00  0.47943223511E+03  0.47943223511E+03  0.25500000000E-02 0. -1.
         -2   -1    0    0    0  501 -0.00000000000E+00 -0.00000000000E+00 -0.15286990706E+04  0.15286990706E+04  0.25500000000E-02 0.  1.
    8880023    1    1    2    0    0  0.60895034413E+03 -0.41502345155E+01 -0.14713538423E+03  0.90900867631E+03  0.65864270000E+03 0.  0.
    8880022    1    1    2    0    0 -0.60895034413E+03  0.41502345155E+01 -0.90213145123E+03  0.10991226294E+04  0.15294330000E+03 0.  0.
<mgrwt>
<rscale>  0 0.82048537E+03</rscale>
<asrwt>0</asrwt>
<pdfrwt beam="1">  1        2 0.73758806E-01 0.89702171E+03</pdfrwt>
<pdfrwt beam="2">  1       -2 0.23518447E+00 0.89702171E+03</pdfrwt>
<totfact> 0.51757260E+00</totfact>
</mgrwt>
</event>
<event>
 4    2  0.2930016E-007  0.8948701E+03  0.7818608E-02  0.9534317E-01
          2   -1    0    0  501    0  0.00000000000E+00  0.00000000000E+00  0.26644304232E+04  0.26644304232E+04  0.25500000000E-02 0. -1.
         -2   -1    0    0    0  501 -0.00000000000E+00 -0.00000000000E+00 -0.22065314191E+03  0.22065314192E+03  0.25500000000E-02 0.  1.
    8880023    1    1    2    0    0  0.29168969185E+03 -0.53094195268E+03  0.12447689228E+04  0.15330499375E+04  0.65864270000E+03 0. -1.
    8880022    1    1    2    0    0 -0.29168969185E+03  0.53094195268E+03  0.11990083585E+04  0.13520336276E+04  0.15294330000E+03 0.  0.
<mgrwt>
<rscale>  0 0.81800335E+03</rscale>
<asrwt>0</asrwt>
<pdfrwt beam="1">  1        2 0.40991236E+00 0.89487007E+03</pdfrwt>
<pdfrwt beam="2">  1       -2 0.33946638E-01 0.89487007E+03</pdfrwt>
<totfact> 0.23273284E+01</totfact>
</mgrwt>
</event>
<event>
 4    2  0.2930016E-007  0.7168830E+03  0.7818608E-02  0.9933277E-01
          2   -1    0    0  501    0  0.00000000000E+00  0.00000000000E+00  0.56470558932E+03  0.56470558932E+03  0.25500000000E-02 0. -1.
         -2   -1    0    0    0  501 -0.00000000000E+00 -0.00000000000E+00 -0.62440263360E+03  0.62440263360E+03  0.25500000000E-02 0.  1.
    8880023    1    1    2    0    0 -0.20281014365E+03 -0.19743117849E+03  0.23337593784E+03  0.75391349585E+03  0.65864270000E+03 0.  0.
    8880022    1    1    2    0    0  0.20281014365E+03  0.19743117849E+03 -0.29307298212E+03  0.43519472707E+03  0.15294330000E+03 0.  0.
<mgrwt>
<rscale>  0 0.58675278E+03</rscale>
<asrwt>0</asrwt>
<pdfrwt beam="1">  1        2 0.86877783E-01 0.71688300E+03</pdfrwt>
<pdfrwt beam="2">  1       -2 0.96061944E-01 0.71688300E+03</pdfrwt>
<totfact> 0.49145596E+01</totfact>
</mgrwt>
</event>
<event>
 4    2  0.2930016E-007  0.6997518E+03  0.7818608E-02  0.9998232E-01
         -2   -1    0    0    0  501 -0.00000000000E+00  0.00000000000E+00  0.56907524118E+03  0.56907524118E+03  0.25500000000E-02 0.  1.
          2   -1    0    0  501    0  0.00000000000E+00 -0.00000000000E+00 -0.13675314464E+04  0.13675314464E+04  0.25500000000E-02 0. -1.
    8880023    1    1    2    0    0  0.55997943979E+01  0.23624359137E+03 -0.12336641588E+04  0.14183017504E+04  0.65864270000E+03 0. -1.
    8880022    1    1    2    0    0 -0.55997943979E+01 -0.23624359137E+03  0.43520795352E+03  0.51830493726E+03  0.15294330000E+03 0.  0.
<mgrwt>
<rscale>  0 0.55727813E+03</rscale>
<asrwt>0</asrwt>
<pdfrwt beam="1">  1        2 0.21038945E+00 0.69975181E+03</pdfrwt>
<pdfrwt beam="2">  1       -2 0.87550038E-01 0.69975181E+03</pdfrwt>
<totfact> 0.17491986E+01</totfact>
</mgrwt>
</event>
<event>
 4    2  0.2930016E-007  0.1068406E+04  0.7818608E-02  0.9297075E-01
         -2   -1    0    0    0  501 -0.00000000000E+00  0.00000000000E+00  0.11895957712E+04  0.11895957712E+04  0.25500000000E-02 0.  1.
          2   -1    0    0  501    0  0.00000000000E+00 -0.00000000000E+00 -0.12389164249E+04  0.12389164250E+04  0.25500000000E-02 0. -1.
    8880023    1    1    2    0    0  0.83890572148E+03 -0.62602062095E+02  0.71179283740E+03  0.12837994693E+04  0.65864270000E+03 0.  0.
    8880022    1    1    2    0    0 -0.83890572148E+03  0.62602062095E+02 -0.76111349113E+03  0.11447127269E+04  0.15294330000E+03 0.  0.
<mgrwt>
<rscale>  0 0.10105259E+04</rscale>
<asrwt>0</asrwt>
<pdfrwt beam="1">  1        2 0.19060253E+00 0.10684063E+04</pdfrwt>
<pdfrwt beam="2">  1       -2 0.18301473E+00 0.10684063E+04</pdfrwt>
<totfact> 0.30547268E+00</totfact>
</mgrwt>
</event>
<event>
 4    2  0.2930016E-007  0.6759391E+03  0.7818608E-02  0.1011721E+00
          2   -1    0    0  501    0  0.00000000000E+00  0.00000000000E+00  0.11640926835E+04  0.11640926835E+04  0.25500000000E-02 0. -1.
         -2   -1    0    0    0  501 -0.00000000000E+00 -0.00000000000E+00 -0.36884993657E+03  0.36884993658E+03  0.25500000000E-02 0.  1.
    8880023    1    1    2    0    0 -0.12564033551E+03  0.85427983736E+02  0.10186290386E+04  0.12224969362E+04  0.65864270000E+03 0. -1.
    8880022    1    1    2    0    0  0.12564033551E+03 -0.85427983736E+02 -0.22338629172E+03  0.31044568390E+03  0.15294330000E+03 0.  0.
<mgrwt>
<rscale>  0 0.50796430E+03</rscale>
<asrwt>0</asrwt>
<pdfrwt beam="1">  1        2 0.17909118E+00 0.67593908E+03</pdfrwt>
<pdfrwt beam="2">  1       -2 0.56746145E-01 0.67593908E+03</pdfrwt>
<totfact> 0.59370476E+01</totfact>
</mgrwt>
</event>
<event>
 4    2  0.2930016E-007  0.6712464E+03  0.7818608E-02  0.1014785E+00
          2   -1    0    0  501    0  0.00000000000E+00  0.00000000000E+00  0.76788654379E+03  0.76788654380E+03  0.25500000000E-02 0. -1.
         -2   -1    0    0    0  501 -0.00000000000E+00 -0.00000000000E+00 -0.25313055190E+03  0.25313055192E+03  0.25500000000E-02 0.  1.
    8880023    1    1    2    0    0 -0.10253660389E+03  0.79042793966E+02  0.45848365048E+03  0.81288312963E+03  0.65864270000E+03 0.  0.
    8880022    1    1    2    0    0  0.10253660389E+03 -0.79042793966E+02  0.56272341409E+02  0.20813396608E+03  0.15294330000E+03 0.  0.
<mgrwt>
<rscale>  0 0.49616538E+03</rscale>
<asrwt>0</asrwt>
<pdfrwt beam="1">  1        2 0.11813639E+00 0.67124640E+03</pdfrwt>
<pdfrwt beam="2">  1       -2 0.38943162E-01 0.67124640E+03</pdfrwt>
<totfact> 0.22952766E+02</totfact>
</mgrwt>
</event>
<event>
 4    2  0.2930016E-007  0.7328103E+03  0.7818608E-02  0.9881408E-01
          2   -1    0    0  501    0  0.00000000000E+00  0.00000000000E+00  0.60277001871E+03  0.60277001872E+03  0.25500000000E-02 0. -1.
         -2   -1    0    0    0  501 -0.00000000000E+00 -0.00000000000E+00 -0.58584900987E+03  0.58584900987E+03  0.25500000000E-02 0.  1.
    8880023    1    1    2    0    0  0.24295004252E+03 -0.21018098127E+03 -0.21525212735E+03  0.76376989509E+03  0.65864270000E+03 0.  1.
    8880022    1    1    2    0    0 -0.24295004252E+03  0.21018098127E+03  0.23217313620E+03  0.42484913350E+03  0.15294330000E+03 0.  0.
<mgrwt>
<rscale>  0 0.61170869E+03</rscale>
<asrwt>0</asrwt>
<pdfrwt beam="1">  1        2 0.92733849E-01 0.73281033E+03</pdfrwt>
<pdfrwt beam="2">  1       -2 0.90130616E-01 0.73281033E+03</pdfrwt>
<totfact> 0.52648351E+01</totfact>
</mgrwt>
</event>
<event>
 4    2  0.2930016E-007  0.7404424E+03  0.7818608E-02  0.9858660E-01
          2   -1    0    0  501    0  0.00000000000E+00  0.00000000000E+00  0.17156672378E+04  0.17156672378E+04  0.25500000000E-02 0. -1.
         -2   -1    0    0    0  501 -0.00000000000E+00 -0.00000000000E+00 -0.31132367085E+03  0.31132367086E+03  0.25500000000E-02 0.  1.
    8880023    1    1    2    0    0 -0.34960580358E+02 -0.33648553872E+03  0.14737450187E+04  0.16492966217E+04  0.65864270000E+03 0. -1.
    8880022    1    1    2    0    0  0.34960580358E+02  0.33648553872E+03 -0.69401451669E+02  0.37769428703E+03  0.15294330000E+03 0.  0.
<mgrwt>
<rscale>  0 0.62307304E+03</rscale>
<asrwt>0</asrwt>
<pdfrwt beam="1">  1        2 0.26394881E+00 0.74044241E+03</pdfrwt>
<pdfrwt beam="2">  1       -2 0.47895949E-01 0.74044241E+03</pdfrwt>
<totfact> 0.40774408E+01</totfact>
</mgrwt>
</event>
<event>
 4    2  0.2930016E-007  0.1308605E+04  0.7818608E-02  0.9058165E-01
         -2   -1    0    0    0  501 -0.00000000000E+00  0.00000000000E+00  0.90170131129E+03  0.90170131129E+03  0.25500000000E-02 0.  1.
          2   -1    0    0  501    0  0.00000000000E+00 -0.00000000000E+00 -0.18967869909E+04  0.18967869909E+04  0.25500000000E-02 0. -1.
    8880023    1    1    2    0    0  0.50479362478E+03  0.10118397422E+04 -0.10168193468E+04  0.16572169616E+04  0.65864270000E+03 0. -1.
    8880022    1    1    2    0    0 -0.50479362478E+03 -0.10118397422E+04  0.21733667209E+02  0.11412713406E+04  0.15294330000E+03 0.  0.
<mgrwt>
<rscale>  0 0.12645439E+04</rscale>
<asrwt>0</asrwt>
<pdfrwt beam="1">  1        2 0.29181338E+00 0.13086048E+04</pdfrwt>
<pdfrwt beam="2">  1       -2 0.13872328E+00 0.13086048E+04</pdfrwt>
<totfact> 0.27009276E+00</totfact>
</mgrwt>
</event>
<event>
 4    2  0.2930016E-007  0.8123970E+03  0.7818608E-02  0.9684605E-01
          2   -1    0    0  501    0  0.00000000000E+00  0.00000000000E+00  0.60806312491E+03  0.60806312492E+03  0.25500000000E-02 0. -1.
         -2   -1    0    0    0  501 -0.00000000000E+00 -0.00000000000E+00 -0.12447629898E+04  0.12447629898E+04  0.25500000000E-02 0.  1.
    8880023    1    1    2    0    0 -0.39139501308E+03 -0.27016408517E+03  0.23710871212E+03  0.84629157907E+03  0.65864270000E+03 0. -1.
    8880022    1    1    2    0    0  0.39139501308E+03  0.27016408517E+03 -0.87380857701E+03  0.10065345356E+04  0.15294330000E+03 0.  0.
<mgrwt>
<rscale>  0 0.71940816E+03</rscale>
<asrwt>0</asrwt>
<pdfrwt beam="1">  1        2 0.93548173E-01 0.81239701E+03</pdfrwt>
<pdfrwt beam="2">  1       -2 0.19150200E+00 0.81239701E+03</pdfrwt>
<totfact> 0.74783472E+00</totfact>
</mgrwt>
</event>
<event>
 4    2  0.2930016E-007  0.8059613E+03  0.7818608E-02  0.9698052E-01
          2   -1    0    0  501    0  0.00000000000E+00  0.00000000000E+00  0.13455236849E+04  0.13455236849E+04  0.25500000000E-02 0. -1.
         -2   -1    0    0    0  501 -0.00000000000E+00 -0.00000000000E+00 -0.52377576608E+03  0.52377576609E+03  0.25500000000E-02 0.  1.
    8880023    1    1    2    0    0 -0.24253686909E+03  0.39615572315E+03  0.10548833952E+04  0.13275363172E+04  0.65864270000E+03 0.  0.
    8880022    1    1    2    0    0  0.24253686909E+03 -0.39615572315E+03 -0.23313547630E+03  0.54176313383E+03  0.15294330000E+03 0.  0.
<mgrwt>
<rscale>  0 0.71132918E+03</rscale>
<asrwt>0</asrwt>
<pdfrwt beam="1">  1        2 0.20700364E+00 0.80596135E+03</pdfrwt>
<pdfrwt beam="2">  1       -2 0.80580888E-01 0.80596135E+03</pdfrwt>
<totfact> 0.21468619E+01</totfact>
</mgrwt>
</event>
<event>
 4    2  0.2930016E-007  0.7265065E+03  0.7818608E-02  0.9901155E-01
         -2   -1    0    0    0  501 -0.00000000000E+00  0.00000000000E+00  0.23093812320E+03  0.23093812321E+03  0.25500000000E-02 0.  1.
          2   -1    0    0  501    0  0.00000000000E+00 -0.00000000000E+00 -0.23321034527E+04  0.23321034527E+04  0.25500000000E-02 0. -1.
    8880023    1    1    2    0    0 -0.30394163909E+03 -0.40260646805E+02 -0.20981831911E+04  0.22204018441E+04  0.65864270000E+03 0. -1.
    8880022    1    1    2    0    0  0.30394163909E+03  0.40260646805E+02 -0.29821384121E+01  0.34263973181E+03  0.15294330000E+03 0.  0.
<mgrwt>
<rscale>  0 0.60205329E+03</rscale>
<asrwt>0</asrwt>
<pdfrwt beam="1">  1        2 0.35878513E+00 0.72650647E+03</pdfrwt>
<pdfrwt beam="2">  1       -2 0.35528943E-01 0.72650647E+03</pdfrwt>
<totfact> 0.33724595E+01</totfact>
</mgrwt>
</event>
<event>
 4    2  0.2930016E-007  0.6607180E+03  0.7818608E-02  0.1023433E+00
          2   -1    0    0  501    0  0.00000000000E+00  0.00000000000E+00  0.29406619142E+04  0.29406619142E+04  0.25500000000E-02 0. -1.
         -2   -1    0    0    0  501 -0.00000000000E+00 -0.00000000000E+00 -0.88401163166E+02  0.88401163203E+02  0.25500000000E-02 0.  1.
    8880023    1    1    2    0    0 -0.51994281302E+02  0.58909309387E+01  0.27699606790E+04  0.28476710621E+04  0.65864270000E+03 0. -1.
    8880022    1    1    2    0    0  0.51994281302E+02 -0.58909309387E+01  0.82300072059E+02  0.18139201535E+03  0.15294330000E+03 0.  0.
<mgrwt>
<rscale>  0 0.46468007E+03</rscale>
<asrwt>0</asrwt>
<pdfrwt beam="1">  1        2 0.45240957E+00 0.66071803E+03</pdfrwt>
<pdfrwt beam="2">  1       -2 0.13600178E-01 0.66071803E+03</pdfrwt>
<totfact> 0.83529455E+01</totfact>
</mgrwt>
</event>
<event>
 4    2  0.2930016E-007  0.9022805E+03  0.7818608E-02  0.9522381E-01
         -2   -1    0    0    0  501 -0.00000000000E+00  0.00000000000E+00  0.52310621221E+03  0.52310621222E+03  0.25500000000E-02 0.  1.
          2   -1    0    0  501    0  0.00000000000E+00 -0.00000000000E+00 -0.22777889647E+04  0.22777889647E+04  0.25500000000E-02 0. -1.
    8880023    1    1    2    0    0  0.26684491619E+03 -0.55596193149E+03 -0.19395746948E+04  0.21391727563E+04  0.65864270000E+03 0. -1.
    8880022    1    1    2    0    0 -0.26684491619E+03  0.55596193149E+03  0.18489194229E+03  0.66172242058E+03  0.15294330000E+03 0.  0.
<mgrwt>
<rscale>  0 0.82653715E+03</rscale>
<asrwt>0</asrwt>
<pdfrwt beam="1">  1        2 0.35042907E+00 0.90228049E+03</pdfrwt>
<pdfrwt beam="2">  1       -2 0.80477880E-01 0.90228049E+03</pdfrwt>
<totfact> 0.64874443E+00</totfact>
</mgrwt>
</event>
<event>
 4    2  0.2930016E-007  0.8970523E+03  0.7818608E-02  0.9530780E-01
          2   -1    0    0  501    0  0.00000000000E+00  0.00000000000E+00  0.18277243668E+04  0.18277243668E+04  0.25500000000E-02 0. -1.
         -2   -1    0    0    0  501 -0.00000000000E+00 -0.00000000000E+00 -0.67177245197E+03  0.67177245197E+03  0.25500000000E-02 0.  1.
    8880023    1    1    2    0    0 -0.57023927271E+03  0.21382206675E+03  0.15263745733E+04  0.17704582031E+04  0.65864270000E+03 0.  1.
    8880022    1    1    2    0    0  0.57023927271E+03 -0.21382206675E+03 -0.37042265846E+03  0.72903861577E+03  0.15294330000E+03 0.  0.
<mgrwt>
<rscale>  0 0.82052068E+03</rscale>
<asrwt>0</asrwt>
<pdfrwt beam="1">  1        2 0.28118836E+00 0.89705235E+03</pdfrwt>
<pdfrwt beam="2">  1       -2 0.10334961E+00 0.89705235E+03</pdfrwt>
<totfact> 0.64269691E+00</totfact>
</mgrwt>
</event>
<event>
 4    2  0.2930016E-007  0.8036782E+03  0.7818608E-02  0.9702899E-01
         -2   -1    0    0    0  501 -0.00000000000E+00  0.00000000000E+00  0.47111965578E+03  0.47111965579E+03  0.25500000000E-02 0.  1.
          2   -1    0    0  501    0  0.00000000000E+00 -0.00000000000E+00 -0.96686501271E+03  0.96686501271E+03  0.25500000000E-02 0. -1.
    8880023    1    1    2    0    0  0.43548475444E+03  0.14980485759E+03 -0.96226398603E+02  0.80941842872E+03  0.65864270000E+03 0.  1.
    8880022    1    1    2    0    0 -0.43548475444E+03 -0.14980485759E+03 -0.39951895832E+03  0.62856623977E+03  0.15294330000E+03 0. -1.
<mgrwt>
<rscale>  0 0.70844466E+03</rscale>
<asrwt>0</asrwt>
<pdfrwt beam="1">  1        2 0.14874846E+00 0.80367821E+03</pdfrwt>
<pdfrwt beam="2">  1       -2 0.72479947E-01 0.80367821E+03</pdfrwt>
<totfact> 0.46066876E+01</totfact>
</mgrwt>
</event>
<event>
 4    2  0.2930016E-007  0.6775512E+03  0.7818608E-02  0.1010744E+00
          2   -1    0    0  501    0  0.00000000000E+00  0.00000000000E+00  0.41474233593E+04  0.41474233593E+04  0.25500000000E-02 0. -1.
         -2   -1    0    0    0  501 -0.00000000000E+00 -0.00000000000E+00 -0.49182638987E+02  0.49182639053E+02  0.25500000000E-02 0.  1.
    8880023    1    1    2    0    0  0.80594762648E+02 -0.13700317822E+03  0.32728699207E+04  0.33422676600E+04  0.65864270000E+03 0. -1.
    8880022    1    1    2    0    0 -0.80594762648E+02  0.13700317822E+03  0.82537079954E+03  0.85433833834E+03  0.15294330000E+03 0.  1.
<mgrwt>
<rscale>  0 0.51179942E+03</rscale>
<asrwt>0</asrwt>
<pdfrwt beam="1">  1        2 0.63806517E+00 0.67755117E+03</pdfrwt>
<pdfrwt beam="2">  1       -2 0.75665593E-02 0.67755117E+03</pdfrwt>
<totfact> 0.31220392E+01</totfact>
</mgrwt>
</event>
<event>
 4    2  0.2930016E-007  0.7891771E+03  0.7818608E-02  0.9734705E-01
          2   -1    0    0  501    0  0.00000000000E+00  0.00000000000E+00  0.13550271485E+04  0.13550271485E+04  0.25500000000E-02 0. -1.
         -2   -1    0    0    0  501 -0.00000000000E+00 -0.00000000000E+00 -0.29267128383E+03  0.29267128384E+03  0.25500000000E-02 0.  1.
    8880023    1    1    2    0    0  0.26970005148E+03 -0.34095762438E+03  0.76591681405E+03  0.10997404201E+04  0.65864270000E+03 0. -1.
    8880022    1    1    2    0    0 -0.26970005148E+03  0.34095762438E+03  0.29643905063E+03  0.54795801221E+03  0.15294330000E+03 0.  1.
<mgrwt>
<rscale>  0 0.68987518E+03</rscale>
<asrwt>0</asrwt>
<pdfrwt beam="1">  1        2 0.20846572E+00 0.78917706E+03</pdfrwt>
<pdfrwt beam="2">  1       -2 0.45026351E-01 0.78917706E+03</pdfrwt>
<totfact> 0.72895159E+01</totfact>
</mgrwt>
</event>
<event>
 4    2  0.2930016E-007  0.7641684E+03  0.7818608E-02  0.9794433E-01
         -2   -1    0    0    0  501 -0.00000000000E+00  0.00000000000E+00  0.36069673878E+04  0.36069673878E+04  0.25500000000E-02 0.  1.
          2   -1    0    0  501    0  0.00000000000E+00 -0.00000000000E+00 -0.79701124490E+03  0.79701124490E+03  0.25500000000E-02 0. -1.
    8880023    1    1    2    0    0 -0.16539929655E+03  0.35040855310E+03 -0.59819758509E+03  0.97046052906E+03  0.65864270000E+03 0.  0.
    8880022    1    1    2    0    0  0.16539929655E+03 -0.35040855310E+03  0.34081537280E+04  0.34335181037E+04  0.15294330000E+03 0.  1.
<mgrwt>
<rscale>  0 0.65662149E+03</rscale>
<asrwt>0</asrwt>
<pdfrwt beam="1">  1        2 0.12261712E+00 0.76416836E+03</pdfrwt>
<pdfrwt beam="2">  1       -2 0.55491805E+00 0.76416836E+03</pdfrwt>
<totfact> 0.28879676E-02</totfact>
</mgrwt>
</event>
<event>
 4    2  0.2930016E-007  0.7300281E+03  0.7818608E-02  0.9890009E-01
         -2   -1    0    0    0  501 -0.00000000000E+00  0.00000000000E+00  0.32435394628E+03  0.32435394629E+03  0.25500000000E-02 0.  1.
          2   -1    0    0  501    0  0.00000000000E+00 -0.00000000000E+00 -0.19672806406E+04  0.19672806406E+04  0.25500000000E-02 0. -1.
    8880023    1    1    2    0    0  0.30941356167E+03  0.58258075207E+02 -0.17736309156E+04  0.19179957212E+04  0.65864270000E+03 0. -1.
    8880022    1    1    2    0    0 -0.30941356167E+03 -0.58258075207E+02  0.13070422130E+03  0.37363886569E+03  0.15294330000E+03 0.  0.
<mgrwt>
<rscale>  0 0.60747947E+03</rscale>
<asrwt>0</asrwt>
<pdfrwt beam="1">  1        2 0.30265855E+00 0.73002806E+03</pdfrwt>
<pdfrwt beam="2">  1       -2 0.49900608E-01 0.73002806E+03</pdfrwt>
<totfact> 0.27399145E+01</totfact>
</mgrwt>
</event>
<event>
 4    2  0.2930016E-007  0.1408164E+04  0.7818608E-02  0.8977365E-01
         -2   -1    0    0    0  501 -0.00000000000E+00  0.00000000000E+00  0.10457009694E+04  0.10457009694E+04  0.25500000000E-02 0.  1.
          2   -1    0    0  501    0  0.00000000000E+00 -0.00000000000E+00 -0.32543737072E+04  0.32543737072E+04  0.25500000000E-02 0. -1.
    8880023    1    1    2    0    0 -0.46499592400E+03  0.11545104417E+04 -0.26249359428E+04  0.29787941317E+04  0.65864270000E+03 0.  0.
    8880022    1    1    2    0    0  0.46499592400E+03 -0.11545104417E+04  0.41626320498E+03  0.13212805448E+04  0.15294330000E+03 0.  0.
<mgrwt>
<rscale>  0 0.13679304E+04</rscale>
<asrwt>0</asrwt>
<pdfrwt beam="1">  1        2 0.50067287E+00 0.14081640E+04</pdfrwt>
<pdfrwt beam="2">  1       -2 0.16087707E+00 0.14081640E+04</pdfrwt>
<totfact> 0.28451600E-01</totfact>
</mgrwt>
</event>
<event>
 4    2  0.2930016E-007  0.7076933E+03  0.7818608E-02  0.9966668E-01
          2   -1    0    0  501    0  0.00000000000E+00  0.00000000000E+00  0.13599686688E+04  0.13599686688E+04  0.25500000000E-02 0. -1.
         -2   -1    0    0    0  501 -0.00000000000E+00 -0.00000000000E+00 -0.19466604687E+03  0.19466604688E+03  0.25500000000E-02 0.  1.
    8880023    1    1    2    0    0 -0.21708450037E+03  0.14104577455E+03  0.95087458224E+03  0.11853236977E+04  0.65864270000E+03 0. -1.
    8880022    1    1    2    0    0  0.21708450037E+03 -0.14104577455E+03  0.21442803970E+03  0.36931101804E+03  0.15294330000E+03 0.  0.
<mgrwt>
<rscale>  0 0.57136235E+03</rscale>
<asrwt>0</asrwt>
<pdfrwt beam="1">  1        2 0.20922595E+00 0.70769329E+03</pdfrwt>
<pdfrwt beam="2">  1       -2 0.29948623E-01 0.70769329E+03</pdfrwt>
<totfact> 0.15966190E+02</totfact>
</mgrwt>
</event>
<event>
 4    2  0.2930016E-007  0.7584019E+03  0.7818608E-02  0.9809262E-01
         -2   -1    0    0    0  501 -0.00000000000E+00  0.00000000000E+00  0.96861651850E+03  0.96861651851E+03  0.25500000000E-02 0.  1.
          2   -1    0    0  501    0  0.00000000000E+00 -0.00000000000E+00 -0.10733509297E+04  0.10733509297E+04  0.25500000000E-02 0. -1.
    8880023    1    1    2    0    0  0.32355888094E+03  0.19150173954E+03 -0.88313843001E+03  0.11640906144E+04  0.65864270000E+03 0. -1.
    8880022    1    1    2    0    0 -0.32355888094E+03 -0.19150173954E+03  0.77840401886E+03  0.87787683377E+03  0.15294330000E+03 0.  0.
<mgrwt>
<rscale>  0 0.64867829E+03</rscale>
<asrwt>0</asrwt>
<pdfrwt beam="1">  1        2 0.16513091E+00 0.75840192E+03</pdfrwt>
<pdfrwt beam="2">  1       -2 0.14901793E+00 0.75840192E+03</pdfrwt>
<totfact> 0.70262006E+00</totfact>
</mgrwt>
</event>
<event>
 4    2  0.2930016E-007  0.9469569E+03  0.7818608E-02  0.9454506E-01
         -2   -1    0    0    0  501 -0.00000000000E+00  0.00000000000E+00  0.38431139507E+03  0.38431139508E+03  0.25500000000E-02 0.  1.
          2   -1    0    0  501    0  0.00000000000E+00 -0.00000000000E+00 -0.36256010107E+04  0.36256010107E+04  0.25500000000E-02 0. -1.
    8880023    1    1    2    0    0 -0.65107548592E+03  0.19752935182E+03 -0.31705857180E+04  0.33089788658E+04  0.65864270000E+03 0. -1.
    8880022    1    1    2    0    0  0.65107548592E+03 -0.19752935182E+03 -0.70703897596E+02  0.70093353989E+03  0.15294330000E+03 0.  0.
<mgrwt>
<rscale>  0 0.87722635E+03</rscale>
<asrwt>0</asrwt>
<pdfrwt beam="1">  1        2 0.55778475E+00 0.94695688E+03</pdfrwt>
<pdfrwt beam="2">  1       -2 0.59124832E-01 0.94695688E+03</pdfrwt>
<totfact> 0.18569186E+00</totfact>
</mgrwt>
</event>
<event>
 4    2  0.2930016E-007  0.6923799E+03  0.7818608E-02  0.1003041E+00
          2   -1    0    0  501    0  0.00000000000E+00  0.00000000000E+00  0.20067791110E+04  0.20067791110E+04  0.25500000000E-02 0. -1.
         -2   -1    0    0    0  501 -0.00000000000E+00 -0.00000000000E+00 -0.27076091365E+03  0.27076091367E+03  0.25500000000E-02 0.  1.
    8880023    1    1    2    0    0  0.65541267415E+02 -0.20318479326E+03  0.20205832021E+03  0.72126104080E+03  0.65864270000E+03 0.  1.
    8880022    1    1    2    0    0 -0.65541267415E+02  0.20318479326E+03  0.15339598771E+04  0.15562789838E+04  0.15294330000E+03 0.  0.
<mgrwt>
<rscale>  0 0.54336536E+03</rscale>
<asrwt>0</asrwt>
<pdfrwt beam="1">  1        2 0.30873525E+00 0.69237990E+03</pdfrwt>
<pdfrwt beam="2">  1       -2 0.41655524E-01 0.69237990E+03</pdfrwt>
<totfact> 0.37595590E+01</totfact>
</mgrwt>
</event>
<event>
 4    2  0.2930016E-007  0.1197340E+04  0.7818608E-02  0.9159712E-01
          2   -1    0    0  501    0  0.00000000000E+00  0.00000000000E+00  0.34487997787E+04  0.34487997787E+04  0.25500000000E-02 0. -1.
         -2   -1    0    0    0  501 -0.00000000000E+00 -0.00000000000E+00 -0.51317919260E+03  0.51317919261E+03  0.25500000000E-02 0.  1.
    8880023    1    1    2    0    0  0.96034218107E+03  0.27848979907E+03  0.26545973001E+04  0.29121316428E+04  0.65864270000E+03 0.  0.
    8880022    1    1    2    0    0 -0.96034218107E+03 -0.27848979907E+03  0.28102328599E+03  0.10498473285E+04  0.15294330000E+03 0.  0.
<mgrwt>
<rscale>  0 0.11479119E+04</rscale>
<asrwt>0</asrwt>
<pdfrwt beam="1">  1        2 0.53058457E+00 0.11973403E+04</pdfrwt>
<pdfrwt beam="2">  1       -2 0.78950646E-01 0.11973403E+04</pdfrwt>
<totfact> 0.12602327E+00</totfact>
</mgrwt>
</event>
<event>
 4    2  0.2930016E-007  0.8432273E+03  0.7818608E-02  0.9624125E-01
          2   -1    0    0  501    0  0.00000000000E+00  0.00000000000E+00  0.84600650280E+03  0.84600650280E+03  0.25500000000E-02 0. -1.
         -2   -1    0    0    0  501 -0.00000000000E+00 -0.00000000000E+00 -0.64875347442E+03  0.64875347442E+03  0.25500000000E-02 0.  1.
    8880023    1    1    2    0    0  0.15332789313E+02 -0.52629549116E+03  0.36868023127E+03  0.92030286191E+03  0.65864270000E+03 0.  1.
    8880022    1    1    2    0    0 -0.15332789313E+02  0.52629549116E+03 -0.17142720289E+03  0.57445711532E+03  0.15294330000E+03 0.  0.
<mgrwt>
<rscale>  0 0.75719821E+03</rscale>
<asrwt>0</asrwt>
<pdfrwt beam="1">  1        2 0.13015485E+00 0.84322728E+03</pdfrwt>
<pdfrwt beam="2">  1       -2 0.99808227E-01 0.84322728E+03</pdfrwt>
<totfact> 0.26675930E+01</totfact>
</mgrwt>
</event>
<event>
 4    2  0.2930016E-007  0.7143390E+03  0.7818608E-02  0.9942228E-01
         -2   -1    0    0    0  501 -0.00000000000E+00  0.00000000000E+00  0.12544852241E+04  0.12544852241E+04  0.25500000000E-02 0.  1.
          2   -1    0    0  501    0  0.00000000000E+00 -0.00000000000E+00 -0.32812929354E+03  0.32812929355E+03  0.25500000000E-02 0. -1.
    8880023    1    1    2    0    0  0.17691566128E+03  0.21253418542E+03  0.13029468726E+03  0.72612453682E+03  0.65864270000E+03 0. -1.
    8880022    1    1    2    0    0 -0.17691566128E+03 -0.21253418542E+03  0.79606124328E+03  0.85648998082E+03  0.15294330000E+03 0.  0.
<mgrwt>
<rscale>  0 0.58257663E+03</rscale>
<asrwt>0</asrwt>
<pdfrwt beam="1">  1        2 0.50481430E-01 0.71433895E+03</pdfrwt>
<pdfrwt beam="2">  1       -2 0.19299772E+00 0.71433895E+03</pdfrwt>
<totfact> 0.14996868E+01</totfact>
</mgrwt>
</event>
<event>
 4    2  0.2930016E-007  0.7533826E+03  0.7818608E-02  0.9822551E-01
          2   -1    0    0  501    0  0.00000000000E+00  0.00000000000E+00  0.18536395834E+04  0.18536395834E+04  0.25500000000E-02 0. -1.
         -2   -1    0    0    0  501 -0.00000000000E+00 -0.00000000000E+00 -0.18520424710E+03  0.18520424712E+03  0.25500000000E-02 0.  1.
    8880023    1    1    2    0    0 -0.33532335766E+03 -0.14605948637E+03  0.12708691104E+04  0.14773942026E+04  0.65864270000E+03 0.  0.
    8880022    1    1    2    0    0  0.33532335766E+03  0.14605948637E+03  0.39756622591E+03  0.56144962797E+03  0.15294330000E+03 0. -1.
<mgrwt>
<rscale>  0 0.64166268E+03</rscale>
<asrwt>0</asrwt>
<pdfrwt beam="1">  1        2 0.28517531E+00 0.75338259E+03</pdfrwt>
<pdfrwt beam="2">  1       -2 0.28492962E-01 0.75338259E+03</pdfrwt>
<totfact> 0.93036505E+01</totfact>
</mgrwt>
</event>
<event>
 4    2  0.2930016E-007  0.8270137E+03  0.7818608E-02  0.9655171E-01
          2   -1    0    0  501    0  0.00000000000E+00  0.00000000000E+00  0.28785272792E+04  0.28785272792E+04  0.25500000000E-02 0. -1.
         -2   -1    0    0    0  501 -0.00000000000E+00 -0.00000000000E+00 -0.41080490664E+03  0.41080490665E+03  0.25500000000E-02 0.  1.
    8880023    1    1    2    0    0 -0.49345884498E+03 -0.81484622619E+02  0.26177130671E+04  0.27452455779E+04  0.65864270000E+03 0. -1.
    8880022    1    1    2    0    0  0.49345884498E+03  0.81484622619E+02 -0.14999069455E+03  0.54408660788E+03  0.15294330000E+03 0.  0.
<mgrwt>
<rscale>  0 0.73749780E+03</rscale>
<asrwt>0</asrwt>
<pdfrwt beam="1">  1        2 0.44285034E+00 0.82701365E+03</pdfrwt>
<pdfrwt beam="2">  1       -2 0.63200757E-01 0.82701365E+03</pdfrwt>
<totfact> 0.50291038E+00</totfact>
</mgrwt>
</event>
<event>
 4    2  0.3046890E-007  0.7810565E+03  0.7818608E-02  0.9753361E-01
         -2   -1    0    0    0  501 -0.00000000000E+00  0.00000000000E+00  0.72433853868E+03  0.72433853868E+03  0.25500000000E-02 0.  1.
          2   -1    0    0  501    0  0.00000000000E+00 -0.00000000000E+00 -0.27458497786E+04  0.27458497786E+04  0.25500000000E-02 0. -1.
    8880023    1    1    2    0    0  0.41677158279E+03  0.50403664769E+02 -0.26139544060E+04  0.27281508251E+04  0.65864270000E+03 0. -1.
    8880022    1    1    2    0    0 -0.41677158279E+03 -0.50403664769E+02  0.59244316612E+03  0.74203749214E+03  0.15294330000E+03 0.  0.
<mgrwt>
<rscale>  0 0.67926662E+03</rscale>
<asrwt>0</asrwt>
<pdfrwt beam="1">  1        2 0.42243842E+00 0.78105652E+03</pdfrwt>
<pdfrwt beam="2">  1       -2 0.11143670E+00 0.78105652E+03</pdfrwt>
<totfact> 0.16699672E+00</totfact>
</mgrwt>
</event>
<event>
 4    2  0.2930016E-007  0.6903707E+03  0.7818608E-02  0.1003977E+00
          2   -1    0    0  501    0  0.00000000000E+00  0.00000000000E+00  0.15079987954E+04  0.15079987954E+04  0.25500000000E-02 0. -1.
         -2   -1    0    0    0  501 -0.00000000000E+00 -0.00000000000E+00 -0.43161786814E+03  0.43161786815E+03  0.25500000000E-02 0.  1.
    8880023    1    1    2    0    0  0.12411462392E+03 -0.16552035633E+03  0.13791532265E+04  0.15422954505E+04  0.65864270000E+03 0. -1.
    8880022    1    1    2    0    0 -0.12411462392E+03  0.16552035633E+03 -0.30277229917E+03  0.39732121311E+03  0.15294330000E+03 0.  0.
<mgrwt>
<rscale>  0 0.53940295E+03</rscale>
<asrwt>0</asrwt>
<pdfrwt beam="1">  1        2 0.23199981E+00 0.69037065E+03</pdfrwt>
<pdfrwt beam="2">  1       -2 0.66402750E-01 0.69037065E+03</pdfrwt>
<totfact> 0.27005896E+01</totfact>
</mgrwt>
</event>
<event>
 4    2  0.2930016E-007  0.9942221E+03  0.7818608E-02  0.9389156E-01
         -2   -1    0    0    0  501 -0.00000000000E+00  0.00000000000E+00  0.34448786574E+03  0.34448786575E+03  0.25500000000E-02 0.  1.
          2   -1    0    0  501    0  0.00000000000E+00 -0.00000000000E+00 -0.33811697179E+04  0.33811697179E+04  0.25500000000E-02 0. -1.
    8880023    1    1    2    0    0  0.74359863722E+03  0.41575384444E+02 -0.27307558621E+04  0.29061151440E+04  0.65864270000E+03 0. -1.
    8880022    1    1    2    0    0 -0.74359863722E+03 -0.41575384444E+02 -0.30592599007E+03  0.81954243959E+03  0.15294330000E+03 0.  0.
<mgrwt>
<rscale>  0 0.92973483E+03</rscale>
<asrwt>0</asrwt>
<pdfrwt beam="1">  1        2 0.52017993E+00 0.99422213E+03</pdfrwt>
<pdfrwt beam="2">  1       -2 0.52998135E-01 0.99422213E+03</pdfrwt>
<totfact> 0.34104440E+00</totfact>
</mgrwt>
</event>
<event>
 4    2  0.2930016E-007  0.7740561E+03  0.7818608E-02  0.9769989E-01
          2   -1    0    0  501    0  0.00000000000E+00  0.00000000000E+00  0.35094599485E+04  0.35094599485E+04  0.25500000000E-02 0. -1.
         -2   -1    0    0    0  501 -0.00000000000E+00 -0.00000000000E+00 -0.15993859464E+03  0.15993859466E+03  0.25500000000E-02 0.  1.
    8880023    1    1    2    0    0  0.23138845708E+03 -0.33438302608E+03  0.30373379049E+04  0.31344193053E+04  0.65864270000E+03 0. -1.
    8880022    1    1    2    0    0 -0.23138845708E+03  0.33438302608E+03  0.31218344897E+03  0.53497923794E+03  0.15294330000E+03 0.  0.
<mgrwt>
<rscale>  0 0.66998264E+03</rscale>
<asrwt>0</asrwt>
<pdfrwt beam="1">  1        2 0.53991687E+00 0.77405609E+03</pdfrwt>
<pdfrwt beam="2">  1       -2 0.24605940E-01 0.77405609E+03</pdfrwt>
<totfact> 0.12688360E+01</totfact>
</mgrwt>
</event>
<event>
 4    2  0.2930016E-007  0.9451045E+03  0.7818608E-02  0.9457193E-01
         -2   -1    0    0    0  501 -0.00000000000E+00  0.00000000000E+00  0.11724464317E+04  0.11724464317E+04  0.25500000000E-02 0.  1.
          2   -1    0    0  501    0  0.00000000000E+00 -0.00000000000E+00 -0.78707438520E+03  0.78707438520E+03  0.25500000000E-02 0. -1.
    8880023    1    1    2    0    0 -0.67772433122E+03 -0.10098100351E+02 -0.29195606919E+03  0.98917177142E+03  0.65864270000E+03 0. -1.
    8880022    1    1    2    0    0  0.67772433122E+03  0.10098100351E+02  0.67732811571E+03  0.97034904550E+03  0.15294330000E+03 0.  0.
<mgrwt>
<rscale>  0 0.87514740E+03</rscale>
<asrwt>0</asrwt>
<pdfrwt beam="1">  1        2 0.12108837E+00 0.94510446E+03</pdfrwt>
<pdfrwt beam="2">  1       -2 0.18037637E+00 0.94510446E+03</pdfrwt>
<totfact> 0.63276131E+00</totfact>
</mgrwt>
</event>
<event>
 4    2  0.3317262E-007  0.8503165E+03  0.7818608E-02  0.9611026E-01
         -2   -1    0    0    0  501 -0.00000000000E+00  0.00000000000E+00  0.16210779057E+04  0.16210779057E+04  0.25500000000E-02 0.  1.
          2   -1    0    0  501    0  0.00000000000E+00 -0.00000000000E+00 -0.14642882730E+04  0.14642882730E+04  0.25500000000E-02 0. -1.
    8880023    1    1    2    0    0  0.53125242520E+03  0.83658893179E+02 -0.12839208145E+04  0.15399645496E+04  0.65864270000E+03 0.  0.
    8880022    1    1    2    0    0 -0.53125242520E+03 -0.83658893179E+02  0.14407104472E+04  0.15454016291E+04  0.15294330000E+03 0.  1.
<mgrwt>
<rscale>  0 0.76570676E+03</rscale>
<asrwt>0</asrwt>
<pdfrwt beam="1">  1        2 0.22527512E+00 0.85031650E+03</pdfrwt>
<pdfrwt beam="2">  1       -2 0.24939660E+00 0.85031650E+03</pdfrwt>
<totfact> 0.88104129E-01</totfact>
</mgrwt>
</event>
<event>
 4    2  0.2930016E-007  0.1067852E+04  0.7818608E-02  0.9297722E-01
          2   -1    0    0  501    0  0.00000000000E+00  0.00000000000E+00  0.19310469173E+04  0.19310469174E+04  0.25500000000E-02 0. -1.
         -2   -1    0    0    0  501 -0.00000000000E+00 -0.00000000000E+00 -0.13710332616E+04  0.13710332616E+04  0.25500000000E-02 0.  1.
    8880023    1    1    2    0    0  0.82406071799E+03  0.16559467003E+03  0.16202331197E+04  0.19404801545E+04  0.65864270000E+03 0. -1.
    8880022    1    1    2    0    0 -0.82406071799E+03 -0.16559467003E+03 -0.10602194640E+04  0.13616000244E+04  0.15294330000E+03 0.  0.
<mgrwt>
<rscale>  0 0.10099280E+04</rscale>
<asrwt>0</asrwt>
<pdfrwt beam="1">  1        2 0.29708414E+00 0.10678520E+04</pdfrwt>
<pdfrwt beam="2">  1       -2 0.21092820E+00 0.10678520E+04</pdfrwt>
<totfact> 0.81472788E-01</totfact>
</mgrwt>
</event>
<event>
 4    2  0.2930016E-007  0.1018077E+04  0.7818608E-02  0.9358281E-01
          2   -1    0    0  501    0  0.00000000000E+00  0.00000000000E+00  0.99083445538E+03  0.99083445538E+03  0.25500000000E-02 0. -1.
         -2   -1    0    0    0  501 -0.00000000000E+00 -0.00000000000E+00 -0.16536655415E+04  0.16536655415E+04  0.25500000000E-02 0.  1.
    8880023    1    1    2    0    0  0.62879920088E+03 -0.45528181290E+03  0.57960690930E+03  0.11715051599E+04  0.65864270000E+03 0.  0.
    8880022    1    1    2    0    0 -0.62879920088E+03  0.45528181290E+03 -0.12424379954E+04  0.14729948369E+04  0.15294330000E+03 0.  0.
<mgrwt>
<rscale>  0 0.95590010E+03</rscale>
<asrwt>0</asrwt>
<pdfrwt beam="1">  1        2 0.15243607E+00 0.10180767E+04</pdfrwt>
<pdfrwt beam="2">  1       -2 0.25441008E+00 0.10180767E+04</pdfrwt>
<totfact> 0.15340066E+00</totfact>
</mgrwt>
</event>
<event>
 4    2  0.2930016E-007  0.8406924E+03  0.7818608E-02  0.9628876E-01
          2   -1    0    0  501    0  0.00000000000E+00  0.00000000000E+00  0.11800862188E+04  0.11800862188E+04  0.25500000000E-02 0. -1.
         -2   -1    0    0    0  501 -0.00000000000E+00 -0.00000000000E+00 -0.70819981175E+03  0.70819981176E+03  0.25500000000E-02 0.  1.
    8880023    1    1    2    0    0 -0.40857157094E+03 -0.32561150126E+03  0.87308669837E+03  0.12120413225E+04  0.65864270000E+03 0. -1.
    8880022    1    1    2    0    0  0.40857157094E+03  0.32561150126E+03 -0.40120029135E+03  0.67624470802E+03  0.15294330000E+03 0.  0.
<mgrwt>
<rscale>  0 0.75414108E+03</rscale>
<asrwt>0</asrwt>
<pdfrwt beam="1">  1        2 0.18155173E+00 0.84069244E+03</pdfrwt>
<pdfrwt beam="2">  1       -2 0.10895382E+00 0.84069244E+03</pdfrwt>
<totfact> 0.13207532E+01</totfact>
</mgrwt>
</event>
<event>
 4    2  0.2930016E-007  0.6821344E+03  0.7818608E-02  0.1008141E+00
          2   -1    0    0  501    0  0.00000000000E+00  0.00000000000E+00  0.12495173249E+04  0.12495173249E+04  0.25500000000E-02 0. -1.
         -2   -1    0    0    0  501 -0.00000000000E+00 -0.00000000000E+00 -0.25500020590E+03  0.25500020591E+03  0.25500000000E-02 0.  1.
    8880023    1    1    2    0    0  0.14108577145E+03 -0.10766590113E+03  0.10606622211E+04  0.12610756102E+04  0.65864270000E+03 0.  0.
    8880022    1    1    2    0    0 -0.14108577145E+03  0.10766590113E+03 -0.66145102061E+02  0.24344192062E+03  0.15294330000E+03 0.  0.
<mgrwt>
<rscale>  0 0.52220127E+03</rscale>
<asrwt>0</asrwt>
<pdfrwt beam="1">  1        2 0.19223343E+00 0.68213441E+03</pdfrwt>
<pdfrwt beam="2">  1       -2 0.39230802E-01 0.68213441E+03</pdfrwt>
<totfact> 0.11100055E+02</totfact>
</mgrwt>
</event>
<event>
 4    2  0.2930016E-007  0.1144465E+04  0.7818608E-02  0.9213093E-01
          2   -1    0    0  501    0  0.00000000000E+00  0.00000000000E+00  0.25388806867E+04  0.25388806867E+04  0.25500000000E-02 0. -1.
         -2   -1    0    0    0  501 -0.00000000000E+00 -0.00000000000E+00 -0.58046762782E+03  0.58046762783E+03  0.25500000000E-02 0.  1.
    8880023    1    1    2    0    0 -0.75601775788E+03  0.55175010581E+03  0.18354872799E+04  0.21630568162E+04  0.65864270000E+03 0.  0.
    8880022    1    1    2    0    0  0.75601775788E+03 -0.55175010581E+03  0.12292577899E+03  0.95629149826E+03  0.15294330000E+03 0.  0.
<mgrwt>
<rscale>  0 0.10919307E+04</rscale>
<asrwt>0</asrwt>
<pdfrwt beam="1">  1        2 0.39059703E+00 0.11444655E+04</pdfrwt>
<pdfrwt beam="2">  1       -2 0.89302712E-01 0.11444655E+04</pdfrwt>
<totfact> 0.35262301E+00</totfact>
</mgrwt>
</event>
<event>
 4    2  0.2930016E-007  0.6602180E+03  0.7818608E-02  0.1023934E+00
          2   -1    0    0  501    0  0.00000000000E+00  0.00000000000E+00  0.18315072990E+04  0.18315072990E+04  0.25500000000E-02 0. -1.
         -2   -1    0    0    0  501 -0.00000000000E+00 -0.00000000000E+00 -0.14351125214E+03  0.14351125216E+03  0.25500000000E-02 0.  1.
    8880023    1    1    2    0    0 -0.10230412948E+02  0.44418156235E+02  0.16910885771E+04  0.18153975917E+04  0.65864270000E+03 0. -1.
    8880022    1    1    2    0    0  0.10230412948E+02 -0.44418156235E+02 -0.30925302495E+01  0.15962095950E+03  0.15294330000E+03 0.  0.
<mgrwt>
<rscale>  0 0.46293246E+03</rscale>
<asrwt>0</asrwt>
<pdfrwt beam="1">  1        2 0.28177034E+00 0.66021802E+03</pdfrwt>
<pdfrwt beam="2">  1       -2 0.22078655E-01 0.66021802E+03</pdfrwt>
<totfact> 0.15299200E+02</totfact>
</mgrwt>
</event>
<event>
 4    2  0.2930016E-007  0.7111144E+03  0.7818608E-02  0.9953886E-01
          2   -1    0    0  501    0  0.00000000000E+00  0.00000000000E+00  0.28873041155E+03  0.28873041156E+03  0.25500000000E-02 0. -1.
         -2   -1    0    0    0  501 -0.00000000000E+00 -0.00000000000E+00 -0.12886379962E+04  0.12886379962E+04  0.25500000000E-02 0.  1.
    8880023    1    1    2    0    0  0.65515458575E+02 -0.25996399521E+03 -0.22917500397E+03  0.74713114165E+03  0.65864270000E+03 0. -1.
    8880022    1    1    2    0    0 -0.65515458575E+02  0.25996399521E+03 -0.77073258067E+03  0.83023726611E+03  0.15294330000E+03 0.  1.
<mgrwt>
<rscale>  0 0.57719348E+03</rscale>
<asrwt>0</asrwt>
<pdfrwt beam="1">  1        2 0.44420064E-01 0.71111445E+03</pdfrwt>
<pdfrwt beam="2">  1       -2 0.19825200E+00 0.71111445E+03</pdfrwt>
<totfact> 0.15971864E+01</totfact>
</mgrwt>
</event>
<event>
 4    2  0.2930016E-007  0.7590661E+03  0.7818608E-02  0.9807531E-01
          2   -1    0    0  501    0  0.00000000000E+00  0.00000000000E+00  0.10841366173E+04  0.10841366173E+04  0.25500000000E-02 0. -1.
         -2   -1    0    0    0  501 -0.00000000000E+00 -0.00000000000E+00 -0.97834987019E+03  0.97834987019E+03  0.25500000000E-02 0.  1.
    8880023    1    1    2    0    0 -0.15557995341E+03 -0.34375294152E+03  0.89554439569E+03  0.11739596150E+04  0.65864270000E+03 0. -1.
    8880022    1    1    2    0    0  0.15557995341E+03  0.34375294152E+03 -0.78975764856E+03  0.88852687252E+03  0.15294330000E+03 0.  0.
<mgrwt>
<rscale>  0 0.64959941E+03</rscale>
<asrwt>0</asrwt>
<pdfrwt beam="1">  1        2 0.16679025E+00 0.75906615E+03</pdfrwt>
<pdfrwt beam="2">  1       -2 0.15051536E+00 0.75906615E+03</pdfrwt>
<totfact> 0.67383146E+00</totfact>
</mgrwt>
</event>
<event>
 4    2  0.2930016E-007  0.8362105E+03  0.7818608E-02  0.9637367E-01
          2   -1    0    0  501    0  0.00000000000E+00  0.00000000000E+00  0.77998059415E+03  0.77998059416E+03  0.25500000000E-02 0. -1.
         -2   -1    0    0    0  501 -0.00000000000E+00 -0.00000000000E+00 -0.11222278271E+04  0.11222278271E+04  0.25500000000E-02 0.  1.
    8880023    1    1    2    0    0  0.20929911096E+03  0.47077776035E+03  0.44636123531E+03  0.94788521254E+03  0.65864270000E+03 0. -1.
    8880022    1    1    2    0    0 -0.20929911096E+03 -0.47077776035E+03 -0.78860846828E+03  0.95432320875E+03  0.15294330000E+03 0.  0.
<mgrwt>
<rscale>  0 0.74871564E+03</rscale>
<asrwt>0</asrwt>
<pdfrwt beam="1">  1        2 0.11999701E+00 0.83621051E+03</pdfrwt>
<pdfrwt beam="2">  1       -2 0.17265043E+00 0.83621051E+03</pdfrwt>
<totfact> 0.73299400E+00</totfact>
</mgrwt>
</event>
<event>
 4    2  0.2930016E-007  0.9164243E+03  0.7818608E-02  0.9500164E-01
         -2   -1    0    0    0  501 -0.00000000000E+00  0.00000000000E+00  0.48522042068E+03  0.48522042069E+03  0.25500000000E-02 0.  1.
          2   -1    0    0  501    0  0.00000000000E+00 -0.00000000000E+00 -0.16839081174E+04  0.16839081174E+04  0.25500000000E-02 0. -1.
    8880023    1    1    2    0    0  0.62982046975E+03 -0.96692649028E+02 -0.14432435298E+03  0.92771925582E+03  0.65864270000E+03 0.  0.
    8880022    1    1    2    0    0 -0.62982046975E+03  0.96692649028E+02 -0.10543633437E+04  0.12414092823E+04  0.15294330000E+03 0.  0.
<mgrwt>
<rscale>  0 0.84271765E+03</rscale>
<asrwt>0</asrwt>
<pdfrwt beam="1">  1        2 0.25906278E+00 0.91642430E+03</pdfrwt>
<pdfrwt beam="2">  1       -2 0.74649296E-01 0.91642430E+03</pdfrwt>
<totfact> 0.16276402E+01</totfact>
</mgrwt>
</event>
<event>
 4    2  0.2930016E-007  0.9622946E+03  0.7818608E-02  0.9432641E-01
          2   -1    0    0  501    0  0.00000000000E+00  0.00000000000E+00  0.15052686675E+04  0.15052686675E+04  0.25500000000E-02 0. -1.
         -2   -1    0    0    0  501 -0.00000000000E+00 -0.00000000000E+00 -0.11241010013E+04  0.11241010013E+04  0.25500000000E-02 0.  1.
    8880023    1    1    2    0    0  0.63628071692E+03 -0.29554628011E+03  0.12013787789E+04  0.15392601895E+04  0.65864270000E+03 0. -1.
    8880022    1    1    2    0    0 -0.63628071692E+03  0.29554628011E+03 -0.82021111268E+03  0.10901094793E+04  0.15294330000E+03 0.  0.
<mgrwt>
<rscale>  0 0.89437440E+03</rscale>
<asrwt>0</asrwt>
<pdfrwt beam="1">  1        2 0.23157980E+00 0.96229463E+03</pdfrwt>
<pdfrwt beam="2">  1       -2 0.17293862E+00 0.96229463E+03</pdfrwt>
<totfact> 0.25545740E+00</totfact>
</mgrwt>
</event>
<event>
 4    2  0.2930016E-007  0.1168702E+04  0.7818608E-02  0.9188163E-01
          2   -1    0    0  501    0  0.00000000000E+00  0.00000000000E+00  0.24105726941E+04  0.24105726941E+04  0.25500000000E-02 0. -1.
         -2   -1    0    0    0  501 -0.00000000000E+00 -0.00000000000E+00 -0.70672995746E+03  0.70672995746E+03  0.25500000000E-02 0.  1.
    8880023    1    1    2    0    0  0.73544974303E+03 -0.62543371334E+03  0.17881567465E+04  0.21362042062E+04  0.65864270000E+03 0. -1.
    8880022    1    1    2    0    0 -0.73544974303E+03  0.62543371334E+03 -0.84314009808E+02  0.98109844540E+03  0.15294330000E+03 0.  0.
<mgrwt>
<rscale>  0 0.11176440E+04</rscale>
<asrwt>0</asrwt>
<pdfrwt beam="1">  1        2 0.37085734E+00 0.11687018E+04</pdfrwt>
<pdfrwt beam="2">  1       -2 0.10872769E+00 0.11687018E+04</pdfrwt>
<totfact> 0.26090188E+00</totfact>
</mgrwt>
</event>
<event>
 4    2  0.2930016E-007  0.7044050E+03  0.7818608E-02  0.9979396E-01
         -2   -1    0    0    0  501 -0.00000000000E+00  0.00000000000E+00  0.43334548123E+03  0.43334548124E+03  0.25500000000E-02 0.  1.
          2   -1    0    0  501    0  0.00000000000E+00 -0.00000000000E+00 -0.20263776400E+04  0.20263776400E+04  0.25500000000E-02 0. -1.
    8880023    1    1    2    0    0 -0.69180089176E+02  0.23997969848E+03 -0.19054614099E+04  0.20314944084E+04  0.65864270000E+03 0.  0.
    8880022    1    1    2    0    0  0.69180089176E+02 -0.23997969848E+03  0.31242925121E+03  0.42822871278E+03  0.15294330000E+03 0.  0.
<mgrwt>
<rscale>  0 0.56562987E+03</rscale>
<asrwt>0</asrwt>
<pdfrwt beam="1">  1        2 0.31175040E+00 0.70440496E+03</pdfrwt>
<pdfrwt beam="2">  1       -2 0.66668536E-01 0.70440496E+03</pdfrwt>
<totfact> 0.13919993E+01</totfact>
</mgrwt>
</event>
<event>
 4    2  0.2930016E-007  0.1091452E+04  0.7818608E-02  0.9270633E-01
         -2   -1    0    0    0  501 -0.00000000000E+00  0.00000000000E+00  0.51675370672E+03  0.51675370673E+03  0.25500000000E-02 0.  1.
          2   -1    0    0  501    0  0.00000000000E+00 -0.00000000000E+00 -0.35412579248E+04  0.35412579249E+04  0.25500000000E-02 0. -1.
    8880023    1    1    2    0    0 -0.71573446473E+02  0.86737238135E+03 -0.29796013170E+04  0.31732147454E+04  0.65864270000E+03 0. -1.
    8880022    1    1    2    0    0  0.71573446473E+02 -0.86737238135E+03 -0.44902901134E+02  0.88479688613E+03  0.15294330000E+03 0.  0.
<mgrwt>
<rscale>  0 0.10353196E+04</rscale>
<asrwt>0</asrwt>
<pdfrwt beam="1">  1        2 0.54480890E+00 0.10914522E+04</pdfrwt>
<pdfrwt beam="2">  1       -2 0.79500572E-01 0.10914522E+04</pdfrwt>
<totfact> 0.10883205E+00</totfact>
</mgrwt>
</event>
<event>
 4    2  0.2930016E-007  0.7552272E+03  0.7818608E-02  0.9817624E-01
          2   -1    0    0  501    0  0.00000000000E+00  0.00000000000E+00  0.13837659740E+04  0.13837659740E+04  0.25500000000E-02 0. -1.
         -2   -1    0    0    0  501 -0.00000000000E+00 -0.00000000000E+00 -0.62380487871E+03  0.62380487872E+03  0.25500000000E-02 0.  1.
    8880023    1    1    2    0    0 -0.34032547208E+03  0.14400159670E+03  0.11968875754E+04  0.14152413085E+04  0.65864270000E+03 0. -1.
    8880022    1    1    2    0    0  0.34032547208E+03 -0.14400159670E+03 -0.43692648019E+03  0.59232954418E+03  0.15294330000E+03 0.  0.
<mgrwt>
<rscale>  0 0.64425246E+03</rscale>
<asrwt>0</asrwt>
<pdfrwt beam="1">  1        2 0.21288707E+00 0.75522718E+03</pdfrwt>
<pdfrwt beam="2">  1       -2 0.95969982E-01 0.75522718E+03</pdfrwt>
<totfact> 0.13746632E+01</totfact>
</mgrwt>
</event>
<event>
 4    2  0.2930016E-007  0.6949622E+03  0.7818608E-02  0.1001878E+00
         -2   -1    0    0    0  501 -0.00000000000E+00  0.00000000000E+00  0.34293536346E+03  0.34293536347E+03  0.25500000000E-02 0.  1.
          2   -1    0    0  501    0  0.00000000000E+00 -0.00000000000E+00 -0.13165980024E+04  0.13165980024E+04  0.25500000000E-02 0. -1.
    8880023    1    1    2    0    0  0.21269983562E+03  0.62617897988E+02 -0.11456445513E+04  0.13399529341E+04  0.65864270000E+03 0. -1.
    8880022    1    1    2    0    0 -0.21269983562E+03 -0.62617897988E+02  0.17198191237E+03  0.31958043184E+03  0.15294330000E+03 0.  0.
<mgrwt>
<rscale>  0 0.54834445E+03</rscale>
<asrwt>0</asrwt>
<pdfrwt beam="1">  1        2 0.20255354E+00 0.69496218E+03</pdfrwt>
<pdfrwt beam="2">  1       -2 0.52759288E-01 0.69496218E+03</pdfrwt>
<totfact> 0.56128782E+01</totfact>
</mgrwt>
</event>
<event>
 4    2  0.2930016E-007  0.9932343E+03  0.7818608E-02  0.9390463E-01
          2   -1    0    0  501    0  0.00000000000E+00  0.00000000000E+00  0.24003899926E+04  0.24003899926E+04  0.25500000000E-02 0. -1.
         -2   -1    0    0    0  501 -0.00000000000E+00 -0.00000000000E+00 -0.50204525297E+03  0.50204525297E+03  0.25500000000E-02 0.  1.
    8880023    1    1    2    0    0  0.58696129204E+03  0.45626812332E+03  0.18994091868E+04  0.21434247419E+04  0.65864270000E+03 0.  0.
    8880022    1    1    2    0    0 -0.58696129204E+03 -0.45626812332E+03 -0.10644471804E+01  0.75901050373E+03  0.15294330000E+03 0.  0.
<mgrwt>
<rscale>  0 0.92864691E+03</rscale>
<asrwt>0</asrwt>
<pdfrwt beam="1">  1        2 0.36929077E+00 0.99323430E+03</pdfrwt>
<pdfrwt beam="2">  1       -2 0.77237730E-01 0.99323430E+03</pdfrwt>
<totfact> 0.59994273E+00</totfact>
</mgrwt>
</event>
<event>
 4    2  0.2930016E-007  0.7277760E+03  0.7818608E-02  0.9897102E-01
         -2   -1    0    0    0  501 -0.00000000000E+00  0.00000000000E+00  0.20300599570E+04  0.20300599570E+04  0.25500000000E-02 0.  1.
          2   -1    0    0  501    0  0.00000000000E+00 -0.00000000000E+00 -0.31799187780E+03  0.31799187781E+03  0.25500000000E-02 0. -1.
    8880023    1    1    2    0    0 -0.18337033099E+03  0.24944537608E+03  0.14332638095E+03  0.74175490000E+03  0.65864270000E+03 0. -1.
    8880022    1    1    2    0    0  0.18337033099E+03 -0.24944537608E+03  0.15687416982E+04  0.16062969348E+04  0.15294330000E+03 0.  0.
<mgrwt>
<rscale>  0 0.60401918E+03</rscale>
<asrwt>0</asrwt>
<pdfrwt beam="1">  1        2 0.48921826E-01 0.72777598E+03</pdfrwt>
<pdfrwt beam="2">  1       -2 0.31231692E+00 0.72777598E+03</pdfrwt>
<totfact> 0.28745668E+00</totfact>
</mgrwt>
</event>
<event>
 4    2  0.2930016E-007  0.9190113E+03  0.7818608E-02  0.9496177E-01
         -2   -1    0    0    0  501 -0.00000000000E+00  0.00000000000E+00  0.25864338738E+03  0.25864338739E+03  0.25500000000E-02 0.  1.
          2   -1    0    0  501    0  0.00000000000E+00 -0.00000000000E+00 -0.30132550079E+04  0.30132550079E+04  0.25500000000E-02 0. -1.
    8880023    1    1    2    0    0  0.61470064150E+03 -0.18142416900E+03 -0.22846492609E+04  0.24625604682E+04  0.65864270000E+03 0.  0.
    8880022    1    1    2    0    0 -0.61470064150E+03  0.18142416900E+03 -0.46996235954E+03  0.80933792704E+03  0.15294330000E+03 0. -1.
<mgrwt>
<rscale>  0 0.84566291E+03</rscale>
<asrwt>0</asrwt>
<pdfrwt beam="1">  1        2 0.46357767E+00 0.91901132E+03</pdfrwt>
<pdfrwt beam="2">  1       -2 0.39791292E-01 0.91901132E+03</pdfrwt>
<totfact> 0.10561740E+01</totfact>
</mgrwt>
</event>
<event>
 4    2  0.2930016E-007  0.6896385E+03  0.7818608E-02  0.1004325E+00
          2   -1    0    0  501    0  0.00000000000E+00  0.00000000000E+00  0.21746531538E+04  0.21746531538E+04  0.25500000000E-02 0. -1.
         -2   -1    0    0    0  501 -0.00000000000E+00 -0.00000000000E+00 -0.19169057779E+03  0.19169057781E+03  0.25500000000E-02 0.  1.
    8880023    1    1    2    0    0  0.12772204652E+03  0.15961880729E+03  0.19949148887E+04  0.21107550081E+04  0.65864270000E+03 0. -1.
    8880022    1    1    2    0    0 -0.12772204652E+03 -0.15961880729E+03 -0.11952312660E+02  0.25558872354E+03  0.15294330000E+03 0.  0.
<mgrwt>
<rscale>  0 0.53793860E+03</rscale>
<asrwt>0</asrwt>
<pdfrwt beam="1">  1        2 0.33456201E+00 0.68963852E+03</pdfrwt>
<pdfrwt beam="2">  1       -2 0.29490859E-01 0.68963852E+03</pdfrwt>
<totfact> 0.58757352E+01</totfact>
</mgrwt>
</event>
<event>
 4    2  0.2930016E-007  0.1159375E+04  0.7818608E-02  0.9197662E-01
         -2   -1    0    0    0  501 -0.00000000000E+00  0.00000000000E+00  0.10509285603E+04  0.10509285603E+04  0.25500000000E-02 0.  1.
          2   -1    0    0  501    0  0.00000000000E+00 -0.00000000000E+00 -0.17055940597E+04  0.17055940597E+04  0.25500000000E-02 0. -1.
    8880023    1    1    2    0    0  0.59806800015E+03 -0.74340699190E+03 -0.11820166372E+04  0.16556910416E+04  0.65864270000E+03 0.  0.
    8880022    1    1    2    0    0 -0.59806800015E+03  0.74340699190E+03  0.52735113780E+03  0.11008315784E+04  0.15294330000E+03 0.  0.
<mgrwt>
<rscale>  0 0.11077597E+04</rscale>
<asrwt>0</asrwt>
<pdfrwt beam="1">  1        2 0.26239909E+00 0.11593746E+04</pdfrwt>
<pdfrwt beam="2">  1       -2 0.16168132E+00 0.11593746E+04</pdfrwt>
<totfact> 0.23255493E+00</totfact>
</mgrwt>
</event>
<event>
 4    2  0.2930016E-007  0.7764894E+03  0.7818608E-02  0.9764149E-01
         -2   -1    0    0    0  501 -0.00000000000E+00  0.00000000000E+00  0.17413900607E+04  0.17413900607E+04  0.25500000000E-02 0.  1.
          2   -1    0    0  501    0  0.00000000000E+00 -0.00000000000E+00 -0.33032534480E+03  0.33032534481E+03  0.25500000000E-02 0. -1.
    8880023    1    1    2    0    0  0.87608885370E+02  0.40180870841E+03  0.22703068400E+03  0.80899857397E+03  0.65864270000E+03 0. -1.
    8880022    1    1    2    0    0 -0.87608885370E+02 -0.40180870841E+03  0.11840340319E+04  0.12627168316E+04  0.15294330000E+03 0.  0.
<mgrwt>
<rscale>  0 0.67322516E+03</rscale>
<asrwt>0</asrwt>
<pdfrwt beam="1">  1        2 0.50819284E-01 0.77648938E+03</pdfrwt>
<pdfrwt beam="2">  1       -2 0.26790616E+00 0.77648938E+03</pdfrwt>
<totfact> 0.50617830E+00</totfact>
</mgrwt>
</event>
<event>
 4    2  0.2930016E-007  0.6751856E+03  0.7818608E-02  0.1012190E+00
         -2   -1    0    0    0  501 -0.00000000000E+00  0.00000000000E+00  0.37810277639E+03  0.37810277640E+03  0.25500000000E-02 0.  1.
          2   -1    0    0  501    0  0.00000000000E+00 -0.00000000000E+00 -0.17291576110E+04  0.17291576110E+04  0.25500000000E-02 0. -1.
    8880023    1    1    2    0    0 -0.89987208911E+02  0.11818484171E+03 -0.16252553710E+04  0.17599234591E+04  0.65864270000E+03 0. -1.
    8880022    1    1    2    0    0  0.89987208911E+02 -0.11818484171E+03  0.27420053641E+03  0.34733692830E+03  0.15294330000E+03 0.  0.
<mgrwt>
<rscale>  0 0.50613628E+03</rscale>
<asrwt>0</asrwt>
<pdfrwt beam="1">  1        2 0.26602424E+00 0.67518558E+03</pdfrwt>
<pdfrwt beam="2">  1       -2 0.58169659E-01 0.67518558E+03</pdfrwt>
<totfact> 0.27107885E+01</totfact>
</mgrwt>
</event>
<event>
 4    2  0.2930016E-007  0.1223055E+04  0.7818608E-02  0.9135030E-01
         -2   -1    0    0    0  501 -0.00000000000E+00  0.00000000000E+00  0.19419997346E+04  0.19419997346E+04  0.25500000000E-02 0.  1.
          2   -1    0    0  501    0  0.00000000000E+00 -0.00000000000E+00 -0.74221345844E+03  0.74221345844E+03  0.25500000000E-02 0. -1.
    8880023    1    1    2    0    0 -0.18775599726E+03  0.10133124257E+04  0.19820729068E+03  0.12390119947E+04  0.65864270000E+03 0.  0.
    8880022    1    1    2    0    0  0.18775599726E+03 -0.10133124257E+04  0.10015789855E+04  0.14452011984E+04  0.15294330000E+03 0.  0.
<mgrwt>
<rscale>  0 0.11749940E+04</rscale>
<asrwt>0</asrwt>
<pdfrwt beam="1">  1        2 0.11418669E+00 0.12230554E+04</pdfrwt>
<pdfrwt beam="2">  1       -2 0.29876919E+00 0.12230554E+04</pdfrwt>
<totfact> 0.12034203E+00</totfact>
</mgrwt>
</event>
<event>
 4    2  0.2930016E-007  0.1392790E+04  0.7818608E-02  0.8989305E-01
          2   -1    0    0  501    0  0.00000000000E+00  0.00000000000E+00  0.13599913992E+04  0.13599913992E+04  0.25500000000E-02 0. -1.
         -2   -1    0    0    0  501 -0.00000000000E+00 -0.00000000000E+00 -0.19366014468E+04  0.19366014468E+04  0.25500000000E-02 0.  1.
    8880023    1    1    2    0    0  0.88869492360E+03 -0.84633028368E+03  0.66566039997E+03  0.15436863641E+04  0.65864270000E+03 0.  0.
    8880022    1    1    2    0    0 -0.88869492360E+03  0.84633028368E+03 -0.12422704476E+04  0.17529064819E+04  0.15294330000E+03 0.  0.
<mgrwt>
<rscale>  0 0.13520133E+04</rscale>
<asrwt>0</asrwt>
<pdfrwt beam="1">  1        2 0.20922945E+00 0.13927899E+04</pdfrwt>
<pdfrwt beam="2">  1       -2 0.29793868E+00 0.13927899E+04</pdfrwt>
<totfact> 0.47593583E-01</totfact>
</mgrwt>
</event>
<event>
 4    2  0.2930016E-007  0.7878521E+03  0.7818608E-02  0.9737705E-01
          2   -1    0    0  501    0  0.00000000000E+00  0.00000000000E+00  0.23101867487E+04  0.23101867487E+04  0.25500000000E-02 0. -1.
         -2   -1    0    0    0  501 -0.00000000000E+00 -0.00000000000E+00 -0.16865679511E+03  0.16865679513E+03  0.25500000000E-02 0.  1.
    8880023    1    1    2    0    0  0.43182091309E+03 -0.20769206554E+02  0.12854935143E+04  0.15077149739E+04  0.65864270000E+03 0.  0.
    8880022    1    1    2    0    0 -0.43182091309E+03  0.20769206554E+02  0.85603643924E+03  0.97112856989E+03  0.15294330000E+03 0.  0.
<mgrwt>
<rscale>  0 0.68815526E+03</rscale>
<asrwt>0</asrwt>
<pdfrwt beam="1">  1        2 0.35541333E+00 0.78785206E+03</pdfrwt>
<pdfrwt beam="2">  1       -2 0.25947200E-01 0.78785206E+03</pdfrwt>
<totfact> 0.61758994E+01</totfact>
</mgrwt>
</event>
<event>
 4    2  0.2930016E-007  0.9282263E+03  0.7818608E-02  0.9482159E-01
         -2   -1    0    0    0  501 -0.00000000000E+00  0.00000000000E+00  0.43479952464E+03  0.43479952464E+03  0.25500000000E-02 0.  1.
          2   -1    0    0  501    0  0.00000000000E+00 -0.00000000000E+00 -0.24933483057E+04  0.24933483057E+04  0.25500000000E-02 0. -1.
    8880023    1    1    2    0    0 -0.40698454601E+03  0.51201310990E+03 -0.20566782745E+04  0.22564417955E+04  0.65864270000E+03 0. -1.
    8880022    1    1    2    0    0  0.40698454601E+03 -0.51201310990E+03 -0.18705065301E+01  0.67170603482E+03  0.15294330000E+03 0.  0.
<mgrwt>
<rscale>  0 0.85612029E+03</rscale>
<asrwt>0</asrwt>
<pdfrwt beam="1">  1        2 0.38359204E+00 0.92822629E+03</pdfrwt>
<pdfrwt beam="2">  1       -2 0.66892236E-01 0.92822629E+03</pdfrwt>
<totfact> 0.73569358E+00</totfact>
</mgrwt>
</event>
<event>
 4    2  0.2930016E-007  0.6746498E+03  0.7818608E-02  0.1012528E+00
          2   -1    0    0  501    0  0.00000000000E+00  0.00000000000E+00  0.13851972686E+04  0.13851972686E+04  0.25500000000E-02 0. -1.
         -2   -1    0    0    0  501 -0.00000000000E+00 -0.00000000000E+00 -0.72009675082E+03  0.72009675082E+03  0.25500000000E-02 0.  1.
    8880023    1    1    2    0    0  0.14045671650E+03 -0.40175998439E+02  0.12844374965E+04  0.14508384089E+04  0.65864270000E+03 0. -1.
    8880022    1    1    2    0    0 -0.14045671650E+03  0.40175998439E+02 -0.61933697866E+03  0.65445561058E+03  0.15294330000E+03 0.  0.
<mgrwt>
<rscale>  0 0.50482209E+03</rscale>
<asrwt>0</asrwt>
<pdfrwt beam="1">  1        2 0.21310727E+00 0.67464984E+03</pdfrwt>
<pdfrwt beam="2">  1       -2 0.11078412E+00 0.67464984E+03</pdfrwt>
<totfact> 0.98494387E+00</totfact>
</mgrwt>
</event>
<event>
 4    2  0.2930016E-007  0.7544225E+03  0.7818608E-02  0.9819767E-01
          2   -1    0    0  501    0  0.00000000000E+00  0.00000000000E+00  0.55052281786E+03  0.55052281786E+03  0.25500000000E-02 0. -1.
         -2   -1    0    0    0  501 -0.00000000000E+00 -0.00000000000E+00 -0.18707191967E+04  0.18707191967E+04  0.25500000000E-02 0.  1.
    8880023    1    1    2    0    0 -0.17276254620E+03  0.32480178814E+03  0.25506812108E+03  0.79637494411E+03  0.65864270000E+03 0.  0.
    8880022    1    1    2    0    0  0.17276254620E+03 -0.32480178814E+03 -0.15752645000E+04  0.16248670705E+04  0.15294330000E+03 0.  0.
<mgrwt>
<rscale>  0 0.64312438E+03</rscale>
<asrwt>0</asrwt>
<pdfrwt beam="1">  1        2 0.84695819E-01 0.75442250E+03</pdfrwt>
<pdfrwt beam="2">  1       -2 0.28780295E+00 0.75442250E+03</pdfrwt>
<totfact> 0.21541960E+00</totfact>
</mgrwt>
</event>
<event>
 4    2  0.2930016E-007  0.8529916E+03  0.7818608E-02  0.9606154E-01
          2   -1    0    0  501    0  0.00000000000E+00  0.00000000000E+00  0.17046889623E+04  0.17046889623E+04  0.25500000000E-02 0. -1.
         -2   -1    0    0    0  501 -0.00000000000E+00 -0.00000000000E+00 -0.53739107083E+03  0.53739107084E+03  0.25500000000E-02 0.  1.
    8880023    1    1    2    0    0  0.21644228270E+03  0.49692784531E+03  0.13945809014E+04  0.16347631761E+04  0.65864270000E+03 0. -1.
    8880022    1    1    2    0    0 -0.21644228270E+03 -0.49692784531E+03 -0.22728300994E+03  0.60731685701E+03  0.15294330000E+03 0.  0.
<mgrwt>
<rscale>  0 0.76890230E+03</rscale>
<asrwt>0</asrwt>
<pdfrwt beam="1">  1        2 0.26225984E+00 0.85299165E+03</pdfrwt>
<pdfrwt beam="2">  1       -2 0.82675549E-01 0.85299165E+03</pdfrwt>
<totfact> 0.12696177E+01</totfact>
</mgrwt>
</event>
<event>
 4    2  0.2930016E-007  0.6701696E+03  0.7818608E-02  0.1015542E+00
         -2   -1    0    0    0  501 -0.00000000000E+00  0.00000000000E+00  0.11439604095E+03  0.11439604098E+03  0.25500000000E-02 0.  1.
          2   -1    0    0  501    0  0.00000000000E+00 -0.00000000000E+00 -0.25017401779E+04  0.25017401779E+04  0.25500000000E-02 0. -1.
    8880023    1    1    2    0    0 -0.10530109826E+03  0.65028843902E+02 -0.23091298004E+04  0.24044142141E+04  0.65864270000E+03 0. -1.
    8880022    1    1    2    0    0  0.10530109826E+03 -0.65028843902E+02 -0.78214336556E+02  0.21172200474E+03  0.15294330000E+03 0.  0.
<mgrwt>
<rscale>  0 0.49330401E+03</rscale>
<asrwt>0</asrwt>
<pdfrwt beam="1">  1        2 0.38488306E+00 0.67016959E+03</pdfrwt>
<pdfrwt beam="2">  1       -2 0.17599393E-01 0.67016959E+03</pdfrwt>
<totfact> 0.97119180E+01</totfact>
</mgrwt>
</event>
<event>
 4    2  0.2930016E-007  0.6696582E+03  0.7818608E-02  0.1015909E+00
         -2   -1    0    0    0  501 -0.00000000000E+00  0.00000000000E+00  0.18305725159E+03  0.18305725160E+03  0.25500000000E-02 0.  1.
          2   -1    0    0  501    0  0.00000000000E+00 -0.00000000000E+00 -0.42573191308E+04  0.42573191308E+04  0.25500000000E-02 0. -1.
    8880023    1    1    2    0    0 -0.87761596812E+02  0.83245766316E+02 -0.41698020621E+04  0.42232323402E+04  0.65864270000E+03 0. -1.
    8880022    1    1    2    0    0  0.87761596812E+02 -0.83245766316E+02  0.95540182957E+02  0.21714404219E+03  0.15294330000E+03 0.  0.
<mgrwt>
<rscale>  0 0.49192238E+03</rscale>
<asrwt>0</asrwt>
<pdfrwt beam="1">  1        2 0.65497210E+00 0.66965824E+03</pdfrwt>
<pdfrwt beam="2">  1       -2 0.28162657E-01 0.66965824E+03</pdfrwt>
<totfact> 0.27288482E+00</totfact>
</mgrwt>
</event>
<event>
 4    2  0.2930016E-007  0.7497773E+03  0.7818608E-02  0.9832330E-01
         -2   -1    0    0    0  501 -0.00000000000E+00  0.00000000000E+00  0.21422759374E+04  0.21422759374E+04  0.25500000000E-02 0.  1.
          2   -1    0    0  501    0  0.00000000000E+00 -0.00000000000E+00 -0.38168344106E+03  0.38168344107E+03  0.25500000000E-02 0. -1.
    8880023    1    1    2    0    0  0.13826770607E+03  0.33051158780E+03  0.30332849429E+02  0.75039066907E+03  0.65864270000E+03 0. -1.
    8880022    1    1    2    0    0 -0.13826770607E+03 -0.33051158780E+03  0.17302596469E+04  0.17735687094E+04  0.15294330000E+03 0.  0.
<mgrwt>
<rscale>  0 0.63656014E+03</rscale>
<asrwt>0</asrwt>
<pdfrwt beam="1">  1        2 0.58720530E-01 0.74977735E+03</pdfrwt>
<pdfrwt beam="2">  1       -2 0.32958091E+00 0.74977735E+03</pdfrwt>
<totfact> 0.18350296E+00</totfact>
</mgrwt>
</event>
<event>
 4    2  0.2930016E-007  0.7022984E+03  0.7818608E-02  0.9987797E-01
         -2   -1    0    0    0  501 -0.00000000000E+00  0.00000000000E+00  0.61283756207E+03  0.61283756207E+03  0.25500000000E-02 0.  1.
          2   -1    0    0  501    0  0.00000000000E+00 -0.00000000000E+00 -0.56949570991E+03  0.56949570991E+03  0.25500000000E-02 0. -1.
    8880023    1    1    2    0    0  0.10022143374E+03 -0.22219027485E+03 -0.27408697852E+03  0.75388774501E+03  0.65864270000E+03 0.  0.
    8880022    1    1    2    0    0 -0.10022143374E+03  0.22219027485E+03  0.31742883068E+03  0.42844552697E+03  0.15294330000E+03 0.  1.
<mgrwt>
<rscale>  0 0.56188574E+03</rscale>
<asrwt>0</asrwt>
<pdfrwt beam="1">  1        2 0.87614725E-01 0.70229841E+03</pdfrwt>
<pdfrwt beam="2">  1       -2 0.94282701E-01 0.70229841E+03</pdfrwt>
<totfact> 0.50881055E+01</totfact>
</mgrwt>
</event>
<event>
 4    2  0.2930016E-007  0.9975659E+03  0.7818608E-02  0.9384749E-01
         -2   -1    0    0    0  501 -0.00000000000E+00  0.00000000000E+00  0.86670010006E+03  0.86670010006E+03  0.25500000000E-02 0.  1.
          2   -1    0    0  501    0  0.00000000000E+00 -0.00000000000E+00 -0.98550734949E+03  0.98550734949E+03  0.25500000000E-02 0. -1.
    8880023    1    1    2    0    0 -0.50222558222E+02  0.74753271250E+03 -0.34376267120E+03  0.10551352719E+04  0.65864270000E+03 0.  0.
    8880022    1    1    2    0    0  0.50222558222E+02 -0.74753271250E+03  0.22495542177E+03  0.79707217767E+03  0.15294330000E+03 0.  0.
<mgrwt>
<rscale>  0 0.93341462E+03</rscale>
<asrwt>0</asrwt>
<pdfrwt beam="1">  1        2 0.15161652E+00 0.99756587E+03</pdfrwt>
<pdfrwt beam="2">  1       -2 0.13333848E+00 0.99756587E+03</pdfrwt>
<totfact> 0.10397159E+01</totfact>
</mgrwt>
</event>
<event>
 4    2  0.2930016E-007  0.9515255E+03  0.7818608E-02  0.9447923E-01
         -2   -1    0    0    0  501 -0.00000000000E+00  0.00000000000E+00  0.13462870852E+04  0.13462870852E+04  0.25500000000E-02 0.  1.
          2   -1    0    0  501    0  0.00000000000E+00 -0.00000000000E+00 -0.95472357412E+03  0.95472357412E+03  0.25500000000E-02 0. -1.
    8880023    1    1    2    0    0  0.67559903535E+03  0.12311194385E+03  0.99309146703E+03  0.13753659424E+04  0.65864270000E+03 0.  1.
    8880022    1    1    2    0    0 -0.67559903535E+03 -0.12311194385E+03 -0.60152795593E+03  0.92564471697E+03  0.15294330000E+03 0.  0.
<mgrwt>
<rscale>  0 0.88234623E+03</rscale>
<asrwt>0</asrwt>
<pdfrwt beam="1">  1        2 0.14688055E+00 0.95152552E+03</pdfrwt>
<pdfrwt beam="2">  1       -2 0.20712109E+00 0.95152552E+03</pdfrwt>
<totfact> 0.32157498E+00</totfact>
</mgrwt>
</event>
<event>
 4    2  0.2930016E-007  0.8442919E+03  0.7818608E-02  0.9622140E-01
         -2   -1    0    0    0  501 -0.00000000000E+00  0.00000000000E+00  0.82908316346E+03  0.82908316346E+03  0.25500000000E-02 0.  1.
          2   -1    0    0  501    0  0.00000000000E+00 -0.00000000000E+00 -0.84931072547E+03  0.84931072547E+03  0.25500000000E-02 0. -1.
    8880023    1    1    2    0    0 -0.52764341517E+03 -0.24718542090E+02 -0.47149119096E+03  0.96702261054E+03  0.65864270000E+03 0. -1.
    8880022    1    1    2    0    0  0.52764341517E+03  0.24718542090E+02  0.45126362895E+03  0.71137127839E+03  0.15294330000E+03 0.  0.
<mgrwt>
<rscale>  0 0.75847980E+03</rscale>
<asrwt>0</asrwt>
<pdfrwt beam="1">  1        2 0.13066319E+00 0.84429188E+03</pdfrwt>
<pdfrwt beam="2">  1       -2 0.12755126E+00 0.84429188E+03</pdfrwt>
<totfact> 0.14565771E+01</totfact>
</mgrwt>
</event>
<event>
 4    2  0.2930016E-007  0.7854830E+03  0.7818608E-02  0.9743112E-01
          2   -1    0    0  501    0  0.00000000000E+00  0.00000000000E+00  0.21069563920E+04  0.21069563920E+04  0.25500000000E-02 0. -1.
         -2   -1    0    0    0  501 -0.00000000000E+00 -0.00000000000E+00 -0.18354125855E+03  0.18354125857E+03  0.25500000000E-02 0.  1.
    8880023    1    1    2    0    0 -0.20703917209E+03 -0.37457718400E+03  0.11312258917E+04  0.13771911668E+04  0.65864270000E+03 0. -1.
    8880022    1    1    2    0    0  0.20703917209E+03  0.37457718400E+03  0.79218924170E+03  0.91330648374E+03  0.15294330000E+03 0.  1.
<mgrwt>
<rscale>  0 0.68506954E+03</rscale>
<asrwt>0</asrwt>
<pdfrwt beam="1">  1        2 0.32414712E+00 0.78548297E+03</pdfrwt>
<pdfrwt beam="2">  1       -2 0.28237118E-01 0.78548297E+03</pdfrwt>
<totfact> 0.68546893E+01</totfact>
</mgrwt>
</event>
<event>
 4    2  0.2930016E-007  0.6620438E+03  0.7818608E-02  0.1022154E+00
          2   -1    0    0  501    0  0.00000000000E+00  0.00000000000E+00  0.25435910781E+04  0.25435910781E+04  0.25500000000E-02 0. -1.
         -2   -1    0    0    0  501 -0.00000000000E+00 -0.00000000000E+00 -0.15688513506E+03  0.15688513508E+03  0.25500000000E-02 0.  1.
    8880023    1    1    2    0    0 -0.66932385571E+02 -0.34493988899E+01  0.24376032499E+04  0.25259080847E+04  0.65864270000E+03 0.  0.
    8880022    1    1    2    0    0  0.66932385571E+02  0.34493988899E+01 -0.50897306867E+02  0.17456812840E+03  0.15294330000E+03 0.  0.
<mgrwt>
<rscale>  0 0.46917349E+03</rscale>
<asrwt>0</asrwt>
<pdfrwt beam="1">  1        2 0.39132169E+00 0.66204384E+03</pdfrwt>
<pdfrwt beam="2">  1       -2 0.24136175E-01 0.66204384E+03</pdfrwt>
<totfact> 0.52905641E+01</totfact>
</mgrwt>
</event>
<event>
 4    2  0.2930016E-007  0.7317889E+03  0.7818608E-02  0.9884545E-01
         -2   -1    0    0    0  501 -0.00000000000E+00  0.00000000000E+00  0.43924760538E+03  0.43924760539E+03  0.25500000000E-02 0.  1.
          2   -1    0    0  501    0  0.00000000000E+00 -0.00000000000E+00 -0.11234061507E+04  0.11234061507E+04  0.25500000000E-02 0. -1.
    8880023    1    1    2    0    0  0.45879065355E+02 -0.31559458220E+03 -0.89094357736E+03  0.11529507766E+04  0.65864270000E+03 0. -1.
    8880022    1    1    2    0    0 -0.45879065355E+02  0.31559458220E+03  0.20678503201E+03  0.40970297953E+03  0.15294330000E+03 0.  0.
<mgrwt>
<rscale>  0 0.61016180E+03</rscale>
<asrwt>0</asrwt>
<pdfrwt beam="1">  1        2 0.17283171E+00 0.73178893E+03</pdfrwt>
<pdfrwt beam="2">  1       -2 0.67576555E-01 0.73178893E+03</pdfrwt>
<totfact> 0.43101589E+01</totfact>
</mgrwt>
</event>
<event>
 4    2  0.2930016E-007  0.7058212E+03  0.7818608E-02  0.9973859E-01
         -2   -1    0    0    0  501 -0.00000000000E+00  0.00000000000E+00  0.70371047605E+03  0.70371047606E+03  0.25500000000E-02 0.  1.
          2   -1    0    0  501    0  0.00000000000E+00 -0.00000000000E+00 -0.69836450626E+03  0.69836450626E+03  0.25500000000E-02 0. -1.
    8880023    1    1    2    0    0  0.42781081570E+02  0.25008635824E+03 -0.46570089316E+03  0.84561275752E+03  0.65864270000E+03 0.  0.
    8880022    1    1    2    0    0 -0.42781081570E+02 -0.25008635824E+03  0.47104686296E+03  0.55646222481E+03  0.15294330000E+03 0.  0.
<mgrwt>
<rscale>  0 0.56811499E+03</rscale>
<asrwt>0</asrwt>
<pdfrwt beam="1">  1        2 0.10744069E+00 0.70582123E+03</pdfrwt>
<pdfrwt beam="2">  1       -2 0.10826315E+00 0.70582123E+03</pdfrwt>
<totfact> 0.28549939E+01</totfact>
</mgrwt>
</event>
<event>
 4    2  0.2930016E-007  0.7774730E+03  0.7818608E-02  0.9761807E-01
          2   -1    0    0  501    0  0.00000000000E+00  0.00000000000E+00  0.19569812961E+04  0.19569812961E+04  0.25500000000E-02 0. -1.
         -2   -1    0    0    0  501 -0.00000000000E+00 -0.00000000000E+00 -0.31561649774E+03  0.31561649775E+03  0.25500000000E-02 0.  1.
    8880023    1    1    2    0    0  0.23130624015E+03 -0.34227392282E+03  0.16585730483E+04  0.18317556545E+04  0.65864270000E+03 0. -1.
    8880022    1    1    2    0    0 -0.23130624015E+03  0.34227392282E+03 -0.17208249914E+02  0.44084213938E+03  0.15294330000E+03 0.  0.
<mgrwt>
<rscale>  0 0.67453109E+03</rscale>
<asrwt>0</asrwt>
<pdfrwt beam="1">  1        2 0.30107405E+00 0.77747297E+03</pdfrwt>
<pdfrwt beam="2">  1       -2 0.48556383E-01 0.77747297E+03</pdfrwt>
<totfact> 0.29158370E+01</totfact>
</mgrwt>
</event>
<event>
 4    2  0.2930016E-007  0.7313694E+03  0.7818608E-02  0.9885840E-01
         -2   -1    0    0    0  501 -0.00000000000E+00  0.00000000000E+00  0.97280046985E+03  0.97280046986E+03  0.25500000000E-02 0.  1.
          2   -1    0    0  501    0  0.00000000000E+00 -0.00000000000E+00 -0.50463038230E+03  0.50463038230E+03  0.25500000000E-02 0. -1.
    8880023    1    1    2    0    0 -0.34717279750E+02  0.31604692508E+03 -0.16759593327E+03  0.75032629667E+03  0.65864270000E+03 0. -1.
    8880022    1    1    2    0    0  0.34717279750E+02 -0.31604692508E+03  0.63576602082E+03  0.72710455549E+03  0.15294330000E+03 0.  0.
<mgrwt>
<rscale>  0 0.60952449E+03</rscale>
<asrwt>0</asrwt>
<pdfrwt beam="1">  1        2 0.77635444E-01 0.73136937E+03</pdfrwt>
<pdfrwt beam="2">  1       -2 0.14966161E+00 0.73136937E+03</pdfrwt>
<totfact> 0.18645176E+01</totfact>
</mgrwt>
</event>
<event>
 4    2  0.2930016E-007  0.1152078E+04  0.7818608E-02  0.9205175E-01
         -2   -1    0    0    0  501 -0.00000000000E+00  0.00000000000E+00  0.13471873472E+04  0.13471873472E+04  0.25500000000E-02 0.  1.
          2   -1    0    0  501    0  0.00000000000E+00 -0.00000000000E+00 -0.94459789005E+03  0.94459789005E+03  0.25500000000E-02 0. -1.
    8880023    1    1    2    0    0  0.51503184132E+03 -0.79260006904E+03 -0.18720265896E+03  0.11671879492E+04  0.65864270000E+03 0.  0.
    8880022    1    1    2    0    0 -0.51503184132E+03  0.79260006904E+03  0.58979211612E+03  0.11245972880E+04  0.15294330000E+03 0.  0.
<mgrwt>
<rscale>  0 0.11000171E+04</rscale>
<asrwt>0</asrwt>
<pdfrwt beam="1">  1        2 0.14532275E+00 0.11520776E+04</pdfrwt>
<pdfrwt beam="2">  1       -2 0.20725959E+00 0.11520776E+04</pdfrwt>
<totfact> 0.31915435E+00</totfact>
</mgrwt>
</event>
<event>
 4    2  0.2930016E-007  0.6922180E+03  0.7818608E-02  0.1003116E+00
         -2   -1    0    0    0  501 -0.00000000000E+00  0.00000000000E+00  0.38621404169E+03  0.38621404170E+03  0.25500000000E-02 0.  1.
          2   -1    0    0  501    0  0.00000000000E+00 -0.00000000000E+00 -0.18898465571E+04  0.18898465571E+04  0.25500000000E-02 0. -1.
    8880023    1    1    2    0    0  0.86030360870E+02  0.19481875517E+03 -0.17710664126E+04  0.19015367507E+04  0.65864270000E+03 0. -1.
    8880022    1    1    2    0    0 -0.86030360870E+02 -0.19481875517E+03  0.26743389720E+03  0.37452384803E+03  0.15294330000E+03 0.  0.
<mgrwt>
<rscale>  0 0.54304906E+03</rscale>
<asrwt>0</asrwt>
<pdfrwt beam="1">  1        2 0.29074562E+00 0.69221801E+03</pdfrwt>
<pdfrwt beam="2">  1       -2 0.59417546E-01 0.69221801E+03</pdfrwt>
<totfact> 0.21149950E+01</totfact>
</mgrwt>
</event>
<event>
 4    2  0.2930016E-007  0.7743931E+03  0.7818608E-02  0.9769176E-01
          2   -1    0    0  501    0  0.00000000000E+00  0.00000000000E+00  0.98715938756E+03  0.98715938756E+03  0.25500000000E-02 0. -1.
         -2   -1    0    0    0  501 -0.00000000000E+00 -0.00000000000E+00 -0.38736392947E+03  0.38736392947E+03  0.25500000000E-02 0.  1.
    8880023    1    1    2    0    0 -0.30541647435E+03  0.26943498804E+03  0.51849380955E+03  0.93194445778E+03  0.65864270000E+03 0.  1.
    8880022    1    1    2    0    0  0.30541647435E+03 -0.26943498804E+03  0.81301648543E+02  0.44257885925E+03  0.15294330000E+03 0.  0.
<mgrwt>
<rscale>  0 0.67043271E+03</rscale>
<asrwt>0</asrwt>
<pdfrwt beam="1">  1        2 0.15187068E+00 0.77439308E+03</pdfrwt>
<pdfrwt beam="2">  1       -2 0.59594450E-01 0.77439308E+03</pdfrwt>
<totfact> 0.68312262E+01</totfact>
</mgrwt>
</event>
<event>
 4    2  0.2930016E-007  0.7932050E+03  0.7818608E-02  0.9725685E-01
         -2   -1    0    0    0  501 -0.00000000000E+00  0.00000000000E+00  0.14011789252E+04  0.14011789252E+04  0.25500000000E-02 0.  1.
          2   -1    0    0  501    0  0.00000000000E+00 -0.00000000000E+00 -0.43427922921E+03  0.43427922922E+03  0.25500000000E-02 0. -1.
    8880023    1    1    2    0    0 -0.17008627515E+03 -0.40796396615E+03  0.36418667541E+02  0.79404059360E+03  0.65864270000E+03 0.  0.
    8880022    1    1    2    0    0  0.17008627515E+03  0.40796396615E+03  0.93048102843E+03  0.10414175608E+04  0.15294330000E+03 0.  0.
<mgrwt>
<rscale>  0 0.69507868E+03</rscale>
<asrwt>0</asrwt>
<pdfrwt beam="1">  1        2 0.66812188E-01 0.79320498E+03</pdfrwt>
<pdfrwt beam="2">  1       -2 0.21556599E+00 0.79320498E+03</pdfrwt>
<totfact> 0.77674193E+00</totfact>
</mgrwt>
</event>
<event>
 4    2  0.2930016E-007  0.6610332E+03  0.7818608E-02  0.1023122E+00
          2   -1    0    0  501    0  0.00000000000E+00  0.00000000000E+00  0.11951409718E+04  0.11951409718E+04  0.25500000000E-02 0. -1.
         -2   -1    0    0    0  501 -0.00000000000E+00 -0.00000000000E+00 -0.24857265523E+03  0.24857265524E+03  0.25500000000E-02 0.  1.
    8880023    1    1    2    0    0 -0.56021219488E+02  0.40309783321E+01  0.10571448069E+04  0.12468039039E+04  0.65864270000E+03 0. -1.
    8880022    1    1    2    0    0  0.56021219488E+02 -0.40309783321E+01 -0.11057649035E+03  0.19690972310E+03  0.15294330000E+03 0.  0.
<mgrwt>
<rscale>  0 0.46576611E+03</rscale>
<asrwt>0</asrwt>
<pdfrwt beam="1">  1        2 0.18386784E+00 0.66103316E+03</pdfrwt>
<pdfrwt beam="2">  1       -2 0.38241948E-01 0.66103316E+03</pdfrwt>
<totfact> 0.12573086E+02</totfact>
</mgrwt>
</event>
<event>
 4    2  0.2930016E-007  0.7685083E+03  0.7818608E-02  0.9783558E-01
         -2   -1    0    0    0  501 -0.00000000000E+00  0.00000000000E+00  0.12197235308E+04  0.12197235308E+04  0.25500000000E-02 0.  1.
          2   -1    0    0  501    0  0.00000000000E+00 -0.00000000000E+00 -0.37782678123E+03  0.37782678124E+03  0.25500000000E-02 0. -1.
    8880023    1    1    2    0    0 -0.38337472673E+03 -0.99089041876E+02  0.14577054622E+03  0.78221101867E+03  0.65864270000E+03 0.  0.
    8880022    1    1    2    0    0  0.38337472673E+03  0.99089041876E+02  0.69612620335E+03  0.81533929337E+03  0.15294330000E+03 0.  0.
<mgrwt>
<rscale>  0 0.66252413E+03</rscale>
<asrwt>0</asrwt>
<pdfrwt beam="1">  1        2 0.58127197E-01 0.76850831E+03</pdfrwt>
<pdfrwt beam="2">  1       -2 0.18764977E+00 0.76850831E+03</pdfrwt>
<totfact> 0.13834177E+01</totfact>
</mgrwt>
</event>
<event>
 4    2  0.2930016E-007  0.7460617E+03  0.7818608E-02  0.9842629E-01
          2   -1    0    0  501    0  0.00000000000E+00  0.00000000000E+00  0.81554604005E+03  0.81554604006E+03  0.25500000000E-02 0. -1.
         -2   -1    0    0    0  501 -0.00000000000E+00 -0.00000000000E+00 -0.10013523614E+04  0.10013523614E+04  0.25500000000E-02 0.  1.
    8880023    1    1    2    0    0  0.28937356190E+03 -0.19763821860E+03  0.59054656069E+03  0.95150058875E+03  0.65864270000E+03 0. -1.
    8880022    1    1    2    0    0 -0.28937356190E+03  0.19763821860E+03 -0.77635288200E+03  0.86539781268E+03  0.15294330000E+03 0.  0.
<mgrwt>
<rscale>  0 0.63124163E+03</rscale>
<asrwt>0</asrwt>
<pdfrwt beam="1">  1        2 0.12546862E+00 0.74606175E+03</pdfrwt>
<pdfrwt beam="2">  1       -2 0.15405421E+00 0.74606175E+03</pdfrwt>
<totfact> 0.95283062E+00</totfact>
</mgrwt>
</event>
<event>
 4    2  0.2930016E-007  0.6655087E+03  0.7818608E-02  0.1019110E+00
          2   -1    0    0  501    0  0.00000000000E+00  0.00000000000E+00  0.13028218768E+04  0.13028218768E+04  0.25500000000E-02 0. -1.
         -2   -1    0    0    0  501 -0.00000000000E+00 -0.00000000000E+00 -0.15233868146E+03  0.15233868148E+03  0.25500000000E-02 0.  1.
    8880023    1    1    2    0    0 -0.59695289294E+02  0.74351381411E+02  0.10646355896E+04  0.12555280962E+04  0.65864270000E+03 0. -1.
    8880022    1    1    2    0    0  0.59695289294E+02 -0.74351381411E+02  0.85847605741E+02  0.19963246206E+03  0.15294330000E+03 0.  0.
<mgrwt>
<rscale>  0 0.48009021E+03</rscale>
<asrwt>0</asrwt>
<pdfrwt beam="1">  1        2 0.20043413E+00 0.66550872E+03</pdfrwt>
<pdfrwt beam="2">  1       -2 0.23436721E-01 0.66550872E+03</pdfrwt>
<totfact> 0.26964985E+02</totfact>
</mgrwt>
</event>
<event>
 4    2  0.2930016E-007  0.8951552E+03  0.7818608E-02  0.9533854E-01
          2   -1    0    0  501    0  0.00000000000E+00  0.00000000000E+00  0.94757210271E+03  0.94757210271E+03  0.25500000000E-02 0. -1.
         -2   -1    0    0    0  501 -0.00000000000E+00 -0.00000000000E+00 -0.10961641940E+04  0.10961641940E+04  0.25500000000E-02 0.  1.
    8880023    1    1    2    0    0  0.76212212054E+02 -0.60140191879E+03  0.59300739044E+03  0.10737600014E+04  0.65864270000E+03 0. -1.
    8880022    1    1    2    0    0 -0.76212212054E+02  0.60140191879E+03 -0.74159948177E+03  0.96997629536E+03  0.15294330000E+03 0.  1.
<mgrwt>
<rscale>  0 0.81833243E+03</rscale>
<asrwt>0</asrwt>
<pdfrwt beam="1">  1        2 0.14578032E+00 0.89515517E+03</pdfrwt>
<pdfrwt beam="2">  1       -2 0.16864065E+00 0.89515517E+03</pdfrwt>
<totfact> 0.59509116E+00</totfact>
</mgrwt>
</event>
<event>
 4    2  0.2930016E-007  0.7906617E+03  0.7818608E-02  0.9731363E-01
          2   -1    0    0  501    0  0.00000000000E+00  0.00000000000E+00  0.11261650675E+04  0.11261650675E+04  0.25500000000E-02 0. -1.
         -2   -1    0    0    0  501 -0.00000000000E+00 -0.00000000000E+00 -0.11433093242E+04  0.11433093242E+04  0.25500000000E-02 0.  1.
    8880023    1    1    2    0    0  0.42910739200E+03 -0.84868018520E+02  0.92661059425E+03  0.12180940580E+04  0.65864270000E+03 0. -1.
    8880022    1    1    2    0    0 -0.42910739200E+03  0.84868018520E+02 -0.94375485095E+03  0.10513803337E+04  0.15294330000E+03 0.  0.
<mgrwt>
<rscale>  0 0.69179746E+03</rscale>
<asrwt>0</asrwt>
<pdfrwt beam="1">  1        2 0.17325616E+00 0.79066171E+03</pdfrwt>
<pdfrwt beam="2">  1       -2 0.17589374E+00 0.79066171E+03</pdfrwt>
<totfact> 0.41338357E+00</totfact>
</mgrwt>
</event>
<event>
 4    2  0.2930016E-007  0.1273488E+04  0.7818608E-02  0.9088800E-01
         -2   -1    0    0    0  501 -0.00000000000E+00  0.00000000000E+00  0.12614079747E+04  0.12614079747E+04  0.25500000000E-02 0.  1.
          2   -1    0    0  501    0  0.00000000000E+00 -0.00000000000E+00 -0.12411386976E+04  0.12411386976E+04  0.25500000000E-02 0. -1.
    8880023    1    1    2    0    0 -0.73099238470E+03  0.80846231030E+03  0.40545671117E+03  0.13364754111E+04  0.65864270000E+03 0.  0.
    8880022    1    1    2    0    0  0.73099238470E+03 -0.80846231030E+03 -0.38518743405E+03  0.11660712611E+04  0.15294330000E+03 0.  0.
<mgrwt>
<rscale>  0 0.12278772E+04</rscale>
<asrwt>0</asrwt>
<pdfrwt beam="1">  1        2 0.19094442E+00 0.12734879E+04</pdfrwt>
<pdfrwt beam="2">  1       -2 0.19406277E+00 0.12734879E+04</pdfrwt>
<totfact> 0.25128900E+00</totfact>
</mgrwt>
</event>
<event>
 4    2  0.2930016E-007  0.6819430E+03  0.7818608E-02  0.1008245E+00
         -2   -1    0    0    0  501 -0.00000000000E+00  0.00000000000E+00  0.27671871761E+03  0.27671871762E+03  0.25500000000E-02 0.  1.
          2   -1    0    0  501    0  0.00000000000E+00 -0.00000000000E+00 -0.19451278937E+04  0.19451278937E+04  0.25500000000E-02 0. -1.
    8880023    1    1    2    0    0  0.16705555840E+03 -0.57693608516E+02 -0.18197973029E+04  0.19433755535E+04  0.65864270000E+03 0. -1.
    8880022    1    1    2    0    0 -0.16705555840E+03  0.57693608516E+02  0.15138812685E+03  0.27847105778E+03  0.15294330000E+03 0.  0.
<mgrwt>
<rscale>  0 0.52178040E+03</rscale>
<asrwt>0</asrwt>
<pdfrwt beam="1">  1        2 0.29925044E+00 0.68194305E+03</pdfrwt>
<pdfrwt beam="2">  1       -2 0.42572112E-01 0.68194305E+03</pdfrwt>
<totfact> 0.38967928E+01</totfact>
</mgrwt>
</event>
<event>
 4    2  0.2930016E-007  0.7650993E+03  0.7818608E-02  0.9792080E-01
         -2   -1    0    0    0  501 -0.00000000000E+00  0.00000000000E+00  0.72917074895E+03  0.72917074896E+03  0.25500000000E-02 0.  1.
          2   -1    0    0  501    0  0.00000000000E+00 -0.00000000000E+00 -0.10428727586E+04  0.10428727586E+04  0.25500000000E-02 0. -1.
    8880023    1    1    2    0    0 -0.38424490655E+03 -0.62630278464E+02 -0.81587032059E+03  0.11184906286E+04  0.65864270000E+03 0. -1.
    8880022    1    1    2    0    0  0.38424490655E+03  0.62630278464E+02  0.50216831097E+03  0.65355287892E+03  0.15294330000E+03 0.  0.
<mgrwt>
<rscale>  0 0.65789287E+03</rscale>
<asrwt>0</asrwt>
<pdfrwt beam="1">  1        2 0.16044196E+00 0.76509928E+03</pdfrwt>
<pdfrwt beam="2">  1       -2 0.11218012E+00 0.76509928E+03</pdfrwt>
<totfact> 0.15048050E+01</totfact>
</mgrwt>
</event>
<event>
 4    2  0.2930016E-007  0.6651426E+03  0.7818608E-02  0.1019414E+00
         -2   -1    0    0    0  501 -0.00000000000E+00  0.00000000000E+00  0.20409937335E+03  0.20409937337E+03  0.25500000000E-02 0.  1.
          2   -1    0    0  501    0  0.00000000000E+00 -0.00000000000E+00 -0.11413300706E+04  0.11413300706E+04  0.25500000000E-02 0. -1.
    8880023    1    1    2    0    0  0.92548159162E+02  0.62671790239E+01 -0.95702159063E+03  0.11654634145E+04  0.65864270000E+03 0. -1.
    8880022    1    1    2    0    0 -0.92548159162E+02 -0.62671790239E+01  0.19790893372E+02  0.17996602950E+03  0.15294330000E+03 0.  0.
<mgrwt>
<rscale>  0 0.47898640E+03</rscale>
<asrwt>0</asrwt>
<pdfrwt beam="1">  1        2 0.17558924E+00 0.66514258E+03</pdfrwt>
<pdfrwt beam="2">  1       -2 0.31399904E-01 0.66514258E+03</pdfrwt>
<totfact> 0.19669616E+02</totfact>
</mgrwt>
</event>
<event>
 4    2  0.2930016E-007  0.8247126E+03  0.7818608E-02  0.9659709E-01
         -2   -1    0    0    0  501 -0.00000000000E+00  0.00000000000E+00  0.10248720257E+04  0.10248720257E+04  0.25500000000E-02 0.  1.
          2   -1    0    0  501    0  0.00000000000E+00 -0.00000000000E+00 -0.98670149592E+03  0.98670149592E+03  0.25500000000E-02 0. -1.
    8880023    1    1    2    0    0 -0.49572649069E+03 -0.24411474415E+02 -0.71851106072E+03  0.10938048383E+04  0.65864270000E+03 0. -1.
    8880022    1    1    2    0    0  0.49572649069E+03  0.24411474415E+02  0.75668159048E+03  0.91776868330E+03  0.15294330000E+03 0.  0.
<mgrwt>
<rscale>  0 0.73467219E+03</rscale>
<asrwt>0</asrwt>
<pdfrwt beam="1">  1        2 0.15180023E+00 0.82471260E+03</pdfrwt>
<pdfrwt beam="2">  1       -2 0.15767262E+00 0.82471260E+03</pdfrwt>
<totfact> 0.67992920E+00</totfact>
</mgrwt>
</event>
<event>
 4    2  0.2930016E-007  0.7741377E+03  0.7818608E-02  0.9769792E-01
         -2   -1    0    0    0  501 -0.00000000000E+00  0.00000000000E+00  0.40626209043E+03  0.40626209043E+03  0.25500000000E-02 0.  1.
          2   -1    0    0  501    0  0.00000000000E+00 -0.00000000000E+00 -0.11428542865E+04  0.11428542865E+04  0.25500000000E-02 0. -1.
    8880023    1    1    2    0    0  0.21296772477E+03 -0.34658867301E+03 -0.79614031342E+03  0.11104632209E+04  0.65864270000E+03 0.  0.
    8880022    1    1    2    0    0 -0.21296772477E+03  0.34658867301E+03  0.59548117296E+02  0.43865315609E+03  0.15294330000E+03 0.  0.
<mgrwt>
<rscale>  0 0.67009165E+03</rscale>
<asrwt>0</asrwt>
<pdfrwt beam="1">  1        2 0.17582373E+00 0.77413769E+03</pdfrwt>
<pdfrwt beam="2">  1       -2 0.62501861E-01 0.77413769E+03</pdfrwt>
<totfact> 0.49414826E+01</totfact>
</mgrwt>
</event>
<event>
 4    2  0.2930016E-007  0.7451900E+03  0.7818608E-02  0.9845079E-01
         -2   -1    0    0    0  501 -0.00000000000E+00  0.00000000000E+00  0.19200939872E+03  0.19200939874E+03  0.25500000000E-02 0.  1.
          2   -1    0    0  501    0  0.00000000000E+00 -0.00000000000E+00 -0.27254301008E+04  0.27254301008E+04  0.25500000000E-02 0. -1.
    8880023    1    1    2    0    0  0.34313590652E+03 -0.61283102322E+02 -0.24016970346E+04  0.25146484289E+04  0.65864270000E+03 0. -1.
    8880022    1    1    2    0    0 -0.34313590652E+03  0.61283102322E+02 -0.13172366752E+03  0.40279107062E+03  0.15294330000E+03 0.  0.
<mgrwt>
<rscale>  0 0.62998451E+03</rscale>
<asrwt>0</asrwt>
<pdfrwt beam="1">  1        2 0.41929691E+00 0.74518996E+03</pdfrwt>
<pdfrwt beam="2">  1       -2 0.29539910E-01 0.74518996E+03</pdfrwt>
<totfact> 0.28415939E+01</totfact>
</mgrwt>
</event>
<event>
 4    2  0.2930016E-007  0.1213244E+04  0.7818608E-02  0.9144354E-01
         -2   -1    0    0    0  501 -0.00000000000E+00  0.00000000000E+00  0.63413239769E+03  0.63413239770E+03  0.25500000000E-02 0.  1.
          2   -1    0    0  501    0  0.00000000000E+00 -0.00000000000E+00 -0.22538217527E+04  0.22538217527E+04  0.25500000000E-02 0. -1.
    8880023    1    1    2    0    0  0.71736904613E+02  0.10163687103E+04 -0.13657486112E+04  0.18268089703E+04  0.65864270000E+03 0.  0.
    8880022    1    1    2    0    0 -0.71736904613E+02 -0.10163687103E+04 -0.25394074384E+03  0.10611451801E+04  0.15294330000E+03 0.  0.
<mgrwt>
<rscale>  0 0.11646714E+04</rscale>
<asrwt>0</asrwt>
<pdfrwt beam="1">  1        2 0.34674180E+00 0.12132443E+04</pdfrwt>
<pdfrwt beam="2">  1       -2 0.97558832E-01 0.12132443E+04</pdfrwt>
<totfact> 0.41310902E+00</totfact>
</mgrwt>
</event>
<event>
 4    2  0.2930016E-007  0.9790414E+03  0.7818608E-02  0.9409506E-01
         -2   -1    0    0    0  501 -0.00000000000E+00  0.00000000000E+00  0.38182613188E+03  0.38182613189E+03  0.25500000000E-02 0.  1.
          2   -1    0    0  501    0  0.00000000000E+00 -0.00000000000E+00 -0.39177537473E+04  0.39177537473E+04  0.25500000000E-02 0. -1.
    8880023    1    1    2    0    0  0.28678443249E+03  0.66518163439E+03 -0.34110618642E+04  0.35487836177E+04  0.65864270000E+03 0. -1.
    8880022    1    1    2    0    0 -0.28678443249E+03 -0.66518163439E+03 -0.12486575120E+03  0.75079626150E+03  0.15294330000E+03 0.  0.
<mgrwt>
<rscale>  0 0.91297447E+03</rscale>
<asrwt>0</asrwt>
<pdfrwt beam="1">  1        2 0.60273132E+00 0.97904143E+03</pdfrwt>
<pdfrwt beam="2">  1       -2 0.58742484E-01 0.97904143E+03</pdfrwt>
<totfact> 0.11378122E+00</totfact>
</mgrwt>
</event>
<event>
 4    2  0.2930016E-007  0.7098254E+03  0.7818608E-02  0.9958650E-01
          2   -1    0    0  501    0  0.00000000000E+00  0.00000000000E+00  0.13866674024E+04  0.13866674024E+04  0.25500000000E-02 0. -1.
         -2   -1    0    0    0  501 -0.00000000000E+00 -0.00000000000E+00 -0.88575515915E+03  0.88575515915E+03  0.25500000000E-02 0.  1.
    8880023    1    1    2    0    0  0.19830620298E+03  0.17526132934E+03  0.12643993447E+04  0.14500199284E+04  0.65864270000E+03 0. -1.
    8880022    1    1    2    0    0 -0.19830620298E+03 -0.17526132934E+03 -0.76348710151E+03  0.82240263307E+03  0.15294330000E+03 0.  0.
<mgrwt>
<rscale>  0 0.57501146E+03</rscale>
<asrwt>0</asrwt>
<pdfrwt beam="1">  1        2 0.21333345E+00 0.70982539E+03</pdfrwt>
<pdfrwt beam="2">  1       -2 0.13627002E+00 0.70982539E+03</pdfrwt>
<totfact> 0.58410539E+00</totfact>
</mgrwt>
</event>
<event>
 4    2  0.2930016E-007  0.7343846E+03  0.7818608E-02  0.9876617E-01
         -2   -1    0    0    0  501 -0.00000000000E+00  0.00000000000E+00  0.63501875069E+03  0.63501875070E+03  0.25500000000E-02 0.  1.
          2   -1    0    0  501    0  0.00000000000E+00 -0.00000000000E+00 -0.19665605084E+04  0.19665605084E+04  0.25500000000E-02 0. -1.
    8880023    1    1    2    0    0  0.11788553459E+03 -0.30267717333E+03 -0.18388527511E+04  0.19800757856E+04  0.65864270000E+03 0. -1.
    8880022    1    1    2    0    0 -0.11788553459E+03  0.30267717333E+03  0.50731099336E+03  0.62150347346E+03  0.15294330000E+03 0.  0.
<mgrwt>
<rscale>  0 0.61408029E+03</rscale>
<asrwt>0</asrwt>
<pdfrwt beam="1">  1        2 0.30254777E+00 0.73438456E+03</pdfrwt>
<pdfrwt beam="2">  1       -2 0.97695193E-01 0.73438456E+03</pdfrwt>
<totfact> 0.63155529E+00</totfact>
</mgrwt>
</event>
<event>
 4    2  0.2930016E-007  0.8987989E+03  0.7818608E-02  0.9527963E-01
          2   -1    0    0  501    0  0.00000000000E+00  0.00000000000E+00  0.81084175124E+03  0.81084175125E+03  0.25500000000E-02 0. -1.
         -2   -1    0    0    0  501 -0.00000000000E+00 -0.00000000000E+00 -0.11553038971E+04  0.11553038971E+04  0.25500000000E-02 0.  1.
    8880023    1    1    2    0    0  0.59001754027E+03  0.16096117759E+03  0.40582437805E+03  0.98617079180E+03  0.65864270000E+03 0.  0.
    8880022    1    1    2    0    0 -0.59001754027E+03 -0.16096117759E+03 -0.75028652391E+03  0.97997485656E+03  0.15294330000E+03 0.  0.
<mgrwt>
<rscale>  0 0.82253279E+03</rscale>
<asrwt>0</asrwt>
<pdfrwt beam="1">  1        2 0.12474488E+00 0.89879887E+03</pdfrwt>
<pdfrwt beam="2">  1       -2 0.17773906E+00 0.89879887E+03</pdfrwt>
<totfact> 0.63719037E+00</totfact>
</mgrwt>
</event>
<event>
 4    2  0.2930016E-007  0.7075968E+03  0.7818608E-02  0.9967036E-01
          2   -1    0    0  501    0  0.00000000000E+00  0.00000000000E+00  0.16275525828E+04  0.16275525828E+04  0.25500000000E-02 0. -1.
         -2   -1    0    0    0  501 -0.00000000000E+00 -0.00000000000E+00 -0.32359635606E+03  0.32359635607E+03  0.25500000000E-02 0.  1.
    8880023    1    1    2    0    0  0.23778979323E+03  0.10168092293E+03  0.14527152399E+04  0.16158820410E+04  0.65864270000E+03 0.  0.
    8880022    1    1    2    0    0 -0.23778979323E+03 -0.10168092293E+03 -0.14875901312E+03  0.33526689793E+03  0.15294330000E+03 0.  0.
<mgrwt>
<rscale>  0 0.57119594E+03</rscale>
<asrwt>0</asrwt>
<pdfrwt beam="1">  1        2 0.25039270E+00 0.70759678E+03</pdfrwt>
<pdfrwt beam="2">  1       -2 0.49784055E-01 0.70759678E+03</pdfrwt>
<totfact> 0.42298326E+01</totfact>
</mgrwt>
</event>
<event>
 4    2  0.3600541E-007  0.9744995E+03  0.7818608E-02  0.9415708E-01
         -2   -1    0    0    0  501 -0.00000000000E+00  0.00000000000E+00  0.15204895561E+04  0.15204895561E+04  0.25500000000E-02 0.  1.
          2   -1    0    0  501    0  0.00000000000E+00 -0.00000000000E+00 -0.17814655550E+04  0.17814655550E+04  0.25500000000E-02 0. -1.
    8880023    1    1    2    0    0  0.59468931679E+03  0.40272024929E+03 -0.15427397712E+04  0.18247452399E+04  0.65864270000E+03 0.  0.
    8880022    1    1    2    0    0 -0.59468931679E+03 -0.40272024929E+03  0.12817637722E+04  0.14772098712E+04  0.15294330000E+03 0.  0.
<mgrwt>
<rscale>  0 0.90794182E+03</rscale>
<asrwt>0</asrwt>
<pdfrwt beam="1">  1        2 0.27407163E+00 0.97449946E+03</pdfrwt>
<pdfrwt beam="2">  1       -2 0.23392147E+00 0.97449946E+03</pdfrwt>
<totfact> 0.71605450E-01</totfact>
</mgrwt>
</event>
<event>
 4    2  0.2930016E-007  0.6882698E+03  0.7818608E-02  0.1004986E+00
          2   -1    0    0  501    0  0.00000000000E+00  0.00000000000E+00  0.40442449517E+04  0.40442449517E+04  0.25500000000E-02 0. -1.
         -2   -1    0    0    0  501 -0.00000000000E+00 -0.00000000000E+00 -0.36147898588E+03  0.36147898589E+03  0.25500000000E-02 0.  1.
    8880023    1    1    2    0    0  0.11948133778E+03  0.16009168498E+03  0.39669269324E+04  0.40261923241E+04  0.65864270000E+03 0. -1.
    8880022    1    1    2    0    0 -0.11948133778E+03 -0.16009168498E+03 -0.28416096657E+03  0.37953161346E+03  0.15294330000E+03 0.  0.
<mgrwt>
<rscale>  0 0.53516999E+03</rscale>
<asrwt>0</asrwt>
<pdfrwt beam="1">  1        2 0.62219148E+00 0.68826982E+03</pdfrwt>
<pdfrwt beam="2">  1       -2 0.55612156E-01 0.68826982E+03</pdfrwt>
<totfact> 0.10834890E+00</totfact>
</mgrwt>
</event>
<event>
 4    2  0.2930016E-007  0.1014618E+04  0.7818608E-02  0.9362678E-01
         -2   -1    0    0    0  501 -0.00000000000E+00  0.00000000000E+00  0.12962457368E+04  0.12962457368E+04  0.25500000000E-02 0.  1.
          2   -1    0    0  501    0  0.00000000000E+00 -0.00000000000E+00 -0.12071583859E+04  0.12071583859E+04  0.25500000000E-02 0. -1.
    8880023    1    1    2    0    0  0.42746666625E+03  0.64258226215E+03 -0.81752612916E+03  0.13029961214E+04  0.65864270000E+03 0.  0.
    8880022    1    1    2    0    0 -0.42746666625E+03 -0.64258226215E+03  0.90661348001E+03  0.12004080013E+04  0.15294330000E+03 0.  0.
<mgrwt>
<rscale>  0 0.95211858E+03</rscale>
<asrwt>0</asrwt>
<pdfrwt beam="1">  1        2 0.18571668E+00 0.10146181E+04</pdfrwt>
<pdfrwt beam="2">  1       -2 0.19942242E+00 0.10146181E+04</pdfrwt>
<totfact> 0.24925221E+00</totfact>
</mgrwt>
</event>
<event>
 4    2  0.2930016E-007  0.9742005E+03  0.7818608E-02  0.9416118E-01
         -2   -1    0    0    0  501 -0.00000000000E+00  0.00000000000E+00  0.56254200778E+03  0.56254200778E+03  0.25500000000E-02 0.  1.
          2   -1    0    0  501    0  0.00000000000E+00 -0.00000000000E+00 -0.30652758422E+04  0.30652758422E+04  0.25500000000E-02 0. -1.
    8880023    1    1    2    0    0  0.32454025596E+03  0.64025775369E+03 -0.26978858853E+04  0.28683888902E+04  0.65864270000E+03 0.  0.
    8880022    1    1    2    0    0 -0.32454025596E+03 -0.64025775369E+03  0.19515205095E+03  0.75942895974E+03  0.15294330000E+03 0.  0.
<mgrwt>
<rscale>  0 0.90761024E+03</rscale>
<asrwt>0</asrwt>
<pdfrwt beam="1">  1        2 0.47158089E+00 0.97420048E+03</pdfrwt>
<pdfrwt beam="2">  1       -2 0.86544926E-01 0.97420048E+03</pdfrwt>
<totfact> 0.18797353E+00</totfact>
</mgrwt>
</event>
<event>
 4    2  0.2930016E-007  0.1225449E+04  0.7818608E-02  0.9132772E-01
         -2   -1    0    0    0  501 -0.00000000000E+00  0.00000000000E+00  0.35014713375E+04  0.35014713375E+04  0.25500000000E-02 0.  1.
          2   -1    0    0  501    0  0.00000000000E+00 -0.00000000000E+00 -0.60852614646E+03  0.60852614646E+03  0.25500000000E-02 0. -1.
    8880023    1    1    2    0    0 -0.69247189940E+03  0.76707092148E+03  0.22648390499E+03  0.12462023493E+04  0.65864270000E+03 0.  0.
    8880022    1    1    2    0    0  0.69247189940E+03 -0.76707092148E+03  0.26664612861E+04  0.28637951346E+04  0.15294330000E+03 0.  0.
<mgrwt>
<rscale>  0 0.11775105E+04</rscale>
<asrwt>0</asrwt>
<pdfrwt beam="1">  1        2 0.93619405E-01 0.12254490E+04</pdfrwt>
<pdfrwt beam="2">  1       -2 0.53868791E+00 0.12254490E+04</pdfrwt>
<totfact> 0.46282989E-02</totfact>
</mgrwt>
</event>
<event>
 4    2  0.2930016E-007  0.7828980E+03  0.7818608E-02  0.9749073E-01
          2   -1    0    0  501    0  0.00000000000E+00  0.00000000000E+00  0.19366917321E+04  0.19366917321E+04  0.25500000000E-02 0. -1.
         -2   -1    0    0    0  501 -0.00000000000E+00 -0.00000000000E+00 -0.19754680425E+03  0.19754680427E+03  0.25500000000E-02 0.  1.
    8880023    1    1    2    0    0 -0.28273036896E+03 -0.31493261424E+03  0.11870247648E+04  0.14219553480E+04  0.65864270000E+03 0.  1.
    8880022    1    1    2    0    0  0.28273036896E+03  0.31493261424E+03  0.55212016299E+03  0.71228318837E+03  0.15294330000E+03 0. -1.
<mgrwt>
<rscale>  0 0.68168676E+03</rscale>
<asrwt>0</asrwt>
<pdfrwt beam="1">  1        2 0.29795257E+00 0.78289796E+03</pdfrwt>
<pdfrwt beam="2">  1       -2 0.30391817E-01 0.78289796E+03</pdfrwt>
<totfact> 0.74159386E+01</totfact>
</mgrwt>
</event>
<event>
 4    2  0.2930016E-007  0.8563087E+03  0.7818608E-02  0.9600164E-01
          2   -1    0    0  501    0  0.00000000000E+00  0.00000000000E+00  0.81792315233E+03  0.81792315234E+03  0.25500000000E-02 0. -1.
         -2   -1    0    0    0  501 -0.00000000000E+00 -0.00000000000E+00 -0.86935291733E+03  0.86935291733E+03  0.25500000000E-02 0.  1.
    8880023    1    1    2    0    0  0.36638316222E+03 -0.40646987597E+03  0.41554430568E+03  0.95180967524E+03  0.65864270000E+03 0. -1.
    8880022    1    1    2    0    0 -0.36638316222E+03  0.40646987597E+03 -0.46697407068E+03  0.73546639443E+03  0.15294330000E+03 0.  0.
<mgrwt>
<rscale>  0 0.77285354E+03</rscale>
<asrwt>0</asrwt>
<pdfrwt beam="1">  1        2 0.12583433E+00 0.85630870E+03</pdfrwt>
<pdfrwt beam="2">  1       -2 0.13374660E+00 0.85630870E+03</pdfrwt>
<totfact> 0.13574097E+01</totfact>
</mgrwt>
</event>
<event>
 4    2  0.2930016E-007  0.7819935E+03  0.7818608E-02  0.9751175E-01
         -2   -1    0    0    0  501 -0.00000000000E+00  0.00000000000E+00  0.69989411283E+03  0.69989411283E+03  0.25500000000E-02 0.  1.
          2   -1    0    0  501    0  0.00000000000E+00 -0.00000000000E+00 -0.11987871167E+04  0.11987871167E+04  0.25500000000E-02 0. -1.
    8880023    1    1    2    0    0  0.81421986133E+02  0.41361094147E+03 -0.97153581278E+03  0.12471549994E+04  0.65864270000E+03 0.  0.
    8880022    1    1    2    0    0 -0.81421986133E+02 -0.41361094147E+03  0.47264280891E+03  0.65152623014E+03  0.15294330000E+03 0.  0.
<mgrwt>
<rscale>  0 0.68049909E+03</rscale>
<asrwt>0</asrwt>
<pdfrwt beam="1">  1        2 0.18442879E+00 0.78199345E+03</pdfrwt>
<pdfrwt beam="2">  1       -2 0.10767602E+00 0.78199345E+03</pdfrwt>
<totfact> 0.13331905E+01</totfact>
</mgrwt>
</event>
<event>
 4    2  0.2930016E-007  0.7242356E+03  0.7818608E-02  0.9908506E-01
         -2   -1    0    0    0  501 -0.00000000000E+00  0.00000000000E+00  0.57457706854E+03  0.57457706854E+03  0.25500000000E-02 0.  1.
          2   -1    0    0  501    0  0.00000000000E+00 -0.00000000000E+00 -0.69337003916E+03  0.69337003917E+03  0.25500000000E-02 0. -1.
    8880023    1    1    2    0    0 -0.52762934754E+02 -0.29651816983E+03 -0.40095491785E+03  0.82781761562E+03  0.65864270000E+03 0. -1.
    8880022    1    1    2    0    0  0.52762934754E+02  0.29651816983E+03  0.28216194723E+03  0.44012949208E+03  0.15294330000E+03 0.  0.
<mgrwt>
<rscale>  0 0.59850796E+03</rscale>
<asrwt>0</asrwt>
<pdfrwt beam="1">  1        2 0.10667231E+00 0.72423557E+03</pdfrwt>
<pdfrwt beam="2">  1       -2 0.88396472E-01 0.72423557E+03</pdfrwt>
<totfact> 0.46364290E+01</totfact>
</mgrwt>
</event>
<event>
 4    2  0.2930016E-007  0.6747922E+03  0.7818608E-02  0.1012438E+00
         -2   -1    0    0    0  501 -0.00000000000E+00  0.00000000000E+00  0.40390163696E+03  0.40390163697E+03  0.25500000000E-02 0.  1.
          2   -1    0    0  501    0  0.00000000000E+00 -0.00000000000E+00 -0.86483537640E+03  0.86483537640E+03  0.25500000000E-02 0. -1.
    8880023    1    1    2    0    0  0.86265028048E+02 -0.11871220176E+03 -0.68413599717E+03  0.96093002388E+03  0.65864270000E+03 0. -1.
    8880022    1    1    2    0    0 -0.86265028048E+02  0.11871220176E+03  0.22320225773E+03  0.30780698949E+03  0.15294330000E+03 0.  0.
<mgrwt>
<rscale>  0 0.50517239E+03</rscale>
<asrwt>0</asrwt>
<pdfrwt beam="1">  1        2 0.13305160E+00 0.67479215E+03</pdfrwt>
<pdfrwt beam="2">  1       -2 0.62138714E-01 0.67479215E+03</pdfrwt>
<totfact> 0.75959341E+01</totfact>
</mgrwt>
</event>
<event>
 4    2  0.2930016E-007  0.6735684E+03  0.7818608E-02  0.1013224E+00
         -2   -1    0    0    0  501 -0.00000000000E+00  0.00000000000E+00  0.17898873718E+03  0.17898873720E+03  0.25500000000E-02 0.  1.
          2   -1    0    0  501    0  0.00000000000E+00 -0.00000000000E+00 -0.22757117612E+04  0.22757117613E+04  0.25500000000E-02 0. -1.
    8880023    1    1    2    0    0 -0.73283375095E+02 -0.12047274364E+03 -0.21388899102E+04  0.22424416133E+04  0.65864270000E+03 0.  0.
    8880022    1    1    2    0    0  0.73283375095E+02  0.12047274364E+03  0.42166886093E+02  0.21225888515E+03  0.15294330000E+03 0.  0.
<mgrwt>
<rscale>  0 0.50213083E+03</rscale>
<asrwt>0</asrwt>
<pdfrwt beam="1">  1        2 0.35010948E+00 0.67356836E+03</pdfrwt>
<pdfrwt beam="2">  1       -2 0.27536730E-01 0.67356836E+03</pdfrwt>
<totfact> 0.58763808E+01</totfact>
</mgrwt>
</event>
<event>
 4    2  0.2930016E-007  0.6934607E+03  0.7818608E-02  0.1002549E+00
          2   -1    0    0  501    0  0.00000000000E+00  0.00000000000E+00  0.23876506828E+04  0.23876506828E+04  0.25500000000E-02 0. -1.
         -2   -1    0    0    0  501 -0.00000000000E+00 -0.00000000000E+00 -0.32486769493E+03  0.32486769494E+03  0.25500000000E-02 0.  1.
    8880023    1    1    2    0    0  0.21587673785E+03 -0.21790650570E+02  0.22713966731E+04  0.23748959243E+04  0.65864270000E+03 0. -1.
    8880022    1    1    2    0    0 -0.21587673785E+03  0.21790650570E+02 -0.20861368522E+03  0.33762245345E+03  0.15294330000E+03 0.  0.
<mgrwt>
<rscale>  0 0.54546435E+03</rscale>
<asrwt>0</asrwt>
<pdfrwt beam="1">  1        2 0.36733087E+00 0.69346074E+03</pdfrwt>
<pdfrwt beam="2">  1       -2 0.49979646E-01 0.69346074E+03</pdfrwt>
<totfact> 0.16122576E+01</totfact>
</mgrwt>
</event>
<event>
 4    2  0.2930016E-007  0.9229532E+03  0.7818608E-02  0.9490146E-01
         -2   -1    0    0    0  501 -0.00000000000E+00  0.00000000000E+00  0.87767632492E+03  0.87767632492E+03  0.25500000000E-02 0.  1.
          2   -1    0    0  501    0  0.00000000000E+00 -0.00000000000E+00 -0.33038234162E+04  0.33038234162E+04  0.25500000000E-02 0. -1.
    8880023    1    1    2    0    0 -0.46717544857E+03  0.44696692146E+03 -0.31004268142E+04  0.32348862368E+04  0.65864270000E+03 0. -1.
    8880022    1    1    2    0    0  0.46717544857E+03 -0.44696692146E+03  0.67427972297E+03  0.94661350426E+03  0.15294330000E+03 0.  0.
<mgrwt>
<rscale>  0 0.85014252E+03</rscale>
<asrwt>0</asrwt>
<pdfrwt beam="1">  1        2 0.50828052E+00 0.92295316E+03</pdfrwt>
<pdfrwt beam="2">  1       -2 0.13502713E+00 0.92295316E+03</pdfrwt>
<totfact> 0.45431008E-01</totfact>
</mgrwt>
</event>
<event>
 4    2  0.6452175E-007  0.7660500E+03  0.7818608E-02  0.9789689E-01
         -2   -1    0    0    0  501 -0.00000000000E+00  0.00000000000E+00  0.12686362900E+04  0.12686362900E+04  0.25500000000E-02 0.  1.
          2   -1    0    0  501    0  0.00000000000E+00 -0.00000000000E+00 -0.30439485807E+04  0.30439485807E+04  0.25500000000E-02 0. -1.
    8880023    1    1    2    0    0 -0.20251105487E+03  0.33468153579E+03 -0.29590180060E+04  0.30565700097E+04  0.65864270000E+03 0. -1.
    8880022    1    1    2    0    0  0.20251105487E+03 -0.33468153579E+03  0.11837057153E+04  0.12560148611E+04  0.15294330000E+03 0.  1.
<mgrwt>
<rscale>  0 0.65918834E+03</rscale>
<asrwt>0</asrwt>
<pdfrwt beam="1">  1        2 0.46829978E+00 0.76605004E+03</pdfrwt>
<pdfrwt beam="2">  1       -2 0.19517482E+00 0.76605004E+03</pdfrwt>
<totfact> 0.25075862E-01</totfact>
</mgrwt>
</event>
<event>
 4    2  0.2930016E-007  0.1016978E+04  0.7818608E-02  0.9359675E-01
          2   -1    0    0  501    0  0.00000000000E+00  0.00000000000E+00  0.15464033186E+04  0.15464033186E+04  0.25500000000E-02 0. -1.
         -2   -1    0    0    0  501 -0.00000000000E+00 -0.00000000000E+00 -0.90381477535E+03  0.90381477535E+03  0.25500000000E-02 0.  1.
    8880023    1    1    2    0    0 -0.76584734506E+02 -0.77108273097E+03  0.11314650301E+04  0.15213339936E+04  0.65864270000E+03 0.  0.
    8880022    1    1    2    0    0  0.76584734506E+02  0.77108273097E+03 -0.48887648680E+03  0.92888410037E+03  0.15294330000E+03 0.  0.
<mgrwt>
<rscale>  0 0.95469911E+03</rscale>
<asrwt>0</asrwt>
<pdfrwt beam="1">  1        2 0.23790820E+00 0.10169779E+04</pdfrwt>
<pdfrwt beam="2">  1       -2 0.13904843E+00 0.10169779E+04</pdfrwt>
<totfact> 0.43319164E+00</totfact>
</mgrwt>
</event>
<event>
 4    2  0.2930016E-007  0.7740344E+03  0.7818608E-02  0.9770042E-01
          2   -1    0    0  501    0  0.00000000000E+00  0.00000000000E+00  0.15903768397E+04  0.15903768397E+04  0.25500000000E-02 0. -1.
         -2   -1    0    0    0  501 -0.00000000000E+00 -0.00000000000E+00 -0.29937146330E+03  0.29937146331E+03  0.25500000000E-02 0.  1.
    8880023    1    1    2    0    0  0.39847969283E+03 -0.80826945417E+02  0.12268654947E+04  0.14506302800E+04  0.65864270000E+03 0.  0.
    8880022    1    1    2    0    0 -0.39847969283E+03  0.80826945417E+02  0.64139881621E+02  0.43911802301E+03  0.15294330000E+03 0.  0.
<mgrwt>
<rscale>  0 0.66995367E+03</rscale>
<asrwt>0</asrwt>
<pdfrwt beam="1">  1        2 0.24467336E+00 0.77403441E+03</pdfrwt>
<pdfrwt beam="2">  1       -2 0.46057148E-01 0.77403441E+03</pdfrwt>
<totfact> 0.51497281E+01</totfact>
</mgrwt>
</event>
<event>
 4    2  0.2930016E-007  0.8452903E+03  0.7818608E-02  0.9620284E-01
          2   -1    0    0  501    0  0.00000000000E+00  0.00000000000E+00  0.18784179551E+04  0.18784179551E+04  0.25500000000E-02 0. -1.
         -2   -1    0    0    0  501 -0.00000000000E+00 -0.00000000000E+00 -0.33340755346E+03  0.33340755347E+03  0.25500000000E-02 0.  1.
    8880023    1    1    2    0    0 -0.49616806556E+03 -0.18580301608E+03  0.14102022083E+04  0.16441368509E+04  0.65864270000E+03 0.  0.
    8880022    1    1    2    0    0  0.49616806556E+03  0.18580301608E+03  0.13480819342E+03  0.56768865771E+03  0.15294330000E+03 0.  1.
<mgrwt>
<rscale>  0 0.75968048E+03</rscale>
<asrwt>0</asrwt>
<pdfrwt beam="1">  1        2 0.28898737E+00 0.84529031E+03</pdfrwt>
<pdfrwt beam="2">  1       -2 0.51293470E-01 0.84529031E+03</pdfrwt>
<totfact> 0.28554621E+01</totfact>
</mgrwt>
</event>
<event>
 4    2  0.2930016E-007  0.8201979E+03  0.7818608E-02  0.9668714E-01
         -2   -1    0    0    0  501 -0.00000000000E+00  0.00000000000E+00  0.81652779366E+03  0.81652779366E+03  0.25500000000E-02 0.  1.
          2   -1    0    0  501    0  0.00000000000E+00 -0.00000000000E+00 -0.79875745264E+03  0.79875745264E+03  0.25500000000E-02 0. -1.
    8880023    1    1    2    0    0  0.33527918872E+03  0.35567147444E+03 -0.43788927261E+03  0.92976962386E+03  0.65864270000E+03 0.  1.
    8880022    1    1    2    0    0 -0.33527918872E+03 -0.35567147444E+03  0.45565961363E+03  0.68551562245E+03  0.15294330000E+03 0.  0.
<mgrwt>
<rscale>  0 0.72910487E+03</rscale>
<asrwt>0</asrwt>
<pdfrwt beam="1">  1        2 0.12288576E+00 0.82019787E+03</pdfrwt>
<pdfrwt beam="2">  1       -2 0.12561966E+00 0.82019787E+03</pdfrwt>
<totfact> 0.16476731E+01</totfact>
</mgrwt>
</event>
<event>
 4    2  0.2930016E-007  0.8417315E+03  0.7818608E-02  0.9626924E-01
          2   -1    0    0  501    0  0.00000000000E+00  0.00000000000E+00  0.13961103957E+04  0.13961103957E+04  0.25500000000E-02 0. -1.
         -2   -1    0    0    0  501 -0.00000000000E+00 -0.00000000000E+00 -0.78970334619E+03  0.78970334619E+03  0.25500000000E-02 0.  1.
    8880023    1    1    2    0    0 -0.31892471279E+03 -0.41591907018E+03  0.11435295287E+04  0.14199195873E+04  0.65864270000E+03 0. -1.
    8880022    1    1    2    0    0  0.31892471279E+03  0.41591907018E+03 -0.53712247914E+03  0.76589415455E+03  0.15294330000E+03 0.  0.
<mgrwt>
<rscale>  0 0.75539516E+03</rscale>
<asrwt>0</asrwt>
<pdfrwt beam="1">  1        2 0.21478621E+00 0.84173146E+03</pdfrwt>
<pdfrwt beam="2">  1       -2 0.12149282E+00 0.84173146E+03</pdfrwt>
<totfact> 0.75718536E+00</totfact>
</mgrwt>
</event>
<event>
 4    2  0.2930016E-007  0.9892733E+03  0.7818608E-02  0.9395728E-01
         -2   -1    0    0    0  501 -0.00000000000E+00  0.00000000000E+00  0.89863806882E+03  0.89863806882E+03  0.25500000000E-02 0.  1.
          2   -1    0    0  501    0  0.00000000000E+00 -0.00000000000E+00 -0.11835101663E+04  0.11835101663E+04  0.25500000000E-02 0. -1.
    8880023    1    1    2    0    0  0.69346315880E+03  0.25290356491E+03  0.39673875289E+03  0.10658626600E+04  0.65864270000E+03 0.  1.
    8880022    1    1    2    0    0 -0.69346315880E+03 -0.25290356491E+03 -0.68161085038E+03  0.10162855751E+04  0.15294330000E+03 0. -1.
<mgrwt>
<rscale>  0 0.92428087E+03</rscale>
<asrwt>0</asrwt>
<pdfrwt beam="1">  1        2 0.18207849E+00 0.98927325E+03</pdfrwt>
<pdfrwt beam="2">  1       -2 0.13825201E+00 0.98927325E+03</pdfrwt>
<totfact> 0.71382558E+00</totfact>
</mgrwt>
</event>
<event>
 4    2  0.2930016E-007  0.6825203E+03  0.7818608E-02  0.1007932E+00
          2   -1    0    0  501    0  0.00000000000E+00  0.00000000000E+00  0.10062843753E+04  0.10062843753E+04  0.25500000000E-02 0. -1.
         -2   -1    0    0    0  501 -0.00000000000E+00 -0.00000000000E+00 -0.36492402724E+03  0.36492402725E+03  0.25500000000E-02 0.  1.
    8880023    1    1    2    0    0  0.64844497912E+02  0.16679024561E+03  0.82638302303E+03  0.10717942442E+04  0.65864270000E+03 0. -1.
    8880022    1    1    2    0    0 -0.64844497912E+02 -0.16679024561E+03 -0.18502267498E+03  0.29941415833E+03  0.15294330000E+03 0.  0.
<mgrwt>
<rscale>  0 0.52304680E+03</rscale>
<asrwt>0</asrwt>
<pdfrwt beam="1">  1        2 0.15481298E+00 0.68252033E+03</pdfrwt>
<pdfrwt beam="2">  1       -2 0.56142158E-01 0.68252033E+03</pdfrwt>
<totfact> 0.75834651E+01</totfact>
</mgrwt>
</event>
<event>
 4    2  0.2930016E-007  0.7403431E+03  0.7818608E-02  0.9858949E-01
          2   -1    0    0  501    0  0.00000000000E+00  0.00000000000E+00  0.31497032191E+04  0.31497032191E+04  0.25500000000E-02 0. -1.
         -2   -1    0    0    0  501 -0.00000000000E+00 -0.00000000000E+00 -0.10530416535E+03  0.10530416538E+03  0.25500000000E-02 0.  1.
    8880023    1    1    2    0    0  0.33788082782E+03  0.11587816347E+02  0.23978963787E+04  0.25095846231E+04  0.65864270000E+03 0.  0.
    8880022    1    1    2    0    0 -0.33788082782E+03 -0.11587816347E+02  0.64650267501E+03  0.74542276133E+03  0.15294330000E+03 0.  0.
<mgrwt>
<rscale>  0 0.62292727E+03</rscale>
<asrwt>0</asrwt>
<pdfrwt beam="1">  1        2 0.48456969E+00 0.74034312E+03</pdfrwt>
<pdfrwt beam="2">  1       -2 0.16200642E-01 0.74034312E+03</pdfrwt>
<totfact> 0.45663031E+01</totfact>
</mgrwt>
</event>
<event>
 4    2  0.3110653E-007  0.8294790E+03  0.7818608E-02  0.9650347E-01
         -2   -1    0    0    0  501 -0.00000000000E+00  0.00000000000E+00  0.55250383921E+03  0.55250383921E+03  0.25500000000E-02 0.  1.
          2   -1    0    0  501    0  0.00000000000E+00 -0.00000000000E+00 -0.26393330482E+04  0.26393330482E+04  0.25500000000E-02 0. -1.
    8880023    1    1    2    0    0  0.44292803858E+03  0.24091490160E+03 -0.24268938185E+04  0.25647317695E+04  0.65864270000E+03 0. -1.
    8880022    1    1    2    0    0 -0.44292803858E+03 -0.24091490160E+03  0.34006460952E+03  0.62710511785E+03  0.15294330000E+03 0.  1.
<mgrwt>
<rscale>  0 0.74051659E+03</rscale>
<asrwt>0</asrwt>
<pdfrwt beam="1">  1        2 0.40605123E+00 0.82947902E+03</pdfrwt>
<pdfrwt beam="2">  1       -2 0.85000592E-01 0.82947902E+03</pdfrwt>
<totfact> 0.36137832E+00</totfact>
</mgrwt>
</event>
<event>
 4    2  0.2930016E-007  0.6773190E+03  0.7818608E-02  0.1010883E+00
          2   -1    0    0  501    0  0.00000000000E+00  0.00000000000E+00  0.55884238755E+03  0.55884238756E+03  0.25500000000E-02 0. -1.
         -2   -1    0    0    0  501 -0.00000000000E+00 -0.00000000000E+00 -0.48578217007E+03  0.48578217007E+03  0.25500000000E-02 0.  1.
    8880023    1    1    2    0    0  0.13889560597E+03 -0.75225060438E+02  0.28904625996E+03  0.73641614984E+03  0.65864270000E+03 0. -1.
    8880022    1    1    2    0    0 -0.13889560597E+03  0.75225060438E+02 -0.21598604248E+03  0.30820840780E+03  0.15294330000E+03 0.  0.
<mgrwt>
<rscale>  0 0.51125318E+03</rscale>
<asrwt>0</asrwt>
<pdfrwt beam="1">  1        2 0.85975752E-01 0.67731898E+03</pdfrwt>
<pdfrwt beam="2">  1       -2 0.74735719E-01 0.67731898E+03</pdfrwt>
<totfact> 0.88320024E+01</totfact>
</mgrwt>
</event>
<event>
 4    2  0.2930016E-007  0.7645608E+03  0.7818608E-02  0.9793440E-01
          2   -1    0    0  501    0  0.00000000000E+00  0.00000000000E+00  0.19656098954E+04  0.19656098954E+04  0.25500000000E-02 0. -1.
         -2   -1    0    0    0  501 -0.00000000000E+00 -0.00000000000E+00 -0.46414157892E+03  0.46414157893E+03  0.25500000000E-02 0.  1.
    8880023    1    1    2    0    0  0.26990740934E+03  0.27909319163E+03  0.17737291981E+04  0.19314938503E+04  0.65864270000E+03 0.  0.
    8880022    1    1    2    0    0 -0.26990740934E+03 -0.27909319163E+03 -0.27226088163E+03  0.49825762404E+03  0.15294330000E+03 0.  1.
<mgrwt>
<rscale>  0 0.65715782E+03</rscale>
<asrwt>0</asrwt>
<pdfrwt beam="1">  1        2 0.30240152E+00 0.76456081E+03</pdfrwt>
<pdfrwt beam="2">  1       -2 0.71406397E-01 0.76456081E+03</pdfrwt>
<totfact> 0.12824067E+01</totfact>
</mgrwt>
</event>
<event>
 4    2  0.2930016E-007  0.7400361E+03  0.7818608E-02  0.9859842E-01
          2   -1    0    0  501    0  0.00000000000E+00  0.00000000000E+00  0.19257894300E+04  0.19257894300E+04  0.25500000000E-02 0. -1.
         -2   -1    0    0    0  501 -0.00000000000E+00 -0.00000000000E+00 -0.35846379495E+03  0.35846379496E+03  0.25500000000E-02 0.  1.
    8880023    1    1    2    0    0  0.13465181320E+03  0.30937363402E+03  0.17285010617E+04  0.18802577703E+04  0.65864270000E+03 0. -1.
    8880022    1    1    2    0    0 -0.13465181320E+03 -0.30937363402E+03 -0.16117542664E+03  0.40399545467E+03  0.15294330000E+03 0.  0.
<mgrwt>
<rscale>  0 0.62247612E+03</rscale>
<asrwt>0</asrwt>
<pdfrwt beam="1">  1        2 0.29627529E+00 0.74003605E+03</pdfrwt>
<pdfrwt beam="2">  1       -2 0.55148277E-01 0.74003605E+03</pdfrwt>
<totfact> 0.23471036E+01</totfact>
</mgrwt>
</event>
<event>
 4    2  0.2930016E-007  0.9256088E+03  0.7818608E-02  0.9486112E-01
         -2   -1    0    0    0  501 -0.00000000000E+00  0.00000000000E+00  0.17237182834E+04  0.17237182834E+04  0.25500000000E-02 0.  1.
          2   -1    0    0  501    0  0.00000000000E+00 -0.00000000000E+00 -0.73142271144E+03  0.73142271144E+03  0.25500000000E-02 0. -1.
    8880023    1    1    2    0    0  0.24834860988E+02  0.64986513560E+03 -0.32263380608E+03  0.98022662884E+03  0.65864270000E+03 0. -1.
    8880022    1    1    2    0    0 -0.24834860988E+02 -0.64986513560E+03  0.13149293780E+04  0.14749143660E+04  0.15294330000E+03 0.  0.
<mgrwt>
<rscale>  0 0.85315512E+03</rscale>
<asrwt>0</asrwt>
<pdfrwt beam="1">  1        2 0.11252657E+00 0.92560881E+03</pdfrwt>
<pdfrwt beam="2">  1       -2 0.26518742E+00 0.92560881E+03</pdfrwt>
<totfact> 0.20272624E+00</totfact>
</mgrwt>
</event>
<event>
 4    2  0.2930016E-007  0.8291693E+03  0.7818608E-02  0.9650951E-01
         -2   -1    0    0    0  501 -0.00000000000E+00  0.00000000000E+00  0.84029313360E+03  0.84029313360E+03  0.25500000000E-02 0.  1.
          2   -1    0    0  501    0  0.00000000000E+00 -0.00000000000E+00 -0.81993198957E+03  0.81993198958E+03  0.25500000000E-02 0. -1.
    8880023    1    1    2    0    0 -0.41929350248E+03  0.27911379265E+03 -0.45945530987E+03  0.94795619018E+03  0.65864270000E+03 0. -1.
    8880022    1    1    2    0    0  0.41929350248E+03 -0.27911379265E+03  0.47981645389E+03  0.71226893300E+03  0.15294330000E+03 0.  0.
<mgrwt>
<rscale>  0 0.74013784E+03</rscale>
<asrwt>0</asrwt>
<pdfrwt beam="1">  1        2 0.12614338E+00 0.82916932E+03</pdfrwt>
<pdfrwt beam="2">  1       -2 0.12927587E+00 0.82916932E+03</pdfrwt>
<totfact> 0.14787833E+01</totfact>
</mgrwt>
</event>
<event>
 4    2  0.2930016E-007  0.7189114E+03  0.7818608E-02  0.9926287E-01
         -2   -1    0    0    0  501 -0.00000000000E+00  0.00000000000E+00  0.20579544927E+03  0.20579544929E+03  0.25500000000E-02 0.  1.
          2   -1    0    0  501    0  0.00000000000E+00 -0.00000000000E+00 -0.19913966280E+04  0.19913966280E+04  0.25500000000E-02 0. -1.
    8880023    1    1    2    0    0 -0.20995046898E+03  0.19734287402E+03 -0.17203446493E+04  0.18645158428E+04  0.65864270000E+03 0. -1.
    8880022    1    1    2    0    0  0.20995046898E+03 -0.19734287402E+03 -0.65256529422E+02  0.33267623450E+03  0.15294330000E+03 0.  0.
<mgrwt>
<rscale>  0 0.59004063E+03</rscale>
<asrwt>0</asrwt>
<pdfrwt beam="1">  1        2 0.30636870E+00 0.71891141E+03</pdfrwt>
<pdfrwt beam="2">  1       -2 0.31660840E-01 0.71891141E+03</pdfrwt>
<totfact> 0.64604692E+01</totfact>
</mgrwt>
</event>
<event>
 4    2  0.2930016E-007  0.7103305E+03  0.7818608E-02  0.9956776E-01
          2   -1    0    0  501    0  0.00000000000E+00  0.00000000000E+00  0.40277917376E+04  0.40277917376E+04  0.25500000000E-02 0. -1.
         -2   -1    0    0    0  501 -0.00000000000E+00 -0.00000000000E+00 -0.12243954426E+03  0.12243954429E+03  0.25500000000E-02 0.  1.
    8880023    1    1    2    0    0  0.75066010038E+02  0.25519467267E+03  0.37295595606E+04  0.37966016316E+04  0.65864270000E+03 0.  0.
    8880022    1    1    2    0    0 -0.75066010038E+02 -0.25519467267E+03  0.17579263276E+03  0.35362965030E+03  0.15294330000E+03 0.  0.
<mgrwt>
<rscale>  0 0.57586860E+03</rscale>
<asrwt>0</asrwt>
<pdfrwt beam="1">  1        2 0.61966018E+00 0.71033051E+03</pdfrwt>
<pdfrwt beam="2">  1       -2 0.18836856E-01 0.71033051E+03</pdfrwt>
<totfact> 0.85638193E+00</totfact>
</mgrwt>
</event>
<event>
 4    2  0.2930016E-007  0.8611494E+03  0.7818608E-02  0.9591522E-01
          2   -1    0    0  501    0  0.00000000000E+00  0.00000000000E+00  0.19853813020E+04  0.19853813020E+04  0.25500000000E-02 0. -1.
         -2   -1    0    0    0  501 -0.00000000000E+00 -0.00000000000E+00 -0.50202856909E+03  0.50202856909E+03  0.25500000000E-02 0.  1.
    8880023    1    1    2    0    0 -0.55416938137E+03 -0.25776455326E+02  0.16728978036E+04  0.18815327254E+04  0.65864270000E+03 0.  0.
    8880022    1    1    2    0    0  0.55416938137E+03  0.25776455326E+02 -0.18954507071E+03  0.60587714575E+03  0.15294330000E+03 0.  0.
<mgrwt>
<rscale>  0 0.77859854E+03</rscale>
<asrwt>0</asrwt>
<pdfrwt beam="1">  1        2 0.30544327E+00 0.86114943E+03</pdfrwt>
<pdfrwt beam="2">  1       -2 0.77235167E-01 0.86114943E+03</pdfrwt>
<totfact> 0.10375848E+01</totfact>
</mgrwt>
</event>
<event>
 4    2  0.2930016E-007  0.9946730E+03  0.7818608E-02  0.9388560E-01
          2   -1    0    0  501    0  0.00000000000E+00  0.00000000000E+00  0.44725053889E+03  0.44725053890E+03  0.25500000000E-02 0. -1.
         -2   -1    0    0    0  501 -0.00000000000E+00 -0.00000000000E+00 -0.26201126711E+04  0.26201126711E+04  0.25500000000E-02 0.  1.
    8880023    1    1    2    0    0  0.31975418191E+03 -0.67329144046E+03 -0.28925443177E+03  0.10358776150E+04  0.65864270000E+03 0. -1.
    8880022    1    1    2    0    0 -0.31975418191E+03  0.67329144046E+03 -0.18836077005E+04  0.20314855951E+04  0.15294330000E+03 0.  0.
<mgrwt>
<rscale>  0 0.93023121E+03</rscale>
<asrwt>0</asrwt>
<pdfrwt beam="1">  1        2 0.68807777E-01 0.99467296E+03</pdfrwt>
<pdfrwt beam="2">  1       -2 0.40309425E+00 0.99467296E+03</pdfrwt>
<totfact> 0.50699106E-01</totfact>
</mgrwt>
</event>
<event>
 4    2  0.2930016E-007  0.8692943E+03  0.7818608E-02  0.9577240E-01
          2   -1    0    0  501    0  0.00000000000E+00  0.00000000000E+00  0.20795162970E+04  0.20795162970E+04  0.25500000000E-02 0. -1.
         -2   -1    0    0    0  501 -0.00000000000E+00 -0.00000000000E+00 -0.26282844372E+03  0.26282844373E+03  0.25500000000E-02 0.  1.
    8880023    1    1    2    0    0 -0.22289220567E+03 -0.52171015752E+03  0.12751677996E+04  0.15432840138E+04  0.65864270000E+03 0.  1.
    8880022    1    1    2    0    0  0.22289220567E+03  0.52171015752E+03  0.54152005371E+03  0.79906072697E+03  0.15294330000E+03 0.  0.
<mgrwt>
<rscale>  0 0.78821099E+03</rscale>
<asrwt>0</asrwt>
<pdfrwt beam="1">  1        2 0.31992558E+00 0.86929433E+03</pdfrwt>
<pdfrwt beam="2">  1       -2 0.40435146E-01 0.86929433E+03</pdfrwt>
<totfact> 0.35579445E+01</totfact>
</mgrwt>
</event>
<event>
 4    2  0.2930016E-007  0.7862622E+03  0.7818608E-02  0.9741327E-01
          2   -1    0    0  501    0  0.00000000000E+00  0.00000000000E+00  0.39642030456E+04  0.39642030456E+04  0.25500000000E-02 0. -1.
         -2   -1    0    0    0  501 -0.00000000000E+00 -0.00000000000E+00 -0.16043113901E+03  0.16043113903E+03  0.25500000000E-02 0.  1.
    8880023    1    1    2    0    0 -0.25110700100E+03 -0.34834377934E+03  0.34743868893E+04  0.35622426331E+04  0.65864270000E+03 0.  0.
    8880022    1    1    2    0    0  0.25110700100E+03  0.34834377934E+03  0.32938501728E+03  0.56239155148E+03  0.15294330000E+03 0.  0.
<mgrwt>
<rscale>  0 0.68608605E+03</rscale>
<asrwt>0</asrwt>
<pdfrwt beam="1">  1        2 0.60987738E+00 0.78626225E+03</pdfrwt>
<pdfrwt beam="2">  1       -2 0.24681714E-01 0.78626225E+03</pdfrwt>
<totfact> 0.58659400E+00</totfact>
</mgrwt>
</event>
<event>
 4    2  0.2930016E-007  0.7211960E+03  0.7818608E-02  0.9918560E-01
          2   -1    0    0  501    0  0.00000000000E+00  0.00000000000E+00  0.14224912826E+04  0.14224912826E+04  0.25500000000E-02 0. -1.
         -2   -1    0    0    0  501 -0.00000000000E+00 -0.00000000000E+00 -0.48374588905E+03  0.48374588905E+03  0.25500000000E-02 0.  1.
    8880023    1    1    2    0    0 -0.26075798427E+03  0.13534677737E+03  0.12555263718E+04  0.14479192495E+04  0.65864270000E+03 0. -1.
    8880022    1    1    2    0    0  0.26075798427E+03 -0.13534677737E+03 -0.31678097830E+03  0.45831792211E+03  0.15294330000E+03 0.  0.
<mgrwt>
<rscale>  0 0.59370178E+03</rscale>
<asrwt>0</asrwt>
<pdfrwt beam="1">  1        2 0.21884481E+00 0.72119601E+03</pdfrwt>
<pdfrwt beam="2">  1       -2 0.74422445E-01 0.72119601E+03</pdfrwt>
<totfact> 0.23411438E+01</totfact>
</mgrwt>
</event>
<event>
 4    2  0.2930016E-007  0.1082958E+04  0.7818608E-02  0.9280272E-01
          2   -1    0    0  501    0  0.00000000000E+00  0.00000000000E+00  0.14007145823E+04  0.14007145823E+04  0.25500000000E-02 0. -1.
         -2   -1    0    0    0  501 -0.00000000000E+00 -0.00000000000E+00 -0.82275020485E+03  0.82275020485E+03  0.25500000000E-02 0.  1.
    8880023    1    1    2    0    0 -0.41451817963E+03 -0.75310152610E+03 -0.14140542346E+03  0.10921505985E+04  0.65864270000E+03 0.  0.
    8880022    1    1    2    0    0  0.41451817963E+03  0.75310152610E+03  0.71936980089E+03  0.11313141886E+04  0.15294330000E+03 0.  0.
<mgrwt>
<rscale>  0 0.10261952E+04</rscale>
<asrwt>0</asrwt>
<pdfrwt beam="1">  1        2 0.21549455E+00 0.10829577E+04</pdfrwt>
<pdfrwt beam="2">  1       -2 0.12657696E+00 0.10829577E+04</pdfrwt>
<totfact> 0.66148106E+00</totfact>
</mgrwt>
</event>
<event>
 4    2  0.2930016E-007  0.6874703E+03  0.7818608E-02  0.1005379E+00
          2   -1    0    0  501    0  0.00000000000E+00  0.00000000000E+00  0.24604615191E+04  0.24604615191E+04  0.25500000000E-02 0. -1.
         -2   -1    0    0    0  501 -0.00000000000E+00 -0.00000000000E+00 -0.15067140062E+03  0.15067140064E+03  0.25500000000E-02 0.  1.
    8880023    1    1    2    0    0  0.15422359640E+03 -0.12255735912E+03  0.22527327442E+04  0.23552962122E+04  0.65864270000E+03 0.  0.
    8880022    1    1    2    0    0 -0.15422359640E+03  0.12255735912E+03  0.57057374252E+02  0.25583670755E+03  0.15294330000E+03 0.  0.
<mgrwt>
<rscale>  0 0.53353330E+03</rscale>
<asrwt>0</asrwt>
<pdfrwt beam="1">  1        2 0.37853257E+00 0.68747031E+03</pdfrwt>
<pdfrwt beam="2">  1       -2 0.23180214E-01 0.68747031E+03</pdfrwt>
<totfact> 0.63131362E+01</totfact>
</mgrwt>
</event>
<event>
 4    2  0.2930016E-007  0.7155792E+03  0.7818608E-02  0.9937839E-01
          2   -1    0    0  501    0  0.00000000000E+00  0.00000000000E+00  0.16979820623E+04  0.16979820623E+04  0.25500000000E-02 0. -1.
         -2   -1    0    0    0  501 -0.00000000000E+00 -0.00000000000E+00 -0.16939576666E+03  0.16939576668E+03  0.25500000000E-02 0.  1.
    8880023    1    1    2    0    0 -0.53533883149E+02  0.27454957646E+03  0.12665020932E+04  0.14546756012E+04  0.65864270000E+03 0.  0.
    8880022    1    1    2    0    0  0.53533883149E+02 -0.27454957646E+03  0.26208420246E+03  0.41270222773E+03  0.15294330000E+03 0.  0.
<mgrwt>
<rscale>  0 0.58462002E+03</rscale>
<asrwt>0</asrwt>
<pdfrwt beam="1">  1        2 0.26122802E+00 0.71557917E+03</pdfrwt>
<pdfrwt beam="2">  1       -2 0.26060886E-01 0.71557917E+03</pdfrwt>
<totfact> 0.13365338E+02</totfact>
</mgrwt>
</event>
<event>
 4    2  0.2930016E-007  0.6704938E+03  0.7818608E-02  0.1015311E+00
         -2   -1    0    0    0  501 -0.00000000000E+00  0.00000000000E+00  0.44717265049E+03  0.44717265050E+03  0.25500000000E-02 0.  1.
          2   -1    0    0  501    0  0.00000000000E+00 -0.00000000000E+00 -0.64952090576E+03  0.64952090576E+03  0.25500000000E-02 0. -1.
    8880023    1    1    2    0    0 -0.75495529896E+02 -0.10026042517E+03 -0.42888055817E+03  0.79592742592E+03  0.65864270000E+03 0. -1.
    8880022    1    1    2    0    0  0.75495529896E+02  0.10026042517E+03  0.22653230291E+03  0.30076613035E+03  0.15294330000E+03 0.  0.
<mgrwt>
<rscale>  0 0.49417226E+03</rscale>
<asrwt>0</asrwt>
<pdfrwt beam="1">  1        2 0.99926293E-01 0.67049380E+03</pdfrwt>
<pdfrwt beam="2">  1       -2 0.68795792E-01 0.67049380E+03</pdfrwt>
<totfact> 0.88378974E+01</totfact>
</mgrwt>
</event>
<event>
 4    2  0.2930016E-007  0.7026295E+03  0.7818608E-02  0.9986463E-01
          2   -1    0    0  501    0  0.00000000000E+00  0.00000000000E+00  0.52658788285E+04  0.52658788285E+04  0.25500000000E-02 0. -1.
         -2   -1    0    0    0  501 -0.00000000000E+00 -0.00000000000E+00 -0.10397371392E+03  0.10397371395E+03  0.25500000000E-02 0.  1.
    8880023    1    1    2    0    0 -0.16322906530E+03  0.18230280627E+03  0.49787161605E+04  0.50280515962E+04  0.65864270000E+03 0. -1.
    8880022    1    1    2    0    0  0.16322906530E+03 -0.18230280627E+03  0.18318895401E+03  0.34180094619E+03  0.15294330000E+03 0.  0.
<mgrwt>
<rscale>  0 0.56247816E+03</rscale>
<asrwt>0</asrwt>
<pdfrwt beam="1">  1        2 0.81013513E+00 0.70262952E+03</pdfrwt>
<pdfrwt beam="2">  1       -2 0.15995957E-01 0.70262952E+03</pdfrwt>
<totfact> 0.56286160E-01</totfact>
</mgrwt>
</event>
<event>
 4    2  0.2930016E-007  0.9050121E+03  0.7818608E-02  0.9518033E-01
          2   -1    0    0  501    0  0.00000000000E+00  0.00000000000E+00  0.15141120816E+04  0.15141120816E+04  0.25500000000E-02 0. -1.
         -2   -1    0    0    0  501 -0.00000000000E+00 -0.00000000000E+00 -0.66199084407E+03  0.66199084408E+03  0.25500000000E-02 0.  1.
    8880023    1    1    2    0    0 -0.98462202726E+02  0.61281478277E+03  0.11561543469E+04  0.14682437957E+04  0.65864270000E+03 0. -1.
    8880022    1    1    2    0    0  0.98462202726E+02 -0.61281478277E+03 -0.30403310938E+03  0.70785913003E+03  0.15294330000E+03 0.  0.
<mgrwt>
<rscale>  0 0.82967284E+03</rscale>
<asrwt>0</asrwt>
<pdfrwt beam="1">  1        2 0.23294032E+00 0.90501214E+03</pdfrwt>
<pdfrwt beam="2">  1       -2 0.10184475E+00 0.90501214E+03</pdfrwt>
<totfact> 0.99103787E+00</totfact>
</mgrwt>
</event>
<event>
 4    2  0.2930016E-007  0.7088777E+03  0.7818608E-02  0.9962192E-01
         -2   -1    0    0    0  501 -0.00000000000E+00  0.00000000000E+00  0.24802071855E+03  0.24802071856E+03  0.25500000000E-02 0.  1.
          2   -1    0    0  501    0  0.00000000000E+00 -0.00000000000E+00 -0.11221363224E+04  0.11221363224E+04  0.25500000000E-02 0. -1.
    8880023    1    1    2    0    0 -0.25380909160E+03  0.65408665007E+02 -0.77643770024E+03  0.10513624765E+04  0.65864270000E+03 0.  0.
    8880022    1    1    2    0    0  0.25380909160E+03 -0.65408665007E+02 -0.97677903594E+02  0.31879456442E+03  0.15294330000E+03 0. -1.
<mgrwt>
<rscale>  0 0.57339572E+03</rscale>
<asrwt>0</asrwt>
<pdfrwt beam="1">  1        2 0.17263635E+00 0.70887767E+03</pdfrwt>
<pdfrwt beam="2">  1       -2 0.38157034E-01 0.70887767E+03</pdfrwt>
<totfact> 0.13908342E+02</totfact>
</mgrwt>
</event>
<event>
 4    2  0.2930016E-007  0.6756693E+03  0.7818608E-02  0.1011888E+00
         -2   -1    0    0    0  501 -0.00000000000E+00  0.00000000000E+00  0.32968698400E+03  0.32968698401E+03  0.25500000000E-02 0.  1.
          2   -1    0    0  501    0  0.00000000000E+00 -0.00000000000E+00 -0.73646160939E+03  0.73646160939E+03  0.25500000000E-02 0. -1.
    8880023    1    1    2    0    0 -0.32515131311E+02 -0.14717882201E+03 -0.49126976693E+03  0.83538914858E+03  0.65864270000E+03 0. -1.
    8880022    1    1    2    0    0  0.32515131311E+02  0.14717882201E+03  0.84495141543E+02  0.23075944482E+03  0.15294330000E+03 0.  0.
<mgrwt>
<rscale>  0 0.50731257E+03</rscale>
<asrwt>0</asrwt>
<pdfrwt beam="1">  1        2 0.11330179E+00 0.67566933E+03</pdfrwt>
<pdfrwt beam="2">  1       -2 0.50721075E-01 0.67566933E+03</pdfrwt>
<totfact> 0.14327085E+02</totfact>
</mgrwt>
</event>
<event>
 4    2  0.2930016E-007  0.7915978E+03  0.7818608E-02  0.9729267E-01
         -2   -1    0    0    0  501 -0.00000000000E+00  0.00000000000E+00  0.55743837059E+03  0.55743837060E+03  0.25500000000E-02 0.  1.
          2   -1    0    0  501    0  0.00000000000E+00 -0.00000000000E+00 -0.77343922172E+03  0.77343922173E+03  0.25500000000E-02 0. -1.
    8880023    1    1    2    0    0  0.43910660768E+03 -0.15233564299E+01 -0.32096877918E+03  0.85419441405E+03  0.65864270000E+03 0. -1.
    8880022    1    1    2    0    0 -0.43910660768E+03  0.15233564299E+01  0.10496792804E+03  0.47668317828E+03  0.15294330000E+03 0.  0.
<mgrwt>
<rscale>  0 0.69300691E+03</rscale>
<asrwt>0</asrwt>
<pdfrwt beam="1">  1        2 0.11899065E+00 0.79159784E+03</pdfrwt>
<pdfrwt beam="2">  1       -2 0.85759749E-01 0.79159784E+03</pdfrwt>
<totfact> 0.42967711E+01</totfact>
</mgrwt>
</event>
<event>
 4    2  0.2930016E-007  0.7966691E+03  0.7818608E-02  0.9718045E-01
          2   -1    0    0  501    0  0.00000000000E+00  0.00000000000E+00  0.11186024011E+04  0.11186024011E+04  0.25500000000E-02 0. -1.
         -2   -1    0    0    0  501 -0.00000000000E+00 -0.00000000000E+00 -0.43035966636E+03  0.43035966637E+03  0.25500000000E-02 0.  1.
    8880023    1    1    2    0    0 -0.27957015059E+03 -0.35030258389E+03  0.72070145999E+03  0.10742868193E+04  0.65864270000E+03 0.  0.
    8880022    1    1    2    0    0  0.27957015059E+03  0.35030258389E+03 -0.32458725260E+02  0.47467524818E+03  0.15294330000E+03 0.  0.
<mgrwt>
<rscale>  0 0.69952488E+03</rscale>
<asrwt>0</asrwt>
<pdfrwt beam="1">  1        2 0.17209268E+00 0.79666905E+03</pdfrwt>
<pdfrwt beam="2">  1       -2 0.66209180E-01 0.79666905E+03</pdfrwt>
<totfact> 0.45083368E+01</totfact>
</mgrwt>
</event>
<event>
 4    2  0.2930016E-007  0.7555257E+03  0.7818608E-02  0.9816832E-01
         -2   -1    0    0    0  501 -0.00000000000E+00  0.00000000000E+00  0.10006996050E+04  0.10006996050E+04  0.25500000000E-02 0.  1.
          2   -1    0    0  501    0  0.00000000000E+00 -0.00000000000E+00 -0.42742084022E+03  0.42742084023E+03  0.25500000000E-02 0. -1.
    8880023    1    1    2    0    0 -0.19981167273E+03 -0.31158321181E+03  0.33868705106E+02  0.75628440278E+03  0.65864270000E+03 0. -1.
    8880022    1    1    2    0    0  0.19981167273E+03  0.31158321181E+03  0.53941005964E+03  0.67183604242E+03  0.15294330000E+03 0.  0.
<mgrwt>
<rscale>  0 0.64467022E+03</rscale>
<asrwt>0</asrwt>
<pdfrwt beam="1">  1        2 0.65757053E-01 0.75552565E+03</pdfrwt>
<pdfrwt beam="2">  1       -2 0.15395378E+00 0.75552565E+03</pdfrwt>
<totfact> 0.20885901E+01</totfact>
</mgrwt>
</event>
<event>
 4    2  0.2930016E-007  0.9108668E+03  0.7818608E-02  0.9508807E-01
          2   -1    0    0  501    0  0.00000000000E+00  0.00000000000E+00  0.62286529470E+03  0.62286529471E+03  0.25500000000E-02 0. -1.
         -2   -1    0    0    0  501 -0.00000000000E+00 -0.00000000000E+00 -0.98150207644E+03  0.98150207644E+03  0.25500000000E-02 0.  1.
    8880023    1    1    2    0    0 -0.51806907365E+03  0.35703306690E+03 -0.14375998865E+03  0.92214170090E+03  0.65864270000E+03 0.  1.
    8880022    1    1    2    0    0  0.51806907365E+03 -0.35703306690E+03 -0.21487679308E+03  0.68222567025E+03  0.15294330000E+03 0. -1.
<mgrwt>
<rscale>  0 0.83637602E+03</rscale>
<asrwt>0</asrwt>
<pdfrwt beam="1">  1        2 0.95825430E-01 0.91086683E+03</pdfrwt>
<pdfrwt beam="2">  1       -2 0.15100032E+00 0.91086683E+03</pdfrwt>
<totfact> 0.13951436E+01</totfact>
</mgrwt>
</event>
<event>
 4    2  0.2930016E-007  0.1026927E+04  0.7818608E-02  0.9347146E-01
          2   -1    0    0  501    0  0.00000000000E+00  0.00000000000E+00  0.95489836298E+03  0.95489836299E+03  0.25500000000E-02 0. -1.
         -2   -1    0    0    0  501 -0.00000000000E+00 -0.00000000000E+00 -0.11430343170E+04  0.11430343170E+04  0.25500000000E-02 0.  1.
    8880023    1    1    2    0    0  0.78720500233E+03 -0.32831866695E+02  0.40087224263E+03  0.11023966656E+04  0.65864270000E+03 0. -1.
    8880022    1    1    2    0    0 -0.78720500233E+03  0.32831866695E+02 -0.58900819660E+03  0.99553601434E+03  0.15294330000E+03 0.  1.
<mgrwt>
<rscale>  0 0.96555970E+03</rscale>
<asrwt>0</asrwt>
<pdfrwt beam="1">  1        2 0.14690744E+00 0.10269274E+04</pdfrwt>
<pdfrwt beam="2">  1       -2 0.17585143E+00 0.10269274E+04</pdfrwt>
<totfact> 0.51635925E+00</totfact>
</mgrwt>
</event>
<event>
 4    2  0.3183856E-007  0.8120659E+03  0.7818608E-02  0.9685290E-01
         -2   -1    0    0    0  501 -0.00000000000E+00  0.00000000000E+00  0.56627325869E+03  0.56627325870E+03  0.25500000000E-02 0.  1.
          2   -1    0    0  501    0  0.00000000000E+00 -0.00000000000E+00 -0.25747685432E+04  0.25747685432E+04  0.25500000000E-02 0. -1.
    8880023    1    1    2    0    0  0.94611753017E+02 -0.46549915968E+03 -0.23827073607E+04  0.25172893009E+04  0.65864270000E+03 0. -1.
    8880022    1    1    2    0    0 -0.94611753017E+02  0.46549915968E+03  0.37421207621E+03  0.62375250097E+03  0.15294330000E+03 0.  0.
<mgrwt>
<rscale>  0 0.71899433E+03</rscale>
<asrwt>0</asrwt>
<pdfrwt beam="1">  1        2 0.39611823E+00 0.81206592E+03</pdfrwt>
<pdfrwt beam="2">  1       -2 0.87118964E-01 0.81206592E+03</pdfrwt>
<totfact> 0.37326844E+00</totfact>
</mgrwt>
</event>
<event>
 4    2  0.2930016E-007  0.6589978E+03  0.7818608E-02  0.1025207E+00
          2   -1    0    0  501    0  0.00000000000E+00  0.00000000000E+00  0.18024239630E+04  0.18024239630E+04  0.25500000000E-02 0. -1.
         -2   -1    0    0    0  501 -0.00000000000E+00 -0.00000000000E+00 -0.29449666101E+03  0.29449666102E+03  0.25500000000E-02 0.  1.
    8880023    1    1    2    0    0 -0.19474145627E+02 -0.94167968326E+01  0.17157652218E+04  0.18379685582E+04  0.65864270000E+03 0. -1.
    8880022    1    1    2    0    0  0.19474145627E+02  0.94167968326E+01 -0.20783791986E+03  0.25895206575E+03  0.15294330000E+03 0.  0.
<mgrwt>
<rscale>  0 0.45853323E+03</rscale>
<asrwt>0</asrwt>
<pdfrwt beam="1">  1        2 0.27729599E+00 0.65899782E+03</pdfrwt>
<pdfrwt beam="2">  1       -2 0.45307180E-01 0.65899782E+03</pdfrwt>
<totfact> 0.41301922E+01</totfact>
</mgrwt>
</event>
<event>
 4    2  0.2930016E-007  0.7340344E+03  0.7818608E-02  0.9877678E-01
         -2   -1    0    0    0  501 -0.00000000000E+00  0.00000000000E+00  0.16838008311E+03  0.16838008313E+03  0.25500000000E-02 0.  1.
          2   -1    0    0  501    0  0.00000000000E+00 -0.00000000000E+00 -0.26119865053E+04  0.26119865054E+04  0.25500000000E-02 0. -1.
    8880023    1    1    2    0    0 -0.28201914324E+03 -0.15956665669E+03 -0.75060776870E+03  0.10498659647E+04  0.65864270000E+03 0.  1.
    8880022    1    1    2    0    0  0.28201914324E+03  0.15956665669E+03 -0.16929986535E+04  0.17305006238E+04  0.15294330000E+03 0.  0.
<mgrwt>
<rscale>  0 0.61355409E+03</rscale>
<asrwt>0</asrwt>
<pdfrwt beam="1">  1        2 0.40184405E+00 0.73403441E+03</pdfrwt>
<pdfrwt beam="2">  1       -2 0.25904630E-01 0.73403441E+03</pdfrwt>
<totfact> 0.42118844E+01</totfact>
</mgrwt>
</event>
<event>
 4    2  0.2930016E-007  0.9414913E+03  0.7818608E-02  0.9462463E-01
          2   -1    0    0  501    0  0.00000000000E+00  0.00000000000E+00  0.27401415181E+04  0.27401415181E+04  0.25500000000E-02 0. -1.
         -2   -1    0    0    0  501 -0.00000000000E+00 -0.00000000000E+00 -0.36571778187E+03  0.36571778188E+03  0.25500000000E-02 0.  1.
    8880023    1    1    2    0    0 -0.66049042304E+03 -0.12785963843E+03  0.41569595290E+03  0.10291788074E+04  0.65864270000E+03 0.  0.
    8880022    1    1    2    0    0  0.66049042304E+03  0.12785963843E+03  0.19587277833E+04  0.20766804926E+04  0.15294330000E+03 0.  0.
<mgrwt>
<rscale>  0 0.87108726E+03</rscale>
<asrwt>0</asrwt>
<pdfrwt beam="1">  1        2 0.42156025E+00 0.94149131E+03</pdfrwt>
<pdfrwt beam="2">  1       -2 0.56264272E-01 0.94149131E+03</pdfrwt>
<totfact> 0.76362988E+00</totfact>
</mgrwt>
</event>
<event>
 4    2  0.2930016E-007  0.7627270E+03  0.7818608E-02  0.9798098E-01
         -2   -1    0    0    0  501 -0.00000000000E+00  0.00000000000E+00  0.13928615978E+03  0.13928615980E+03  0.25500000000E-02 0.  1.
          2   -1    0    0  501    0  0.00000000000E+00 -0.00000000000E+00 -0.25478743840E+04  0.25478743840E+04  0.25500000000E-02 0. -1.
    8880023    1    1    2    0    0  0.32293477455E+03 -0.20893865145E+03 -0.17542819079E+04  0.19129185679E+04  0.65864270000E+03 0. -1.
    8880022    1    1    2    0    0 -0.32293477455E+03  0.20893865145E+03 -0.65430631631E+03  0.77424197591E+03  0.15294330000E+03 0.  0.
<mgrwt>
<rscale>  0 0.65464708E+03</rscale>
<asrwt>0</asrwt>
<pdfrwt beam="1">  1        2 0.39198064E+00 0.76272697E+03</pdfrwt>
<pdfrwt beam="2">  1       -2 0.21428642E-01 0.76272697E+03</pdfrwt>
<totfact> 0.64111007E+01</totfact>
</mgrwt>
</event>
<event>
 4    2  0.2930016E-007  0.8851345E+03  0.7818608E-02  0.9550330E-01
         -2   -1    0    0    0  501 -0.00000000000E+00  0.00000000000E+00  0.48742640694E+03  0.48742640695E+03  0.25500000000E-02 0.  1.
          2   -1    0    0  501    0  0.00000000000E+00 -0.00000000000E+00 -0.19711988643E+04  0.19711988643E+04  0.25500000000E-02 0. -1.
    8880023    1    1    2    0    0  0.53994475697E+03 -0.24106555529E+03 -0.16078398050E+04  0.18353778868E+04  0.65864270000E+03 0.  0.
    8880022    1    1    2    0    0 -0.53994475697E+03  0.24106555529E+03  0.12406734760E+03  0.62324738449E+03  0.15294330000E+03 0.  0.
<mgrwt>
<rscale>  0 0.80672787E+03</rscale>
<asrwt>0</asrwt>
<pdfrwt beam="1">  1        2 0.30326136E+00 0.88513454E+03</pdfrwt>
<pdfrwt beam="2">  1       -2 0.74988679E-01 0.88513454E+03</pdfrwt>
<totfact> 0.11247261E+01</totfact>
</mgrwt>
</event>
<event>
 4    2  0.2930016E-007  0.6842169E+03  0.7818608E-02  0.1007032E+00
         -2   -1    0    0    0  501 -0.00000000000E+00  0.00000000000E+00  0.49243100861E+03  0.49243100862E+03  0.25500000000E-02 0.  1.
          2   -1    0    0  501    0  0.00000000000E+00 -0.00000000000E+00 -0.12020472821E+04  0.12020472821E+04  0.25500000000E-02 0. -1.
    8880023    1    1    2    0    0 -0.14859363667E+03 -0.11073637881E+03 -0.10647833745E+04  0.12656683828E+04  0.65864270000E+03 0. -1.
    8880022    1    1    2    0    0  0.14859363667E+03  0.11073637881E+03  0.35516710100E+03  0.42880990788E+03  0.15294330000E+03 0.  0.
<mgrwt>
<rscale>  0 0.52671365E+03</rscale>
<asrwt>0</asrwt>
<pdfrwt beam="1">  1        2 0.18493035E+00 0.68421694E+03</pdfrwt>
<pdfrwt beam="2">  1       -2 0.75758617E-01 0.68421694E+03</pdfrwt>
<totfact> 0.30260522E+01</totfact>
</mgrwt>
</event>
<event>
 4    2  0.2930016E-007  0.1046642E+04  0.7818608E-02  0.9322929E-01
         -2   -1    0    0    0  501 -0.00000000000E+00  0.00000000000E+00  0.83105242211E+03  0.83105242212E+03  0.25500000000E-02 0.  1.
          2   -1    0    0  501    0  0.00000000000E+00 -0.00000000000E+00 -0.13138324880E+04  0.13138324880E+04  0.25500000000E-02 0. -1.
    8880023    1    1    2    0    0  0.70482622421E+03  0.40604044735E+03  0.20765678704E+03  0.10670428289E+04  0.65864270000E+03 0.  0.
    8880022    1    1    2    0    0 -0.70482622421E+03 -0.40604044735E+03 -0.69043685296E+03  0.10778420813E+04  0.15294330000E+03 0.  0.
<mgrwt>
<rscale>  0 0.98699076E+03</rscale>
<asrwt>0</asrwt>
<pdfrwt beam="1">  1        2 0.20212808E+00 0.10466418E+04</pdfrwt>
<pdfrwt beam="2">  1       -2 0.12785422E+00 0.10466418E+04</pdfrwt>
<totfact> 0.72623971E+00</totfact>
</mgrwt>
</event>
<event>
 4    2  0.2930016E-007  0.6798264E+03  0.7818608E-02  0.1009422E+00
          2   -1    0    0  501    0  0.00000000000E+00  0.00000000000E+00  0.21123894580E+04  0.21123894580E+04  0.25500000000E-02 0. -1.
         -2   -1    0    0    0  501 -0.00000000000E+00 -0.00000000000E+00 -0.10961397994E+03  0.10961397997E+03  0.25500000000E-02 0.  1.
    8880023    1    1    2    0    0 -0.10204638817E+03  0.13394145850E+03  0.17721335803E+04  0.18980572732E+04  0.65864270000E+03 0. -1.
    8880022    1    1    2    0    0  0.10204638817E+03 -0.13394145850E+03  0.23064189769E+03  0.32394616471E+03  0.15294330000E+03 0.  0.
<mgrwt>
<rscale>  0 0.51705000E+03</rscale>
<asrwt>0</asrwt>
<pdfrwt beam="1">  1        2 0.32498302E+00 0.67982644E+03</pdfrwt>
<pdfrwt beam="2">  1       -2 0.16863688E-01 0.67982644E+03</pdfrwt>
<totfact> 0.17160828E+02</totfact>
</mgrwt>
</event>
<event>
 4    2  0.2930016E-007  0.9700675E+03  0.7818608E-02  0.9421811E-01
          2   -1    0    0  501    0  0.00000000000E+00  0.00000000000E+00  0.75651089023E+03  0.75651089023E+03  0.25500000000E-02 0. -1.
         -2   -1    0    0    0  501 -0.00000000000E+00 -0.00000000000E+00 -0.16493145826E+04  0.16493145826E+04  0.25500000000E-02 0.  1.
    8880023    1    1    2    0    0 -0.55730981147E+03  0.44342595327E+03  0.29370559076E+03  0.10135551205E+04  0.65864270000E+03 0. -1.
    8880022    1    1    2    0    0  0.55730981147E+03 -0.44342595327E+03 -0.11865092831E+04  0.13922703523E+04  0.15294330000E+03 0.  0.
<mgrwt>
<rscale>  0 0.90302267E+03</rscale>
<asrwt>0</asrwt>
<pdfrwt beam="1">  1        2 0.11638629E+00 0.97006753E+03</pdfrwt>
<pdfrwt beam="2">  1       -2 0.25374070E+00 0.97006753E+03</pdfrwt>
<totfact> 0.22639101E+00</totfact>
</mgrwt>
</event>
<event>
 4    2  0.2930016E-007  0.6590734E+03  0.7818608E-02  0.1025126E+00
          2   -1    0    0  501    0  0.00000000000E+00  0.00000000000E+00  0.31955154921E+03  0.31955154922E+03  0.25500000000E-02 0. -1.
         -2   -1    0    0    0  501 -0.00000000000E+00 -0.00000000000E+00 -0.60589170075E+03  0.60589170075E+03  0.25500000000E-02 0.  1.
    8880023    1    1    2    0    0 -0.23563454417E+02 -0.35037401919E+01 -0.36330775063E+03  0.75257573739E+03  0.65864270000E+03 0.  1.
    8880022    1    1    2    0    0  0.23563454417E+02  0.35037401919E+01  0.76967599098E+02  0.17286751258E+03  0.15294330000E+03 0.  0.
<mgrwt>
<rscale>  0 0.45881149E+03</rscale>
<asrwt>0</asrwt>
<pdfrwt beam="1">  1        2 0.49161777E-01 0.65907338E+03</pdfrwt>
<pdfrwt beam="2">  1       -2 0.93214108E-01 0.65907338E+03</pdfrwt>
<totfact> 0.10110263E+02</totfact>
</mgrwt>
</event>
<event>
 4    2  0.2930016E-007  0.7443166E+03  0.7818608E-02  0.9847547E-01
         -2   -1    0    0    0  501 -0.00000000000E+00  0.00000000000E+00  0.43340361453E+03  0.43340361454E+03  0.25500000000E-02 0.  1.
          2   -1    0    0  501    0  0.00000000000E+00 -0.00000000000E+00 -0.22302317388E+04  0.22302317388E+04  0.25500000000E-02 0. -1.
    8880023    1    1    2    0    0 -0.34590240527E+03 -0.23421542552E+02 -0.20678694371E+04  0.21977468593E+04  0.65864270000E+03 0.  0.
    8880022    1    1    2    0    0  0.34590240527E+03  0.23421542552E+02  0.27104131278E+03  0.46588849404E+03  0.15294330000E+03 0.  0.
<mgrwt>
<rscale>  0 0.62872152E+03</rscale>
<asrwt>0</asrwt>
<pdfrwt beam="1">  1        2 0.34311257E+00 0.74431663E+03</pdfrwt>
<pdfrwt beam="2">  1       -2 0.66677480E-01 0.74431663E+03</pdfrwt>
<totfact> 0.10690631E+01</totfact>
</mgrwt>
</event>
<event>
 4    2  0.2930016E-007  0.1181843E+04  0.7818608E-02  0.9174977E-01
         -2   -1    0    0    0  501 -0.00000000000E+00  0.00000000000E+00  0.13813802041E+04  0.13813802041E+04  0.25500000000E-02 0.  1.
          2   -1    0    0  501    0  0.00000000000E+00 -0.00000000000E+00 -0.19815665146E+04  0.19815665146E+04  0.25500000000E-02 0. -1.
    8880023    1    1    2    0    0  0.23611867015E+03 -0.95246564456E+03 -0.15764822021E+04  0.19702916460E+04  0.65864270000E+03 0.  0.
    8880022    1    1    2    0    0 -0.23611867015E+03  0.95246564456E+03  0.97629589162E+03  0.13926550727E+04  0.15294330000E+03 0.  0.
<mgrwt>
<rscale>  0 0.11315478E+04</rscale>
<asrwt>0</asrwt>
<pdfrwt beam="1">  1        2 0.30485639E+00 0.11818431E+04</pdfrwt>
<pdfrwt beam="2">  1       -2 0.21252003E+00 0.11818431E+04</pdfrwt>
<totfact> 0.73477788E-01</totfact>
</mgrwt>
</event>
<event>
 4    2  0.2930016E-007  0.7238478E+03  0.7818608E-02  0.9909775E-01
         -2   -1    0    0    0  501 -0.00000000000E+00  0.00000000000E+00  0.67762558050E+03  0.67762558051E+03  0.25500000000E-02 0.  1.
          2   -1    0    0  501    0  0.00000000000E+00 -0.00000000000E+00 -0.16632833594E+04  0.16632833594E+04  0.25500000000E-02 0. -1.
    8880023    1    1    2    0    0  0.29392677774E+03 -0.61257731725E+02 -0.15346304897E+04  0.16967752964E+04  0.65864270000E+03 0. -1.
    8880022    1    1    2    0    0 -0.29392677774E+03  0.61257731725E+02  0.54897271083E+03  0.64413364345E+03  0.15294330000E+03 0.  0.
<mgrwt>
<rscale>  0 0.59789880E+03</rscale>
<asrwt>0</asrwt>
<pdfrwt beam="1">  1        2 0.25588975E+00 0.72384782E+03</pdfrwt>
<pdfrwt beam="2">  1       -2 0.10425009E+00 0.72384782E+03</pdfrwt>
<totfact> 0.79341720E+00</totfact>
</mgrwt>
</event>
<event>
 4    2  0.2930016E-007  0.9558662E+03  0.7818608E-02  0.9441724E-01
         -2   -1    0    0    0  501 -0.00000000000E+00  0.00000000000E+00  0.13903341645E+04  0.13903341645E+04  0.25500000000E-02 0.  1.
          2   -1    0    0  501    0  0.00000000000E+00 -0.00000000000E+00 -0.18670412400E+04  0.18670412400E+04  0.25500000000E-02 0. -1.
    8880023    1    1    2    0    0 -0.61298002354E+03  0.32268482162E+03 -0.16380236173E+04  0.18965235513E+04  0.65864270000E+03 0. -1.
    8880022    1    1    2    0    0  0.61298002354E+03 -0.32268482162E+03  0.11613165418E+04  0.13608518533E+04  0.15294330000E+03 0.  0.
<mgrwt>
<rscale>  0 0.88720108E+03</rscale>
<asrwt>0</asrwt>
<pdfrwt beam="1">  1        2 0.28723712E+00 0.95586621E+03</pdfrwt>
<pdfrwt beam="2">  1       -2 0.21389756E+00 0.95586621E+03</pdfrwt>
<totfact> 0.86024747E-01</totfact>
</mgrwt>
</event>
<event>
 4    2  0.2930016E-007  0.8967923E+03  0.7818608E-02  0.9531201E-01
         -2   -1    0    0    0  501 -0.00000000000E+00  0.00000000000E+00  0.25518505417E+03  0.25518505418E+03  0.25500000000E-02 0.  1.
          2   -1    0    0  501    0  0.00000000000E+00 -0.00000000000E+00 -0.23427061884E+04  0.23427061884E+04  0.25500000000E-02 0. -1.
    8880023    1    1    2    0    0 -0.43685849604E+03  0.42376992805E+03 -0.10077166670E+04  0.13489734559E+04  0.65864270000E+03 0.  1.
    8880022    1    1    2    0    0  0.43685849604E+03 -0.42376992805E+03 -0.10798044672E+04  0.12489177867E+04  0.15294330000E+03 0.  0.
<mgrwt>
<rscale>  0 0.82022095E+03</rscale>
<asrwt>0</asrwt>
<pdfrwt beam="1">  1        2 0.36041632E+00 0.89679234E+03</pdfrwt>
<pdfrwt beam="2">  1       -2 0.39259241E-01 0.89679234E+03</pdfrwt>
<totfact> 0.26845605E+01</totfact>
</mgrwt>
</event>
<event>
 4    2  0.2930016E-007  0.7733021E+03  0.7818608E-02  0.9771812E-01
          2   -1    0    0  501    0  0.00000000000E+00  0.00000000000E+00  0.26355201894E+04  0.26355201894E+04  0.25500000000E-02 0. -1.
         -2   -1    0    0    0  501 -0.00000000000E+00 -0.00000000000E+00 -0.54551242001E+03  0.54551242002E+03  0.25500000000E-02 0.  1.
    8880023    1    1    2    0    0 -0.40249452372E+03 -0.46734468479E+02  0.24802780876E+04  0.25980330156E+04  0.65864270000E+03 0. -1.
    8880022    1    1    2    0    0  0.40249452372E+03  0.46734468479E+02 -0.39027031816E+03  0.58299959384E+03  0.15294330000E+03 0.  0.
<mgrwt>
<rscale>  0 0.66897443E+03</rscale>
<asrwt>0</asrwt>
<pdfrwt beam="1">  1        2 0.40546465E+00 0.77330211E+03</pdfrwt>
<pdfrwt beam="2">  1       -2 0.83924986E-01 0.77330211E+03</pdfrwt>
<totfact> 0.37763122E+00</totfact>
</mgrwt>
</event>
<event>
 4    2  0.2930016E-007  0.8814234E+03  0.7818608E-02  0.9556536E-01
          2   -1    0    0  501    0  0.00000000000E+00  0.00000000000E+00  0.35203848083E+04  0.35203848083E+04  0.25500000000E-02 0. -1.
         -2   -1    0    0    0  501 -0.00000000000E+00 -0.00000000000E+00 -0.50698252894E+03  0.50698252895E+03  0.25500000000E-02 0.  1.
    8880023    1    1    2    0    0  0.31738468876E+03  0.49230478276E+03  0.32574868642E+04  0.33746300414E+04  0.65864270000E+03 0. -1.
    8880022    1    1    2    0    0 -0.31738468876E+03 -0.49230478276E+03 -0.24408458484E+03  0.65273729582E+03  0.15294330000E+03 0.  0.
<mgrwt>
<rscale>  0 0.80240941E+03</rscale>
<asrwt>0</asrwt>
<pdfrwt beam="1">  1        2 0.54159768E+00 0.88142342E+03</pdfrwt>
<pdfrwt beam="2">  1       -2 0.77997309E-01 0.88142342E+03</pdfrwt>
<totfact> 0.12186741E+00</totfact>
</mgrwt>
</event>
<event>
 4    2  0.2930016E-007  0.7553230E+03  0.7818608E-02  0.9817370E-01
          2   -1    0    0  501    0  0.00000000000E+00  0.00000000000E+00  0.19155945619E+04  0.19155945619E+04  0.25500000000E-02 0. -1.
         -2   -1    0    0    0  501 -0.00000000000E+00 -0.00000000000E+00 -0.31633309946E+03  0.31633309947E+03  0.25500000000E-02 0.  1.
    8880023    1    1    2    0    0  0.29769212931E+03  0.21927610220E+03  0.16632532377E+04  0.18267249798E+04  0.65864270000E+03 0. -1.
    8880022    1    1    2    0    0 -0.29769212931E+03 -0.21927610220E+03 -0.63991775245E+02  0.40520268158E+03  0.15294330000E+03 0.  0.
<mgrwt>
<rscale>  0 0.64438660E+03</rscale>
<asrwt>0</asrwt>
<pdfrwt beam="1">  1        2 0.29470686E+00 0.75532299E+03</pdfrwt>
<pdfrwt beam="2">  1       -2 0.48666630E-01 0.75532299E+03</pdfrwt>
<totfact> 0.30658443E+01</totfact>
</mgrwt>
</event>
<event>
 4    2  0.2930016E-007  0.7636136E+03  0.7818608E-02  0.9795840E-01
         -2   -1    0    0    0  501 -0.00000000000E+00  0.00000000000E+00  0.27420142549E+03  0.27420142550E+03  0.25500000000E-02 0.  1.
          2   -1    0    0  501    0  0.00000000000E+00 -0.00000000000E+00 -0.19033411384E+04  0.19033411384E+04  0.25500000000E-02 0. -1.
    8880023    1    1    2    0    0  0.17623229932E+03 -0.34385714702E+03 -0.15853684560E+04  0.17596871621E+04  0.65864270000E+03 0. -1.
    8880022    1    1    2    0    0 -0.17623229932E+03  0.34385714702E+03 -0.43771256907E+02  0.41785540181E+03  0.15294330000E+03 0.  0.
<mgrwt>
<rscale>  0 0.65586246E+03</rscale>
<asrwt>0</asrwt>
<pdfrwt beam="1">  1        2 0.29282171E+00 0.76361362E+03</pdfrwt>
<pdfrwt beam="2">  1       -2 0.42184836E-01 0.76361362E+03</pdfrwt>
<totfact> 0.41377532E+01</totfact>
</mgrwt>
</event>
<event>
 4    2  0.2930016E-007  0.8375415E+03  0.7818608E-02  0.9634833E-01
         -2   -1    0    0    0  501 -0.00000000000E+00  0.00000000000E+00  0.11635575090E+04  0.11635575090E+04  0.25500000000E-02 0.  1.
          2   -1    0    0  501    0  0.00000000000E+00 -0.00000000000E+00 -0.14706627530E+04  0.14706627530E+04  0.25500000000E-02 0. -1.
    8880023    1    1    2    0    0  0.98931806590E+02  0.50781699244E+03 -0.12753744820E+04  0.15257968003E+04  0.65864270000E+03 0. -1.
    8880022    1    1    2    0    0 -0.98931806590E+02 -0.50781699244E+03  0.96826923799E+03  0.11084234617E+04  0.15294330000E+03 0.  0.
<mgrwt>
<rscale>  0 0.75032957E+03</rscale>
<asrwt>0</asrwt>
<pdfrwt beam="1">  1        2 0.22625581E+00 0.83754153E+03</pdfrwt>
<pdfrwt beam="2">  1       -2 0.17900885E+00 0.83754153E+03</pdfrwt>
<totfact> 0.24653200E+00</totfact>
</mgrwt>
</event>
<event>
 4    2  0.2930016E-007  0.7967159E+03  0.7818608E-02  0.9717943E-01
         -2   -1    0    0    0  501 -0.00000000000E+00  0.00000000000E+00  0.91636313404E+03  0.91636313404E+03  0.25500000000E-02 0.  1.
          2   -1    0    0  501    0  0.00000000000E+00 -0.00000000000E+00 -0.12757943788E+04  0.12757943788E+04  0.25500000000E-02 0. -1.
    8880023    1    1    2    0    0 -0.39159320192E+03 -0.21817590187E+03 -0.10725451409E+04  0.13360798050E+04  0.65864270000E+03 0.  0.
    8880022    1    1    2    0    0  0.39159320192E+03  0.21817590187E+03  0.71311389611E+03  0.85607770780E+03  0.15294330000E+03 0.  0.
<mgrwt>
<rscale>  0 0.69958479E+03</rscale>
<asrwt>0</asrwt>
<pdfrwt beam="1">  1        2 0.19627606E+00 0.79671586E+03</pdfrwt>
<pdfrwt beam="2">  1       -2 0.14097894E+00 0.79671586E+03</pdfrwt>
<totfact> 0.61176283E+00</totfact>
</mgrwt>
</event>
<event>
 4    2  0.2930016E-007  0.6672245E+03  0.7818608E-02  0.1017736E+00
          2   -1    0    0  501    0  0.00000000000E+00  0.00000000000E+00  0.21604158124E+04  0.21604158124E+04  0.25500000000E-02 0. -1.
         -2   -1    0    0    0  501 -0.00000000000E+00 -0.00000000000E+00 -0.14270709373E+03  0.14270709375E+03  0.25500000000E-02 0.  1.
    8880023    1    1    2    0    0 -0.10614160334E+03  0.10597198224E+02  0.20085023318E+04  0.21164286342E+04  0.65864270000E+03 0. -1.
    8880022    1    1    2    0    0  0.10614160334E+03 -0.10597198224E+02  0.92063867760E+01  0.18669427185E+03  0.15294330000E+03 0.  0.
<mgrwt>
<rscale>  0 0.48512602E+03</rscale>
<asrwt>0</asrwt>
<pdfrwt beam="1">  1        2 0.33237167E+00 0.66722451E+03</pdfrwt>
<pdfrwt beam="2">  1       -2 0.21954937E-01 0.66722451E+03</pdfrwt>
<totfact> 0.10225242E+02</totfact>
</mgrwt>
</event>
<event>
 4    2  0.2961365E-007  0.6604012E+03  0.7818608E-02  0.1023749E+00
          2   -1    0    0  501    0  0.00000000000E+00  0.00000000000E+00  0.14554616671E+04  0.14554616671E+04  0.25500000000E-02 0. -1.
         -2   -1    0    0    0  501 -0.00000000000E+00 -0.00000000000E+00 -0.86959437603E+03  0.86959437603E+03  0.25500000000E-02 0.  1.
    8880023    1    1    2    0    0  0.40689600529E+02 -0.25765529122E+02  0.13720374224E+04  0.15227003648E+04  0.65864270000E+03 0. -1.
    8880022    1    1    2    0    0 -0.40689600529E+02  0.25765529122E+02 -0.78617013137E+03  0.80235567834E+03  0.15294330000E+03 0.  0.
<mgrwt>
<rscale>  0 0.46357615E+03</rscale>
<asrwt>0</asrwt>
<pdfrwt beam="1">  1        2 0.22391718E+00 0.66040118E+03</pdfrwt>
<pdfrwt beam="2">  1       -2 0.13378375E+00 0.66040118E+03</pdfrwt>
<totfact> 0.56451840E+00</totfact>
</mgrwt>
</event>
<event>
 4    2  0.2930016E-007  0.1043039E+04  0.7818608E-02  0.9327296E-01
         -2   -1    0    0    0  501 -0.00000000000E+00  0.00000000000E+00  0.87748844945E+03  0.87748844945E+03  0.25500000000E-02 0.  1.
          2   -1    0    0  501    0  0.00000000000E+00 -0.00000000000E+00 -0.16548756783E+04  0.16548756783E+04  0.25500000000E-02 0. -1.
    8880023    1    1    2    0    0 -0.79652379257E+03  0.14025049795E+03  0.38175184477E+03  0.11107047454E+04  0.65864270000E+03 0.  1.
    8880022    1    1    2    0    0  0.79652379257E+03 -0.14025049795E+03 -0.11591390737E+04  0.14216593823E+04  0.15294330000E+03 0.  0.
<mgrwt>
<rscale>  0 0.98308273E+03</rscale>
<asrwt>0</asrwt>
<pdfrwt beam="1">  1        2 0.25459626E+00 0.10430391E+04</pdfrwt>
<pdfrwt beam="2">  1       -2 0.13499822E+00 0.10430391E+04</pdfrwt>
<totfact> 0.40565312E+00</totfact>
</mgrwt>
</event>
<event>
 4    2  0.2930016E-007  0.8814867E+03  0.7818608E-02  0.9556430E-01
          2   -1    0    0  501    0  0.00000000000E+00  0.00000000000E+00  0.22346576193E+04  0.22346576193E+04  0.25500000000E-02 0. -1.
         -2   -1    0    0    0  501 -0.00000000000E+00 -0.00000000000E+00 -0.65085099144E+03  0.65085099145E+03  0.25500000000E-02 0.  1.
    8880023    1    1    2    0    0 -0.58414953476E+03 -0.44473846539E+02  0.19762818746E+04  0.21639567593E+04  0.65864270000E+03 0. -1.
    8880022    1    1    2    0    0  0.58414953476E+03  0.44473846539E+02 -0.39247524675E+03  0.72155185144E+03  0.15294330000E+03 0.  0.
<mgrwt>
<rscale>  0 0.80248315E+03</rscale>
<asrwt>0</asrwt>
<pdfrwt beam="1">  1        2 0.34379348E+00 0.88148670E+03</pdfrwt>
<pdfrwt beam="2">  1       -2 0.10013092E+00 0.88148670E+03</pdfrwt>
<totfact> 0.41483542E+00</totfact>
</mgrwt>
</event>
<event>
 4    2  0.2930016E-007  0.7067657E+03  0.7818608E-02  0.9970213E-01
          2   -1    0    0  501    0  0.00000000000E+00  0.00000000000E+00  0.82368125033E+03  0.82368125033E+03  0.25500000000E-02 0. -1.
         -2   -1    0    0    0  501 -0.00000000000E+00 -0.00000000000E+00 -0.32967718072E+03  0.32967718073E+03  0.25500000000E-02 0.  1.
    8880023    1    1    2    0    0  0.25315794272E+03 -0.40231735579E+02  0.48035485302E+03  0.85455165297E+03  0.65864270000E+03 0.  1.
    8880022    1    1    2    0    0 -0.25315794272E+03  0.40231735579E+02  0.13649216587E+02  0.29880677810E+03  0.15294330000E+03 0.  0.
<mgrwt>
<rscale>  0 0.56975850E+03</rscale>
<asrwt>0</asrwt>
<pdfrwt beam="1">  1        2 0.12672019E+00 0.70676569E+03</pdfrwt>
<pdfrwt beam="2">  1       -2 0.50719567E-01 0.70676569E+03</pdfrwt>
<totfact> 0.12351395E+02</totfact>
</mgrwt>
</event>
<event>
 4    2  0.2930016E-007  0.7835806E+03  0.7818608E-02  0.9747492E-01
         -2   -1    0    0    0  501 -0.00000000000E+00  0.00000000000E+00  0.47981384253E+03  0.47981384254E+03  0.25500000000E-02 0.  1.
          2   -1    0    0  501    0  0.00000000000E+00 -0.00000000000E+00 -0.10842401363E+04  0.10842401363E+04  0.25500000000E-02 0. -1.
    8880023    1    1    2    0    0 -0.21329289141E+03  0.36700737957E+03 -0.75526280213E+03  0.10883107923E+04  0.65864270000E+03 0. -1.
    8880022    1    1    2    0    0  0.21329289141E+03 -0.36700737957E+03  0.15083650840E+03  0.47574318646E+03  0.15294330000E+03 0.  0.
<mgrwt>
<rscale>  0 0.68258164E+03</rscale>
<asrwt>0</asrwt>
<pdfrwt beam="1">  1        2 0.16680617E+00 0.78358055E+03</pdfrwt>
<pdfrwt beam="2">  1       -2 0.73817515E-01 0.78358055E+03</pdfrwt>
<totfact> 0.37359181E+01</totfact>
</mgrwt>
</event>
<event>
 4    2  0.2930016E-007  0.1419277E+04  0.7818608E-02  0.8968847E-01
         -2   -1    0    0    0  501 -0.00000000000E+00  0.00000000000E+00  0.13473202333E+04  0.13473202333E+04  0.25500000000E-02 0.  1.
          2   -1    0    0  501    0  0.00000000000E+00 -0.00000000000E+00 -0.24814564569E+04  0.24814564569E+04  0.25500000000E-02 0. -1.
    8880023    1    1    2    0    0 -0.12376307839E+04  0.22092274881E+03 -0.18826200440E+04  0.23576694540E+04  0.65864270000E+03 0.  0.
    8880022    1    1    2    0    0  0.12376307839E+04 -0.22092274881E+03  0.74848382032E+03  0.14711072362E+04  0.15294330000E+03 0.  0.
<mgrwt>
<rscale>  0 0.13794262E+04</rscale>
<asrwt>0</asrwt>
<pdfrwt beam="1">  1        2 0.38176253E+00 0.14192769E+04</pdfrwt>
<pdfrwt beam="2">  1       -2 0.20728004E+00 0.14192769E+04</pdfrwt>
<totfact> 0.40335751E-01</totfact>
</mgrwt>
</event>
<event>
 4    2  0.2930016E-007  0.7909271E+03  0.7818608E-02  0.9730768E-01
          2   -1    0    0  501    0  0.00000000000E+00  0.00000000000E+00  0.62599412424E+03  0.62599412424E+03  0.25500000000E-02 0. -1.
         -2   -1    0    0    0  501 -0.00000000000E+00 -0.00000000000E+00 -0.16496744733E+04  0.16496744733E+04  0.25500000000E-02 0.  1.
    8880023    1    1    2    0    0 -0.39791335172E+03  0.18281254313E+03  0.32073673033E+03  0.85348562838E+03  0.65864270000E+03 0. -1.
    8880022    1    1    2    0    0  0.39791335172E+03 -0.18281254313E+03 -0.13444170794E+04  0.14221829692E+04  0.15294330000E+03 0.  0.
<mgrwt>
<rscale>  0 0.69214053E+03</rscale>
<asrwt>0</asrwt>
<pdfrwt beam="1">  1        2 0.96306789E-01 0.79092709E+03</pdfrwt>
<pdfrwt beam="2">  1       -2 0.25379607E+00 0.79092709E+03</pdfrwt>
<totfact> 0.29401176E+00</totfact>
</mgrwt>
</event>
<event>
 4    2  0.2930016E-007  0.7060555E+03  0.7818608E-02  0.9972951E-01
         -2   -1    0    0    0  501 -0.00000000000E+00  0.00000000000E+00  0.20092697804E+03  0.20092697806E+03  0.25500000000E-02 0.  1.
          2   -1    0    0  501    0  0.00000000000E+00 -0.00000000000E+00 -0.12921621841E+04  0.12921621841E+04  0.25500000000E-02 0. -1.
    8880023    1    1    2    0    0  0.14142461698E+03 -0.21143150706E+03 -0.63976944387E+03  0.95279554577E+03  0.65864270000E+03 0. -1.
    8880022    1    1    2    0    0 -0.14142461698E+03  0.21143150706E+03 -0.45146576218E+03  0.54029361638E+03  0.15294330000E+03 0.  1.
<mgrwt>
<rscale>  0 0.56852371E+03</rscale>
<asrwt>0</asrwt>
<pdfrwt beam="1">  1        2 0.19879418E+00 0.70605553E+03</pdfrwt>
<pdfrwt beam="2">  1       -2 0.30911844E-01 0.70605553E+03</pdfrwt>
<totfact> 0.16463112E+02</totfact>
</mgrwt>
</event>
<event>
 4    2  0.2930016E-007  0.6640427E+03  0.7818608E-02  0.1020350E+00
         -2   -1    0    0    0  501 -0.00000000000E+00  0.00000000000E+00  0.20408125823E+03  0.20408125824E+03  0.25500000000E-02 0.  1.
          2   -1    0    0  501    0  0.00000000000E+00 -0.00000000000E+00 -0.28086262455E+04  0.28086262455E+04  0.25500000000E-02 0. -1.
    8880023    1    1    2    0    0  0.12944706346E+02 -0.83515935833E+02 -0.27222181210E+04  0.28020392898E+04  0.65864270000E+03 0. -1.
    8880022    1    1    2    0    0 -0.12944706346E+02  0.83515935833E+02  0.11767313372E+03  0.21066821396E+03  0.15294330000E+03 0.  0.
<mgrwt>
<rscale>  0 0.47560366E+03</rscale>
<asrwt>0</asrwt>
<pdfrwt beam="1">  1        2 0.43209632E+00 0.66404268E+03</pdfrwt>
<pdfrwt beam="2">  1       -2 0.31397119E-01 0.66404268E+03</pdfrwt>
<totfact> 0.22979428E+01</totfact>
</mgrwt>
</event>
<event>
 4    2  0.2930016E-007  0.8809950E+03  0.7818608E-02  0.9557256E-01
          2   -1    0    0  501    0  0.00000000000E+00  0.00000000000E+00  0.16604036895E+04  0.16604036895E+04  0.25500000000E-02 0. -1.
         -2   -1    0    0    0  501 -0.00000000000E+00 -0.00000000000E+00 -0.43451075070E+03  0.43451075071E+03  0.25500000000E-02 0.  1.
    8880023    1    1    2    0    0  0.55205134214E+03  0.19385901752E+03  0.12012120666E+04  0.14896518513E+04  0.65864270000E+03 0. -1.
    8880022    1    1    2    0    0 -0.55205134214E+03 -0.19385901752E+03  0.24680872231E+02  0.60526258889E+03  0.15294330000E+03 0.  0.
<mgrwt>
<rscale>  0 0.80191014E+03</rscale>
<asrwt>0</asrwt>
<pdfrwt beam="1">  1        2 0.25544672E+00 0.88099501E+03</pdfrwt>
<pdfrwt beam="2">  1       -2 0.66847808E-01 0.88099501E+03</pdfrwt>
<totfact> 0.21443381E+01</totfact>
</mgrwt>
</event>
<event>
 4    2  0.2930016E-007  0.8998233E+03  0.7818608E-02  0.9526315E-01
          2   -1    0    0  501    0  0.00000000000E+00  0.00000000000E+00  0.26524917231E+04  0.26524917231E+04  0.25500000000E-02 0. -1.
         -2   -1    0    0    0  501 -0.00000000000E+00 -0.00000000000E+00 -0.27529974432E+03  0.27529974434E+03  0.25500000000E-02 0.  1.
    8880023    1    1    2    0    0  0.44223599270E+03 -0.42461645254E+03  0.19969846468E+04  0.21903492166E+04  0.65864270000E+03 0. -1.
    8880022    1    1    2    0    0 -0.44223599270E+03  0.42461645254E+03  0.38020733204E+03  0.73744225087E+03  0.15294330000E+03 0.  1.
<mgrwt>
<rscale>  0 0.82371197E+03</rscale>
<asrwt>0</asrwt>
<pdfrwt beam="1">  1        2 0.40807565E+00 0.89982332E+03</pdfrwt>
<pdfrwt beam="2">  1       -2 0.42353807E-01 0.89982332E+03</pdfrwt>
<totfact> 0.15394540E+01</totfact>
</mgrwt>
</event>
<event>
 4    2  0.2930016E-007  0.8380708E+03  0.7818608E-02  0.9633829E-01
          2   -1    0    0  501    0  0.00000000000E+00  0.00000000000E+00  0.33297262793E+04  0.33297262793E+04  0.25500000000E-02 0. -1.
         -2   -1    0    0    0  501 -0.00000000000E+00 -0.00000000000E+00 -0.21179009211E+03  0.21179009213E+03  0.25500000000E-02 0.  1.
    8880023    1    1    2    0    0  0.36450642887E+03 -0.36835792054E+03  0.27815038789E+04  0.29050174748E+04  0.65864270000E+03 0.  0.
    8880022    1    1    2    0    0 -0.36450642887E+03  0.36835792054E+03  0.33643230825E+03  0.63649889659E+03  0.15294330000E+03 0.  0.
<mgrwt>
<rscale>  0 0.75097073E+03</rscale>
<asrwt>0</asrwt>
<pdfrwt beam="1">  1        2 0.51226559E+00 0.83807082E+03</pdfrwt>
<pdfrwt beam="2">  1       -2 0.32583091E-01 0.83807082E+03</pdfrwt>
<totfact> 0.98729229E+00</totfact>
</mgrwt>
</event>
<event>
 4    2  0.2930016E-007  0.8504233E+03  0.7818608E-02  0.9610831E-01
         -2   -1    0    0    0  501 -0.00000000000E+00  0.00000000000E+00  0.79832093170E+03  0.79832093170E+03  0.25500000000E-02 0.  1.
          2   -1    0    0  501    0  0.00000000000E+00 -0.00000000000E+00 -0.31152915490E+04  0.31152915490E+04  0.25500000000E-02 0. -1.
    8880023    1    1    2    0    0 -0.33513503047E+03 -0.42082546976E+03 -0.29492827540E+04  0.30694443364E+04  0.65864270000E+03 0. -1.
    8880022    1    1    2    0    0  0.33513503047E+03  0.42082546976E+03  0.63231213672E+03  0.84416814433E+03  0.15294330000E+03 0.  0.
<mgrwt>
<rscale>  0 0.76583448E+03</rscale>
<asrwt>0</asrwt>
<pdfrwt beam="1">  1        2 0.47927562E+00 0.85042329E+03</pdfrwt>
<pdfrwt beam="2">  1       -2 0.12281861E+00 0.85042329E+03</pdfrwt>
<totfact> 0.77389869E-01</totfact>
</mgrwt>
</event>
<event>
 4    2  0.2930016E-007  0.7304119E+03  0.7818608E-02  0.9888812E-01
          2   -1    0    0  501    0  0.00000000000E+00  0.00000000000E+00  0.12789817496E+04  0.12789817496E+04  0.25500000000E-02 0. -1.
         -2   -1    0    0    0  501 -0.00000000000E+00 -0.00000000000E+00 -0.28522267152E+03  0.28522267153E+03  0.25500000000E-02 0.  1.
    8880023    1    1    2    0    0 -0.23446278263E+03  0.21146768066E+03  0.96769061334E+03  0.12124053389E+04  0.65864270000E+03 0.  1.
    8880022    1    1    2    0    0  0.23446278263E+03 -0.21146768066E+03  0.26068464762E+02  0.35179908225E+03  0.15294330000E+03 0.  0.
<mgrwt>
<rscale>  0 0.60806592E+03</rscale>
<asrwt>0</asrwt>
<pdfrwt beam="1">  1        2 0.19676642E+00 0.73041193E+03</pdfrwt>
<pdfrwt beam="2">  1       -2 0.43880411E-01 0.73041193E+03</pdfrwt>
<totfact> 0.85297204E+01</totfact>
</mgrwt>
</event>
<event>
 4    2  0.2930016E-007  0.1056406E+04  0.7818608E-02  0.9311220E-01
          2   -1    0    0  501    0  0.00000000000E+00  0.00000000000E+00  0.27134786584E+04  0.27134786584E+04  0.25500000000E-02 0. -1.
         -2   -1    0    0    0  501 -0.00000000000E+00 -0.00000000000E+00 -0.45556065176E+03  0.45556065177E+03  0.25500000000E-02 0.  1.
    8880023    1    1    2    0    0 -0.10277374870E+03 -0.81952478985E+03  0.20461605314E+04  0.23027736431E+04  0.65864270000E+03 0. -1.
    8880022    1    1    2    0    0  0.10277374870E+03  0.81952478985E+03  0.21175747515E+03  0.86626566704E+03  0.15294330000E+03 0.  0.
<mgrwt>
<rscale>  0 0.99756459E+03</rscale>
<asrwt>0</asrwt>
<pdfrwt beam="1">  1        2 0.41745826E+00 0.10564059E+04</pdfrwt>
<pdfrwt beam="2">  1       -2 0.70086253E-01 0.10564059E+04</pdfrwt>
<totfact> 0.48703890E+00</totfact>
</mgrwt>
</event>
<event>
 4    2  0.2930016E-007  0.6616806E+03  0.7818608E-02  0.1022497E+00
         -2   -1    0    0    0  501 -0.00000000000E+00  0.00000000000E+00  0.17201257174E+03  0.17201257176E+03  0.25500000000E-02 0.  1.
          2   -1    0    0  501    0  0.00000000000E+00 -0.00000000000E+00 -0.22702744007E+04  0.22702744007E+04  0.25500000000E-02 0. -1.
    8880023    1    1    2    0    0 -0.18900618274E+02  0.60446258116E+02 -0.21649595966E+04  0.22638178471E+04  0.65864270000E+03 0. -1.
    8880022    1    1    2    0    0  0.18900618274E+02 -0.60446258116E+02  0.66697767655E+02  0.17846912539E+03  0.15294330000E+03 0.  0.
<mgrwt>
<rscale>  0 0.46796173E+03</rscale>
<asrwt>0</asrwt>
<pdfrwt beam="1">  1        2 0.34927296E+00 0.66168058E+03</pdfrwt>
<pdfrwt beam="2">  1       -2 0.26463474E-01 0.66168058E+03</pdfrwt>
<totfact> 0.63721162E+01</totfact>
</mgrwt>
</event>
<event>
 4    2  0.2930016E-007  0.7861545E+03  0.7818608E-02  0.9741574E-01
          2   -1    0    0  501    0  0.00000000000E+00  0.00000000000E+00  0.86255550714E+03  0.86255550715E+03  0.25500000000E-02 0. -1.
         -2   -1    0    0    0  501 -0.00000000000E+00 -0.00000000000E+00 -0.52034527050E+03  0.52034527051E+03  0.25500000000E-02 0.  1.
    8880023    1    1    2    0    0  0.38290732365E+03 -0.19393472974E+03  0.46187785147E+03  0.91179496262E+03  0.65864270000E+03 0. -1.
    8880022    1    1    2    0    0 -0.38290732365E+03  0.19393472974E+03 -0.11966761483E+03  0.47110581504E+03  0.15294330000E+03 0.  0.
<mgrwt>
<rscale>  0 0.68594559E+03</rscale>
<asrwt>0</asrwt>
<pdfrwt beam="1">  1        2 0.13270085E+00 0.78615450E+03</pdfrwt>
<pdfrwt beam="2">  1       -2 0.80053120E-01 0.78615450E+03</pdfrwt>
<totfact> 0.43420787E+01</totfact>
</mgrwt>
</event>
<event>
 4    2  0.2930016E-007  0.7819868E+03  0.7818608E-02  0.9751190E-01
         -2   -1    0    0    0  501 -0.00000000000E+00  0.00000000000E+00  0.18355490470E+03  0.18355490472E+03  0.25500000000E-02 0.  1.
          2   -1    0    0  501    0  0.00000000000E+00 -0.00000000000E+00 -0.24611322168E+04  0.24611322168E+04  0.25500000000E-02 0. -1.
    8880023    1    1    2    0    0  0.28229243061E+03 -0.31305621079E+03 -0.19133430724E+04  0.20669748732E+04  0.65864270000E+03 0. -1.
    8880022    1    1    2    0    0 -0.28229243061E+03  0.31305621079E+03 -0.36423423975E+03  0.57771224837E+03  0.15294330000E+03 0.  1.
<mgrwt>
<rscale>  0 0.68049040E+03</rscale>
<asrwt>0</asrwt>
<pdfrwt beam="1">  1        2 0.37863570E+00 0.78198684E+03</pdfrwt>
<pdfrwt beam="2">  1       -2 0.28239218E-01 0.78198684E+03</pdfrwt>
<totfact> 0.43568702E+01</totfact>
</mgrwt>
</event>
<event>
 4    2  0.2930016E-007  0.6670550E+03  0.7818608E-02  0.1017868E+00
          2   -1    0    0  501    0  0.00000000000E+00  0.00000000000E+00  0.10691247571E+04  0.10691247571E+04  0.25500000000E-02 0. -1.
         -2   -1    0    0    0  501 -0.00000000000E+00 -0.00000000000E+00 -0.41843679216E+03  0.41843679217E+03  0.25500000000E-02 0.  1.
    8880023    1    1    2    0    0  0.98282541528E+02 -0.38634880863E+02  0.93459457326E+03  0.11482287815E+04  0.65864270000E+03 0. -1.
    8880022    1    1    2    0    0 -0.98282541528E+02  0.38634880863E+02 -0.28390660836E+03  0.33933276775E+03  0.15294330000E+03 0.  0.
<mgrwt>
<rscale>  0 0.48463795E+03</rscale>
<asrwt>0</asrwt>
<pdfrwt beam="1">  1        2 0.16448073E+00 0.66705496E+03</pdfrwt>
<pdfrwt beam="2">  1       -2 0.64374891E-01 0.66705496E+03</pdfrwt>
<totfact> 0.51978648E+01</totfact>
</mgrwt>
</event>
<event>
 4    2  0.2930016E-007  0.7273304E+03  0.7818608E-02  0.9898520E-01
          2   -1    0    0  501    0  0.00000000000E+00  0.00000000000E+00  0.21940502619E+04  0.21940502619E+04  0.25500000000E-02 0. -1.
         -2   -1    0    0    0  501 -0.00000000000E+00 -0.00000000000E+00 -0.78792770588E+03  0.78792770589E+03  0.25500000000E-02 0.  1.
    8880023    1    1    2    0    0  0.12625464534E+03  0.28152979799E+03  0.20918215795E+04  0.22146618228E+04  0.65864270000E+03 0. -1.
    8880022    1    1    2    0    0 -0.12625464534E+03 -0.28152979799E+03 -0.68569902345E+03  0.76731614502E+03  0.15294330000E+03 0.  0.
<mgrwt>
<rscale>  0 0.60333042E+03</rscale>
<asrwt>0</asrwt>
<pdfrwt beam="1">  1        2 0.33754619E+00 0.72733037E+03</pdfrwt>
<pdfrwt beam="2">  1       -2 0.12121965E+00 0.72733037E+03</pdfrwt>
<totfact> 0.28185999E+00</totfact>
</mgrwt>
</event>
<event>
 4    2  0.2930016E-007  0.8419502E+03  0.7818608E-02  0.9626514E-01
         -2   -1    0    0    0  501 -0.00000000000E+00  0.00000000000E+00  0.32272076005E+03  0.32272076006E+03  0.25500000000E-02 0.  1.
          2   -1    0    0  501    0  0.00000000000E+00 -0.00000000000E+00 -0.21866254154E+04  0.21866254154E+04  0.25500000000E-02 0. -1.
    8880023    1    1    2    0    0 -0.15319851489E+03  0.50159752147E+03 -0.17630866987E+04  0.19538052032E+04  0.65864270000E+03 0.  0.
    8880022    1    1    2    0    0  0.15319851489E+03 -0.50159752147E+03 -0.10081795666E+03  0.55554097231E+03  0.15294330000E+03 0.  0.
<mgrwt>
<rscale>  0 0.75565895E+03</rscale>
<asrwt>0</asrwt>
<pdfrwt beam="1">  1        2 0.33640390E+00 0.84195016E+03</pdfrwt>
<pdfrwt beam="2">  1       -2 0.49649349E-01 0.84195016E+03</pdfrwt>
<totfact> 0.20680481E+01</totfact>
</mgrwt>
</event>
<event>
 4    2  0.2930016E-007  0.7169584E+03  0.7818608E-02  0.9933015E-01
          2   -1    0    0  501    0  0.00000000000E+00  0.00000000000E+00  0.48465078524E+03  0.48465078525E+03  0.25500000000E-02 0. -1.
         -2   -1    0    0    0  501 -0.00000000000E+00 -0.00000000000E+00 -0.89089821012E+03  0.89089821012E+03  0.25500000000E-02 0.  1.
    8880023    1    1    2    0    0  0.28316547339E+03 -0.60396668436E+01  0.15037310492E+03  0.73255814776E+03  0.65864270000E+03 0. -1.
    8880022    1    1    2    0    0 -0.28316547339E+03  0.60396668436E+01 -0.55662052980E+03  0.64299084761E+03  0.15294330000E+03 0.  0.
<mgrwt>
<rscale>  0 0.58687568E+03</rscale>
<asrwt>0</asrwt>
<pdfrwt beam="1">  1        2 0.74561660E-01 0.71695842E+03</pdfrwt>
<pdfrwt beam="2">  1       -2 0.13706126E+00 0.71695842E+03</pdfrwt>
<totfact> 0.24606012E+01</totfact>
</mgrwt>
</event>
<event>
 4    2  0.2930016E-007  0.9353723E+03  0.7818608E-02  0.9471480E-01
         -2   -1    0    0    0  501 -0.00000000000E+00  0.00000000000E+00  0.39549630078E+03  0.39549630079E+03  0.25500000000E-02 0.  1.
          2   -1    0    0  501    0  0.00000000000E+00 -0.00000000000E+00 -0.21112986620E+04  0.21112986620E+04  0.25500000000E-02 0. -1.
    8880023    1    1    2    0    0  0.41020827582E+03  0.52234119771E+03 -0.38477134425E+03  0.10114199672E+04  0.65864270000E+03 0.  1.
    8880022    1    1    2    0    0 -0.41020827582E+03 -0.52234119771E+03 -0.13310310170E+04  0.14953749956E+04  0.15294330000E+03 0.  0.
<mgrwt>
<rscale>  0 0.86419535E+03</rscale>
<asrwt>0</asrwt>
<pdfrwt beam="1">  1        2 0.32481517E+00 0.93537231E+03</pdfrwt>
<pdfrwt beam="2">  1       -2 0.60845586E-01 0.93537231E+03</pdfrwt>
<totfact> 0.14741805E+01</totfact>
</mgrwt>
</event>
<event>
 4    2  0.2930016E-007  0.8943062E+03  0.7818608E-02  0.9535234E-01
          2   -1    0    0  501    0  0.00000000000E+00  0.00000000000E+00  0.65289467702E+03  0.65289467702E+03  0.25500000000E-02 0. -1.
         -2   -1    0    0    0  501 -0.00000000000E+00 -0.00000000000E+00 -0.13728914848E+04  0.13728914848E+04  0.25500000000E-02 0.  1.
    8880023    1    1    2    0    0 -0.18522208269E+03  0.57590466518E+03  0.19783804180E+03  0.91592767201E+03  0.65864270000E+03 0. -1.
    8880022    1    1    2    0    0  0.18522208269E+03 -0.57590466518E+03 -0.91783484959E+03  0.11098584898E+04  0.15294330000E+03 0.  0.
<mgrwt>
<rscale>  0 0.81735234E+03</rscale>
<asrwt>0</asrwt>
<pdfrwt beam="1">  1        2 0.10044534E+00 0.89430622E+03</pdfrwt>
<pdfrwt beam="2">  1       -2 0.21121407E+00 0.89430622E+03</pdfrwt>
<totfact> 0.50556172E+00</totfact>
</mgrwt>
</event>
<event>
 4    2  0.2930016E-007  0.1159222E+04  0.7818608E-02  0.9197818E-01
         -2   -1    0    0    0  501 -0.00000000000E+00  0.00000000000E+00  0.11369680813E+04  0.11369680813E+04  0.25500000000E-02 0.  1.
          2   -1    0    0  501    0  0.00000000000E+00 -0.00000000000E+00 -0.25539454644E+04  0.25539454644E+04  0.25500000000E-02 0. -1.
    8880023    1    1    2    0    0  0.26511561947E+03 -0.91635121659E+03 -0.21738547834E+04  0.24636234837E+04  0.65864270000E+03 0.  0.
    8880022    1    1    2    0    0 -0.26511561947E+03  0.91635121659E+03  0.75687740035E+03  0.12272900619E+04  0.15294330000E+03 0.  0.
<mgrwt>
<rscale>  0 0.11075980E+04</rscale>
<asrwt>0</asrwt>
<pdfrwt beam="1">  1        2 0.39291468E+00 0.11592222E+04</pdfrwt>
<pdfrwt beam="2">  1       -2 0.17491817E+00 0.11592222E+04</pdfrwt>
<totfact> 0.62597124E-01</totfact>
</mgrwt>
</event>
<event>
 4    2  0.2930016E-007  0.6666875E+03  0.7818608E-02  0.1018158E+00
          2   -1    0    0  501    0  0.00000000000E+00  0.00000000000E+00  0.43306963899E+03  0.43306963899E+03  0.25500000000E-02 0. -1.
         -2   -1    0    0    0  501 -0.00000000000E+00 -0.00000000000E+00 -0.14536983849E+04  0.14536983849E+04  0.25500000000E-02 0.  1.
    8880023    1    1    2    0    0 -0.10157040549E+03 -0.18585231068E+02  0.16505054848E+03  0.68681427468E+03  0.65864270000E+03 0. -1.
    8880022    1    1    2    0    0  0.10157040549E+03  0.18585231068E+02 -0.11856792944E+04  0.11999537492E+04  0.15294330000E+03 0.  0.
<mgrwt>
<rscale>  0 0.48357307E+03</rscale>
<asrwt>0</asrwt>
<pdfrwt beam="1">  1        2 0.66626099E-01 0.66668746E+03</pdfrwt>
<pdfrwt beam="2">  1       -2 0.22364590E+00 0.66668746E+03</pdfrwt>
<totfact> 0.70389855E+00</totfact>
</mgrwt>
</event>
<event>
 4    2  0.2930016E-007  0.7248792E+03  0.7818608E-02  0.9906409E-01
         -2   -1    0    0    0  501 -0.00000000000E+00  0.00000000000E+00  0.20087641593E+04  0.20087641593E+04  0.25500000000E-02 0.  1.
          2   -1    0    0  501    0  0.00000000000E+00 -0.00000000000E+00 -0.44220449463E+03  0.44220449464E+03  0.25500000000E-02 0. -1.
    8880023    1    1    2    0    0 -0.28871672651E+03  0.91007254617E+02 -0.11640737984E+03  0.73416657027E+03  0.65864270000E+03 0. -1.
    8880022    1    1    2    0    0  0.28871672651E+03 -0.91007254617E+02  0.16829670445E+04  0.17168020837E+04  0.15294330000E+03 0.  0.
<mgrwt>
<rscale>  0 0.59951665E+03</rscale>
<asrwt>0</asrwt>
<pdfrwt beam="1">  1        2 0.68031461E-01 0.72487921E+03</pdfrwt>
<pdfrwt beam="2">  1       -2 0.30904064E+00 0.72487921E+03</pdfrwt>
<totfact> 0.20790091E+00</totfact>
</mgrwt>
</event>
<event>
 4    2  0.2930016E-007  0.6996004E+03  0.7818608E-02  0.9998863E-01
          2   -1    0    0  501    0  0.00000000000E+00  0.00000000000E+00  0.98273970078E+03  0.98273970078E+03  0.25500000000E-02 0. -1.
         -2   -1    0    0    0  501 -0.00000000000E+00 -0.00000000000E+00 -0.28819590862E+03  0.28819590863E+03  0.25500000000E-02 0.  1.
    8880023    1    1    2    0    0 -0.22769337950E+03 -0.61532419350E+02  0.70014700183E+03  0.98977095539E+03  0.65864270000E+03 0.  0.
    8880022    1    1    2    0    0  0.22769337950E+03  0.61532419350E+02 -0.56032096725E+01  0.28116465402E+03  0.15294330000E+03 0.  0.
<mgrwt>
<rscale>  0 0.55700123E+03</rscale>
<asrwt>0</asrwt>
<pdfrwt beam="1">  1        2 0.15119072E+00 0.69960040E+03</pdfrwt>
<pdfrwt beam="2">  1       -2 0.44337832E-01 0.69960040E+03</pdfrwt>
<totfact> 0.12667071E+02</totfact>
</mgrwt>
</event>
<event>
 4    2  0.2930016E-007  0.6740745E+03  0.7818608E-02  0.1012896E+00
          2   -1    0    0  501    0  0.00000000000E+00  0.00000000000E+00  0.20951912852E+04  0.20951912852E+04  0.25500000000E-02 0. -1.
         -2   -1    0    0    0  501 -0.00000000000E+00 -0.00000000000E+00 -0.14861718317E+03  0.14861718319E+03  0.25500000000E-02 0.  1.
    8880023    1    1    2    0    0 -0.14330035583E+03 -0.55854744449E+01  0.19170152742E+04  0.20320738070E+04  0.65864270000E+03 0. -1.
    8880022    1    1    2    0    0  0.14330035583E+03  0.55854744449E+01  0.29558827867E+02  0.21173466137E+03  0.15294330000E+03 0.  0.
<mgrwt>
<rscale>  0 0.50339681E+03</rscale>
<asrwt>0</asrwt>
<pdfrwt beam="1">  1        2 0.32233710E+00 0.67407447E+03</pdfrwt>
<pdfrwt beam="2">  1       -2 0.22864183E-01 0.67407447E+03</pdfrwt>
<totfact> 0.10321056E+02</totfact>
</mgrwt>
</event>
<event>
 4    2  0.2930016E-007  0.7117566E+03  0.7818608E-02  0.9951535E-01
          2   -1    0    0  501    0  0.00000000000E+00  0.00000000000E+00  0.45497003335E+03  0.45497003335E+03  0.25500000000E-02 0. -1.
         -2   -1    0    0    0  501 -0.00000000000E+00 -0.00000000000E+00 -0.70571349485E+03  0.70571349486E+03  0.25500000000E-02 0.  1.
    8880023    1    1    2    0    0 -0.26268493683E+03 -0.61513726549E+02  0.69187033184E+02  0.71511143636E+03  0.65864270000E+03 0. -1.
    8880022    1    1    2    0    0  0.26268493683E+03  0.61513726549E+02 -0.31993049469E+03  0.44557209185E+03  0.15294330000E+03 0.  0.
<mgrwt>
<rscale>  0 0.57827399E+03</rscale>
<asrwt>0</asrwt>
<pdfrwt beam="1">  1        2 0.69995390E-01 0.71175664E+03</pdfrwt>
<pdfrwt beam="2">  1       -2 0.10857131E+00 0.71175664E+03</pdfrwt>
<totfact> 0.47234313E+01</totfact>
</mgrwt>
</event>
<event>
 4    2  0.2930016E-007  0.6702899E+03  0.7818608E-02  0.1015456E+00
          2   -1    0    0  501    0  0.00000000000E+00  0.00000000000E+00  0.10523616241E+04  0.10523616241E+04  0.25500000000E-02 0. -1.
         -2   -1    0    0    0  501 -0.00000000000E+00 -0.00000000000E+00 -0.23985429721E+03  0.23985429723E+03  0.25500000000E-02 0.  1.
    8880023    1    1    2    0    0  0.12095358752E+03 -0.29130340433E+02  0.85907888156E+03  0.10896352959E+04  0.65864270000E+03 0. -1.
    8880022    1    1    2    0    0 -0.12095358752E+03  0.29130340433E+02 -0.46571554699E+02  0.20258062540E+03  0.15294330000E+03 0.  0.
<mgrwt>
<rscale>  0 0.49362691E+03</rscale>
<asrwt>0</asrwt>
<pdfrwt beam="1">  1        2 0.16190179E+00 0.67028990E+03</pdfrwt>
<pdfrwt beam="2">  1       -2 0.36900661E-01 0.67028990E+03</pdfrwt>
<totfact> 0.16417052E+02</totfact>
</mgrwt>
</event>
<event>
 4    2  0.2930016E-007  0.7680664E+03  0.7818608E-02  0.9784655E-01
         -2   -1    0    0    0  501 -0.00000000000E+00  0.00000000000E+00  0.13240677614E+03  0.13240677616E+03  0.25500000000E-02 0.  1.
          2   -1    0    0  501    0  0.00000000000E+00 -0.00000000000E+00 -0.30026638869E+04  0.30026638869E+04  0.25500000000E-02 0. -1.
    8880023    1    1    2    0    0  0.27984108673E+03 -0.27893504760E+03 -0.22985692999E+04  0.24234988813E+04  0.65864270000E+03 0.  0.
    8880022    1    1    2    0    0 -0.27984108673E+03  0.27893504760E+03 -0.57168781086E+03  0.71157178183E+03  0.15294330000E+03 0.  0.
<mgrwt>
<rscale>  0 0.66192592E+03</rscale>
<asrwt>0</asrwt>
<pdfrwt beam="1">  1        2 0.46194824E+00 0.76806640E+03</pdfrwt>
<pdfrwt beam="2">  1       -2 0.20370276E-01 0.76806640E+03</pdfrwt>
<totfact> 0.37762354E+01</totfact>
</mgrwt>
</event>
<event>
 4    2  0.2930016E-007  0.6810402E+03  0.7818608E-02  0.1008741E+00
         -2   -1    0    0    0  501 -0.00000000000E+00  0.00000000000E+00  0.13629625986E+04  0.13629625986E+04  0.25500000000E-02 0.  1.
          2   -1    0    0  501    0  0.00000000000E+00 -0.00000000000E+00 -0.34034480454E+03  0.34034480455E+03  0.25500000000E-02 0. -1.
    8880023    1    1    2    0    0  0.17075239407E+03  0.29139732036E+02  0.27374572122E+02  0.68159010962E+03  0.65864270000E+03 0. -1.
    8880022    1    1    2    0    0 -0.17075239407E+03 -0.29139732036E+02  0.99524322195E+03  0.10217172935E+04  0.15294330000E+03 0.  0.
<mgrwt>
<rscale>  0 0.51977970E+03</rscale>
<asrwt>0</asrwt>
<pdfrwt beam="1">  1        2 0.52360740E-01 0.68104017E+03</pdfrwt>
<pdfrwt beam="2">  1       -2 0.20968655E+00 0.68104017E+03</pdfrwt>
<totfact> 0.11264996E+01</totfact>
</mgrwt>
</event>
<event>
 4    2  0.2930016E-007  0.6727897E+03  0.7818608E-02  0.1013737E+00
          2   -1    0    0  501    0  0.00000000000E+00  0.00000000000E+00  0.23115557700E+04  0.23115557700E+04  0.25500000000E-02 0. -1.
         -2   -1    0    0    0  501 -0.00000000000E+00 -0.00000000000E+00 -0.15633220543E+03  0.15633220545E+03  0.25500000000E-02 0.  1.
    8880023    1    1    2    0    0  0.50152606170E+02 -0.12775146642E+03  0.21599850725E+04  0.22623398155E+04  0.65864270000E+03 0. -1.
    8880022    1    1    2    0    0 -0.50152606170E+02  0.12775146642E+03 -0.47615079614E+01  0.20554815993E+03  0.15294330000E+03 0.  0.
<mgrwt>
<rscale>  0 0.50015975E+03</rscale>
<asrwt>0</asrwt>
<pdfrwt beam="1">  1        2 0.35562393E+00 0.67278966E+03</pdfrwt>
<pdfrwt beam="2">  1       -2 0.24051111E-01 0.67278966E+03</pdfrwt>
<totfact> 0.71720865E+01</totfact>
</mgrwt>
</event>
<event>
 4    2  0.2930016E-007  0.6890707E+03  0.7818608E-02  0.1004597E+00
          2   -1    0    0  501    0  0.00000000000E+00  0.00000000000E+00  0.10316610797E+04  0.10316610797E+04  0.25500000000E-02 0. -1.
         -2   -1    0    0    0  501 -0.00000000000E+00 -0.00000000000E+00 -0.40374193311E+03  0.40374193312E+03  0.25500000000E-02 0.  1.
    8880023    1    1    2    0    0  0.39889099350E+02  0.19853726834E+03  0.85275280372E+03  0.10963602226E+04  0.65864270000E+03 0.  0.
    8880022    1    1    2    0    0 -0.39889099350E+02 -0.19853726834E+03 -0.22483365717E+03  0.33904279019E+03  0.15294330000E+03 0.  0.
<mgrwt>
<rscale>  0 0.53679495E+03</rscale>
<asrwt>0</asrwt>
<pdfrwt beam="1">  1        2 0.15871709E+00 0.68907067E+03</pdfrwt>
<pdfrwt beam="2">  1       -2 0.62114145E-01 0.68907067E+03</pdfrwt>
<totfact> 0.59062283E+01</totfact>
</mgrwt>
</event>
<event>
 4    2  0.2930016E-007  0.6690371E+03  0.7818608E-02  0.1016363E+00
         -2   -1    0    0    0  501 -0.00000000000E+00  0.00000000000E+00  0.16027140648E+03  0.16027140650E+03  0.25500000000E-02 0.  1.
          2   -1    0    0  501    0  0.00000000000E+00 -0.00000000000E+00 -0.13040722595E+04  0.13040722595E+04  0.25500000000E-02 0. -1.
    8880023    1    1    2    0    0  0.93420531403E+02 -0.71225374754E+02 -0.64399927171E+03  0.92862571466E+03  0.65864270000E+03 0.  1.
    8880022    1    1    2    0    0 -0.93420531403E+02  0.71225374754E+02 -0.49980158128E+03  0.53571795131E+03  0.15294330000E+03 0.  0.
<mgrwt>
<rscale>  0 0.49022336E+03</rscale>
<asrwt>0</asrwt>
<pdfrwt beam="1">  1        2 0.20062649E+00 0.66903711E+03</pdfrwt>
<pdfrwt beam="2">  1       -2 0.24657140E-01 0.66903711E+03</pdfrwt>
<totfact> 0.24575174E+02</totfact>
</mgrwt>
</event>
<event>
 4    2  0.2930016E-007  0.8637959E+03  0.7818608E-02  0.9586847E-01
          2   -1    0    0  501    0  0.00000000000E+00  0.00000000000E+00  0.64379872016E+03  0.64379872016E+03  0.25500000000E-02 0. -1.
         -2   -1    0    0    0  501 -0.00000000000E+00 -0.00000000000E+00 -0.12941801818E+04  0.12941801818E+04  0.25500000000E-02 0.  1.
    8880023    1    1    2    0    0 -0.52253988768E+03  0.19820482029E+03 -0.95140240255E+03  0.12850330046E+04  0.65864270000E+03 0.  1.
    8880022    1    1    2    0    0  0.52253988768E+03 -0.19820482029E+03  0.30102094093E+03  0.65294589737E+03  0.15294330000E+03 0.  0.
<mgrwt>
<rscale>  0 0.78172906E+03</rscale>
<asrwt>0</asrwt>
<pdfrwt beam="1">  1        2 0.99045957E-01 0.86379586E+03</pdfrwt>
<pdfrwt beam="2">  1       -2 0.19910464E+00 0.86379586E+03</pdfrwt>
<totfact> 0.61784044E+00</totfact>
</mgrwt>
</event>
<event>
 4    2  0.2930016E-007  0.6899621E+03  0.7818608E-02  0.1004171E+00
         -2   -1    0    0    0  501 -0.00000000000E+00  0.00000000000E+00  0.31930873393E+03  0.31930873394E+03  0.25500000000E-02 0.  1.
          2   -1    0    0  501    0  0.00000000000E+00 -0.00000000000E+00 -0.11777011741E+04  0.11777011741E+04  0.25500000000E-02 0. -1.
    8880023    1    1    2    0    0  0.20450850149E+03  0.20340482376E+02 -0.99178947277E+03  0.12081779782E+04  0.65864270000E+03 0. -1.
    8880022    1    1    2    0    0 -0.20450850149E+03 -0.20340482376E+02  0.13339703257E+03  0.28883192988E+03  0.15294330000E+03 0.  0.
<mgrwt>
<rscale>  0 0.53858715E+03</rscale>
<asrwt>0</asrwt>
<pdfrwt beam="1">  1        2 0.18118479E+00 0.68996208E+03</pdfrwt>
<pdfrwt beam="2">  1       -2 0.49124421E-01 0.68996208E+03</pdfrwt>
<totfact> 0.78275651E+01</totfact>
</mgrwt>
</event>
<event>
 4    2  0.2930016E-007  0.1208292E+04  0.7818608E-02  0.9149104E-01
         -2   -1    0    0    0  501 -0.00000000000E+00  0.00000000000E+00  0.10931185390E+04  0.10931185390E+04  0.25500000000E-02 0.  1.
          2   -1    0    0  501    0  0.00000000000E+00 -0.00000000000E+00 -0.24746258630E+04  0.24746258630E+04  0.25500000000E-02 0. -1.
    8880023    1    1    2    0    0 -0.86359541257E+03 -0.52949306334E+03  0.59098003248E+03  0.13450752937E+04  0.65864270000E+03 0.  1.
    8880022    1    1    2    0    0  0.86359541257E+03  0.52949306334E+03 -0.19724873564E+04  0.22226691083E+04  0.15294330000E+03 0.  0.
<mgrwt>
<rscale>  0 0.11594565E+04</rscale>
<asrwt>0</asrwt>
<pdfrwt beam="1">  1        2 0.38071167E+00 0.12082922E+04</pdfrwt>
<pdfrwt beam="2">  1       -2 0.16817208E+00 0.12082922E+04</pdfrwt>
<totfact> 0.77132704E-01</totfact>
</mgrwt>
</event>
<event>
 4    2  0.2930016E-007  0.7408099E+03  0.7818608E-02  0.9857594E-01
         -2   -1    0    0    0  501 -0.00000000000E+00  0.00000000000E+00  0.68834849595E+03  0.68834849596E+03  0.25500000000E-02 0.  1.
          2   -1    0    0  501    0  0.00000000000E+00 -0.00000000000E+00 -0.15067845957E+04  0.15067845957E+04  0.25500000000E-02 0. -1.
    8880023    1    1    2    0    0 -0.24295954999E+03  0.23655800430E+03 -0.13537892430E+04  0.15432253734E+04  0.65864270000E+03 0. -1.
    8880022    1    1    2    0    0  0.24295954999E+03 -0.23655800430E+03  0.53535314317E+03  0.65190771835E+03  0.15294330000E+03 0.  0.
<mgrwt>
<rscale>  0 0.62361205E+03</rscale>
<asrwt>0</asrwt>
<pdfrwt beam="1">  1        2 0.23181301E+00 0.74080985E+03</pdfrwt>
<pdfrwt beam="2">  1       -2 0.10589977E+00 0.74080985E+03</pdfrwt>
<totfact> 0.92983991E+00</totfact>
</mgrwt>
</event>
<event>
 4    2  0.2930016E-007  0.1231987E+04  0.7818608E-02  0.9126639E-01
         -2   -1    0    0    0  501 -0.00000000000E+00  0.00000000000E+00  0.90816049401E+03  0.90816049401E+03  0.25500000000E-02 0.  1.
          2   -1    0    0  501    0  0.00000000000E+00 -0.00000000000E+00 -0.16364491129E+04  0.16364491129E+04  0.25500000000E-02 0. -1.
    8880023    1    1    2    0    0  0.41823063031E+03  0.95344869046E+03 -0.83288303258E+03  0.14871064581E+04  0.65864270000E+03 0.  0.
    8880022    1    1    2    0    0 -0.41823063031E+03 -0.95344869046E+03  0.10459441365E+03  0.10575031489E+04  0.15294330000E+03 0.  0.
<mgrwt>
<rscale>  0 0.11843806E+04</rscale>
<asrwt>0</asrwt>
<pdfrwt beam="1">  1        2 0.25176140E+00 0.12319868E+04</pdfrwt>
<pdfrwt beam="2">  1       -2 0.13971700E+00 0.12319868E+04</pdfrwt>
<totfact> 0.37262577E+00</totfact>
</mgrwt>
</event>
<event>
 4    2  0.2930016E-007  0.7286266E+03  0.7818608E-02  0.9894409E-01
         -2   -1    0    0    0  501 -0.00000000000E+00  0.00000000000E+00  0.50636860028E+03  0.50636860028E+03  0.25500000000E-02 0.  1.
          2   -1    0    0  501    0  0.00000000000E+00 -0.00000000000E+00 -0.60071897997E+03  0.60071897998E+03  0.25500000000E-02 0. -1.
    8880023    1    1    2    0    0 -0.48157878052E+02 -0.30784297728E+03 -0.17799327793E+03  0.75005219361E+03  0.65864270000E+03 0. -1.
    8880022    1    1    2    0    0  0.48157878052E+02  0.30784297728E+03  0.83642898239E+02  0.35703538665E+03  0.15294330000E+03 0.  0.
<mgrwt>
<rscale>  0 0.60533012E+03</rscale>
<asrwt>0</asrwt>
<pdfrwt beam="1">  1        2 0.92418305E-01 0.72862658E+03</pdfrwt>
<pdfrwt beam="2">  1       -2 0.77902862E-01 0.72862658E+03</pdfrwt>
<totfact> 0.73628746E+01</totfact>
</mgrwt>
</event>
<event>
 4    2  0.2930016E-007  0.7397199E+03  0.7818608E-02  0.9860764E-01
          2   -1    0    0  501    0  0.00000000000E+00  0.00000000000E+00  0.89975394186E+03  0.89975394187E+03  0.25500000000E-02 0. -1.
         -2   -1    0    0    0  501 -0.00000000000E+00 -0.00000000000E+00 -0.59377464032E+03  0.59377464033E+03  0.25500000000E-02 0.  1.
    8880023    1    1    2    0    0  0.22847869386E+03 -0.24733123656E+03  0.65276251577E+03  0.98655175352E+03  0.65864270000E+03 0. -1.
    8880022    1    1    2    0    0 -0.22847869386E+03  0.24733123656E+03 -0.34678321422E+03  0.50697682867E+03  0.15294330000E+03 0.  0.
<mgrwt>
<rscale>  0 0.62201103E+03</rscale>
<asrwt>0</asrwt>
<pdfrwt beam="1">  1        2 0.13842368E+00 0.73971985E+03</pdfrwt>
<pdfrwt beam="2">  1       -2 0.91349945E-01 0.73971985E+03</pdfrwt>
<totfact> 0.30429886E+01</totfact>
</mgrwt>
</event>
<event>
 4    2  0.2930016E-007  0.6654810E+03  0.7818608E-02  0.1019133E+00
         -2   -1    0    0    0  501 -0.00000000000E+00  0.00000000000E+00  0.69584422600E+03  0.69584422601E+03  0.25500000000E-02 0.  1.
          2   -1    0    0  501    0  0.00000000000E+00 -0.00000000000E+00 -0.12359422242E+04  0.12359422242E+04  0.25500000000E-02 0. -1.
    8880023    1    1    2    0    0  0.94751379850E+02  0.87743865715E+01 -0.11319784169E+04  0.13131032543E+04  0.65864270000E+03 0. -1.
    8880022    1    1    2    0    0 -0.94751379850E+02 -0.87743865715E+01  0.59188041870E+03  0.61868319591E+03  0.15294330000E+03 0.  0.
<mgrwt>
<rscale>  0 0.48000714E+03</rscale>
<asrwt>0</asrwt>
<pdfrwt beam="1">  1        2 0.19014496E+00 0.66548104E+03</pdfrwt>
<pdfrwt beam="2">  1       -2 0.10705296E+00 0.66548104E+03</pdfrwt>
<totfact> 0.13045746E+01</totfact>
</mgrwt>
</event>
<event>
 4    2  0.2930016E-007  0.9604448E+03  0.7818608E-02  0.9435243E-01
          2   -1    0    0  501    0  0.00000000000E+00  0.00000000000E+00  0.21156843491E+04  0.21156843491E+04  0.25500000000E-02 0. -1.
         -2   -1    0    0    0  501 -0.00000000000E+00 -0.00000000000E+00 -0.35465634759E+03  0.35465634760E+03  0.25500000000E-02 0.  1.
    8880023    1    1    2    0    0 -0.60649942667E+03  0.34756654373E+03  0.13104684631E+04  0.16247405503E+04  0.65864270000E+03 0.  1.
    8880022    1    1    2    0    0  0.60649942667E+03 -0.34756654373E+03  0.45055953844E+03  0.84560014639E+03  0.15294330000E+03 0. -1.
<mgrwt>
<rscale>  0 0.89231223E+03</rscale>
<asrwt>0</asrwt>
<pdfrwt beam="1">  1        2 0.32548990E+00 0.96044483E+03</pdfrwt>
<pdfrwt beam="2">  1       -2 0.54562515E-01 0.96044483E+03</pdfrwt>
<totfact> 0.18381393E+01</totfact>
</mgrwt>
</event>
<event>
 4    2  0.2930016E-007  0.7163810E+03  0.7818608E-02  0.9935027E-01
          2   -1    0    0  501    0  0.00000000000E+00  0.00000000000E+00  0.84846075481E+03  0.84846075481E+03  0.25500000000E-02 0. -1.
         -2   -1    0    0    0  501 -0.00000000000E+00 -0.00000000000E+00 -0.56481770822E+03  0.56481770822E+03  0.25500000000E-02 0.  1.
    8880023    1    1    2    0    0 -0.35205112441E+02  0.27955713293E+03  0.62086213466E+03  0.94798290440E+03  0.65864270000E+03 0.  0.
    8880022    1    1    2    0    0  0.35205112441E+02 -0.27955713293E+03 -0.33721908807E+03  0.46529555864E+03  0.15294330000E+03 0.  0.
<mgrwt>
<rscale>  0 0.58593353E+03</rscale>
<asrwt>0</asrwt>
<pdfrwt beam="1">  1        2 0.13053242E+00 0.71638104E+03</pdfrwt>
<pdfrwt beam="2">  1       -2 0.86895031E-01 0.71638104E+03</pdfrwt>
<totfact> 0.37088354E+01</totfact>
</mgrwt>
</event>
<event>
 4    2  0.2930016E-007  0.1172185E+04  0.7818608E-02  0.9184646E-01
         -2   -1    0    0    0  501 -0.00000000000E+00  0.00000000000E+00  0.18644165442E+04  0.18644165442E+04  0.25500000000E-02 0.  1.
          2   -1    0    0  501    0  0.00000000000E+00 -0.00000000000E+00 -0.10208692355E+04  0.10208692355E+04  0.25500000000E-02 0. -1.
    8880023    1    1    2    0    0  0.61013126355E+03 -0.75362290743E+03 -0.45505380119E+03  0.12574147341E+04  0.65864270000E+03 0. -1.
    8880022    1    1    2    0    0 -0.61013126355E+03  0.75362290743E+03  0.12986011099E+04  0.16278710455E+04  0.15294330000E+03 0.  0.
<mgrwt>
<rscale>  0 0.11213320E+04</rscale>
<asrwt>0</asrwt>
<pdfrwt beam="1">  1        2 0.15705681E+00 0.11721851E+04</pdfrwt>
<pdfrwt beam="2">  1       -2 0.28683331E+00 0.11721851E+04</pdfrwt>
<totfact> 0.91571552E-01</totfact>
</mgrwt>
</event>
<event>
 4    2  0.2930016E-007  0.6879440E+03  0.7818608E-02  0.1005145E+00
         -2   -1    0    0    0  501 -0.00000000000E+00  0.00000000000E+00  0.79613638959E+03  0.79613638960E+03  0.25500000000E-02 0.  1.
          2   -1    0    0  501    0  0.00000000000E+00 -0.00000000000E+00 -0.82437796349E+03  0.82437796349E+03  0.25500000000E-02 0. -1.
    8880023    1    1    2    0    0 -0.68664571041E+02  0.18639177777E+03 -0.65227100026E+03  0.94801075003E+03  0.65864270000E+03 0. -1.
    8880022    1    1    2    0    0  0.68664571041E+02 -0.18639177777E+03  0.62402942636E+03  0.67250360305E+03  0.15294330000E+03 0.  0.
<mgrwt>
<rscale>  0 0.53450474E+03</rscale>
<asrwt>0</asrwt>
<pdfrwt beam="1">  1        2 0.12682738E+00 0.68794398E+03</pdfrwt>
<pdfrwt beam="2">  1       -2 0.12248252E+00 0.68794398E+03</pdfrwt>
<totfact> 0.17056953E+01</totfact>
</mgrwt>
</event>
<event>
 4    2  0.2930016E-007  0.7199463E+03  0.7818608E-02  0.9922768E-01
          2   -1    0    0  501    0  0.00000000000E+00  0.00000000000E+00  0.21008838134E+04  0.21008838134E+04  0.25500000000E-02 0. -1.
         -2   -1    0    0    0  501 -0.00000000000E+00 -0.00000000000E+00 -0.14662278705E+03  0.14662278707E+03  0.25500000000E-02 0.  1.
    8880023    1    1    2    0    0  0.25259303249E+03 -0.14390690783E+03  0.16480038259E+04  0.17983990810E+04  0.65864270000E+03 0. -1.
    8880022    1    1    2    0    0 -0.25259303249E+03  0.14390690783E+03  0.30625720046E+03  0.44910751946E+03  0.15294330000E+03 0.  1.
<mgrwt>
<rscale>  0 0.59170441E+03</rscale>
<asrwt>0</asrwt>
<pdfrwt beam="1">  1        2 0.32321290E+00 0.71994628E+03</pdfrwt>
<pdfrwt beam="2">  1       -2 0.22557352E-01 0.71994628E+03</pdfrwt>
<totfact> 0.10440816E+02</totfact>
</mgrwt>
</event>
<event>
 4    2  0.2930016E-007  0.7416204E+03  0.7818608E-02  0.9855252E-01
          2   -1    0    0  501    0  0.00000000000E+00  0.00000000000E+00  0.29630951957E+04  0.29630951957E+04  0.25500000000E-02 0. -1.
         -2   -1    0    0    0  501 -0.00000000000E+00 -0.00000000000E+00 -0.26290740455E+03  0.26290740456E+03  0.25500000000E-02 0.  1.
    8880023    1    1    2    0    0  0.33508766202E+03 -0.62505479339E+02  0.27507683239E+04  0.28489870575E+04  0.65864270000E+03 0. -1.
    8880022    1    1    2    0    0 -0.33508766202E+03  0.62505479339E+02 -0.50580532680E+02  0.37701554276E+03  0.15294330000E+03 0.  0.
<mgrwt>
<rscale>  0 0.62479864E+03</rscale>
<asrwt>0</asrwt>
<pdfrwt beam="1">  1        2 0.45586081E+00 0.74162044E+03</pdfrwt>
<pdfrwt beam="2">  1       -2 0.40447292E-01 0.74162044E+03</pdfrwt>
<totfact> 0.11294536E+01</totfact>
</mgrwt>
</event>
<event>
 4    2  0.2930016E-007  0.1082913E+04  0.7818608E-02  0.9280323E-01
          2   -1    0    0  501    0  0.00000000000E+00  0.00000000000E+00  0.71144798787E+03  0.71144798787E+03  0.25500000000E-02 0. -1.
         -2   -1    0    0    0  501 -0.00000000000E+00 -0.00000000000E+00 -0.24542959508E+04  0.24542959508E+04  0.25500000000E-02 0.  1.
    8880023    1    1    2    0    0  0.76295897463E+03  0.39596069097E+03  0.13844474365E+03  0.10917272641E+04  0.65864270000E+03 0. -1.
    8880022    1    1    2    0    0 -0.76295897463E+03 -0.39596069097E+03 -0.18812927066E+04  0.20740166746E+04  0.15294330000E+03 0.  0.
<mgrwt>
<rscale>  0 0.10261476E+04</rscale>
<asrwt>0</asrwt>
<pdfrwt beam="1">  1        2 0.10945354E+00 0.10829134E+04</pdfrwt>
<pdfrwt beam="2">  1       -2 0.37758399E+00 0.10829134E+04</pdfrwt>
<totfact> 0.41818709E-01</totfact>
</mgrwt>
</event>
<event>
 4    2  0.2930016E-007  0.6980673E+03  0.7818608E-02  0.1000532E+00
         -2   -1    0    0    0  501 -0.00000000000E+00  0.00000000000E+00  0.38398399951E+03  0.38398399952E+03  0.25500000000E-02 0.  1.
          2   -1    0    0  501    0  0.00000000000E+00 -0.00000000000E+00 -0.30388436362E+04  0.30388436362E+04  0.25500000000E-02 0. -1.
    8880023    1    1    2    0    0 -0.17037083978E+03  0.15640184201E+03 -0.29419904020E+04  0.30236741708E+04  0.65864270000E+03 0. -1.
    8880022    1    1    2    0    0  0.17037083978E+03 -0.15640184201E+03  0.28713076528E+03  0.39915346499E+03  0.15294330000E+03 0.  0.
<mgrwt>
<rscale>  0 0.55417794E+03</rscale>
<asrwt>0</asrwt>
<pdfrwt beam="1">  1        2 0.46751439E+00 0.69806731E+03</pdfrwt>
<pdfrwt beam="2">  1       -2 0.59074464E-01 0.69806731E+03</pdfrwt>
<totfact> 0.47521852E+00</totfact>
</mgrwt>
</event>
<event>
 4    2  0.2930016E-007  0.8480695E+03  0.7818608E-02  0.9615148E-01
         -2   -1    0    0    0  501 -0.00000000000E+00  0.00000000000E+00  0.60498665693E+03  0.60498665694E+03  0.25500000000E-02 0.  1.
          2   -1    0    0  501    0  0.00000000000E+00 -0.00000000000E+00 -0.10748883059E+04  0.10748883059E+04  0.25500000000E-02 0. -1.
    8880023    1    1    2    0    0 -0.10464657226E+03 -0.52389001442E+03 -0.67873120436E+03  0.10862310557E+04  0.65864270000E+03 0.  0.
    8880022    1    1    2    0    0  0.10464657226E+03  0.52389001442E+03  0.20882955539E+03  0.59364390716E+03  0.15294330000E+03 0.  0.
<mgrwt>
<rscale>  0 0.76301631E+03</rscale>
<asrwt>0</asrwt>
<pdfrwt beam="1">  1        2 0.16536743E+00 0.84806949E+03</pdfrwt>
<pdfrwt beam="2">  1       -2 0.93074870E-01 0.84806949E+03</pdfrwt>
<totfact> 0.22242787E+01</totfact>
</mgrwt>
</event>
<event>
 4    2  0.2930016E-007  0.1009095E+04  0.7818608E-02  0.9369755E-01
         -2   -1    0    0    0  501 -0.00000000000E+00  0.00000000000E+00  0.40907675682E+03  0.40907675683E+03  0.25500000000E-02 0.  1.
          2   -1    0    0  501    0  0.00000000000E+00 -0.00000000000E+00 -0.36622497991E+04  0.36622497991E+04  0.25500000000E-02 0. -1.
    8880023    1    1    2    0    0 -0.75714175697E+03  0.10582018686E+03 -0.31216050072E+04  0.32806538341E+04  0.65864270000E+03 0. -1.
    8880022    1    1    2    0    0  0.75714175697E+03 -0.10582018686E+03 -0.13156803503E+03  0.79067272177E+03  0.15294330000E+03 0.  0.
<mgrwt>
<rscale>  0 0.94607099E+03</rscale>
<asrwt>0</asrwt>
<pdfrwt beam="1">  1        2 0.56342302E+00 0.10090945E+04</pdfrwt>
<pdfrwt beam="2">  1       -2 0.62934888E-01 0.10090945E+04</pdfrwt>
<totfact> 0.15143938E+00</totfact>
</mgrwt>
</event>
<event>
 4    2  0.2930016E-007  0.9438102E+03  0.7818608E-02  0.9459076E-01
          2   -1    0    0  501    0  0.00000000000E+00  0.00000000000E+00  0.14513125262E+04  0.14513125262E+04  0.25500000000E-02 0. -1.
         -2   -1    0    0    0  501 -0.00000000000E+00 -0.00000000000E+00 -0.67210251429E+03  0.67210251430E+03  0.25500000000E-02 0.  1.
    8880023    1    1    2    0    0 -0.44098447100E+03  0.51234779356E+03  0.10200290973E+04  0.13896895808E+04  0.65864270000E+03 0.  0.
    8880022    1    1    2    0    0  0.44098447100E+03 -0.51234779356E+03 -0.24081908548E+03  0.73372545968E+03  0.15294330000E+03 0.  0.
<mgrwt>
<rscale>  0 0.87369385E+03</rscale>
<asrwt>0</asrwt>
<pdfrwt beam="1">  1        2 0.22327885E+00 0.94381024E+03</pdfrwt>
<pdfrwt beam="2">  1       -2 0.10340039E+00 0.94381024E+03</pdfrwt>
<totfact> 0.10322846E+01</totfact>
</mgrwt>
</event>
<event>
 4    2  0.2930016E-007  0.7923249E+03  0.7818608E-02  0.9727644E-01
          2   -1    0    0  501    0  0.00000000000E+00  0.00000000000E+00  0.23839461640E+04  0.23839461640E+04  0.25500000000E-02 0. -1.
         -2   -1    0    0    0  501 -0.00000000000E+00 -0.00000000000E+00 -0.21600036474E+03  0.21600036475E+03  0.25500000000E-02 0.  1.
    8880023    1    1    2    0    0  0.43333694427E+03  0.78661476764E+02  0.19084205177E+04  0.20663609593E+04  0.65864270000E+03 0. -1.
    8880022    1    1    2    0    0 -0.43333694427E+03 -0.78661476764E+02  0.25952528151E+03  0.53358556948E+03  0.15294330000E+03 0.  0.
<mgrwt>
<rscale>  0 0.69394488E+03</rscale>
<asrwt>0</asrwt>
<pdfrwt beam="1">  1        2 0.36676092E+00 0.79232490E+03</pdfrwt>
<pdfrwt beam="2">  1       -2 0.33230828E-01 0.79232490E+03</pdfrwt>
<totfact> 0.35503591E+01</totfact>
</mgrwt>
</event>
<event>
 4    2  0.2930016E-007  0.6714864E+03  0.7818608E-02  0.1014619E+00
          2   -1    0    0  501    0  0.00000000000E+00  0.00000000000E+00  0.10521866049E+04  0.10521866049E+04  0.25500000000E-02 0. -1.
         -2   -1    0    0    0  501 -0.00000000000E+00 -0.00000000000E+00 -0.34139107608E+03  0.34139107609E+03  0.25500000000E-02 0.  1.
    8880023    1    1    2    0    0 -0.11934359897E+03  0.53300241435E+02  0.89629330188E+03  0.11199266492E+04  0.65864270000E+03 0. -1.
    8880022    1    1    2    0    0  0.11934359897E+03 -0.53300241435E+02 -0.18549777308E+03  0.27365103176E+03  0.15294330000E+03 0.  0.
<mgrwt>
<rscale>  0 0.49679464E+03</rscale>
<asrwt>0</asrwt>
<pdfrwt beam="1">  1        2 0.16187486E+00 0.67148642E+03</pdfrwt>
<pdfrwt beam="2">  1       -2 0.52521704E-01 0.67148642E+03</pdfrwt>
<totfact> 0.81529096E+01</totfact>
</mgrwt>
</event>
<event>
 4    2  0.2930016E-007  0.6994132E+03  0.7818608E-02  0.9999644E-01
         -2   -1    0    0    0  501 -0.00000000000E+00  0.00000000000E+00  0.70873232853E+03  0.70873232853E+03  0.25500000000E-02 0.  1.
          2   -1    0    0  501    0  0.00000000000E+00 -0.00000000000E+00 -0.46168596131E+03  0.46168596132E+03  0.25500000000E-02 0. -1.
    8880023    1    1    2    0    0  0.20904470372E+01  0.23529618512E+03 -0.11869324084E+03  0.70941310700E+03  0.65864270000E+03 0. -1.
    8880022    1    1    2    0    0 -0.20904470372E+01 -0.23529618512E+03  0.36573960805E+03  0.46100518285E+03  0.15294330000E+03 0. -1.
<mgrwt>
<rscale>  0 0.55665846E+03</rscale>
<asrwt>0</asrwt>
<pdfrwt beam="1">  1        2 0.71028609E-01 0.69941323E+03</pdfrwt>
<pdfrwt beam="2">  1       -2 0.10903574E+00 0.69941323E+03</pdfrwt>
<totfact> 0.46013409E+01</totfact>
</mgrwt>
</event>
<event>
 4    2  0.3740913E-007  0.7665249E+03  0.7818608E-02  0.9788499E-01
         -2   -1    0    0    0  501 -0.00000000000E+00  0.00000000000E+00  0.11847637693E+04  0.11847637694E+04  0.25500000000E-02 0.  1.
          2   -1    0    0  501    0  0.00000000000E+00 -0.00000000000E+00 -0.11860774114E+04  0.11860774114E+04  0.25500000000E-02 0. -1.
    8880023    1    1    2    0    0  0.38908391488E+03 -0.48620588368E+02 -0.10157725259E+04  0.12725385200E+04  0.65864270000E+03 0. -1.
    8880022    1    1    2    0    0 -0.38908391488E+03  0.48620588368E+02  0.10144588838E+04  0.10983026607E+04  0.15294330000E+03 0.  0.
<mgrwt>
<rscale>  0 0.65983428E+03</rscale>
<asrwt>0</asrwt>
<pdfrwt beam="1">  1        2 0.18247345E+00 0.76652493E+03</pdfrwt>
<pdfrwt beam="2">  1       -2 0.18227135E+00 0.76652493E+03</pdfrwt>
<totfact> 0.34507788E+00</totfact>
</mgrwt>
</event>
<event>
 4    2  0.2930016E-007  0.1234889E+04  0.7818608E-02  0.9123932E-01
          2   -1    0    0  501    0  0.00000000000E+00  0.00000000000E+00  0.26554106867E+04  0.26554106867E+04  0.25500000000E-02 0. -1.
         -2   -1    0    0    0  501 -0.00000000000E+00 -0.00000000000E+00 -0.86104223002E+03  0.86104223002E+03  0.25500000000E-02 0.  1.
    8880023    1    1    2    0    0 -0.55557799182E+03  0.88457591819E+03  0.20834062951E+04  0.24218863427E+04  0.65864270000E+03 0.  0.
    8880022    1    1    2    0    0  0.55557799182E+03 -0.88457591819E+03 -0.28903783841E+03  0.10945665741E+04  0.15294330000E+03 0.  0.
<mgrwt>
<rscale>  0 0.11874290E+04</rscale>
<asrwt>0</asrwt>
<pdfrwt beam="1">  1        2 0.40852472E+00 0.12348893E+04</pdfrwt>
<pdfrwt beam="2">  1       -2 0.13246804E+00 0.12348893E+04</pdfrwt>
<totfact> 0.11416978E+00</totfact>
</mgrwt>
</event>
<event>
 4    2  0.2930016E-007  0.8708569E+03  0.7818608E-02  0.9574535E-01
         -2   -1    0    0    0  501 -0.00000000000E+00  0.00000000000E+00  0.17782824515E+04  0.17782824515E+04  0.25500000000E-02 0.  1.
          2   -1    0    0  501    0  0.00000000000E+00 -0.00000000000E+00 -0.54164290273E+03  0.54164290274E+03  0.25500000000E-02 0. -1.
    8880023    1    1    2    0    0  0.92303333276E+02  0.56219363086E+03 -0.82641557439E+02  0.87476935085E+03  0.65864270000E+03 0.  0.
    8880022    1    1    2    0    0 -0.92303333276E+02 -0.56219363086E+03  0.13192811062E+04  0.14451560034E+04  0.15294330000E+03 0.  1.
<mgrwt>
<rscale>  0 0.79004775E+03</rscale>
<asrwt>0</asrwt>
<pdfrwt beam="1">  1        2 0.83329677E-01 0.87085693E+03</pdfrwt>
<pdfrwt beam="2">  1       -2 0.27358192E+00 0.87085693E+03</pdfrwt>
<totfact> 0.26303043E+00</totfact>
</mgrwt>
</event>
<event>
 4    2  0.2930016E-007  0.7635125E+03  0.7818608E-02  0.9796097E-01
         -2   -1    0    0    0  501 -0.00000000000E+00  0.00000000000E+00  0.43774753767E+03  0.43774753768E+03  0.25500000000E-02 0.  1.
          2   -1    0    0  501    0  0.00000000000E+00 -0.00000000000E+00 -0.91198483268E+03  0.91198483269E+03  0.25500000000E-02 0. -1.
    8880023    1    1    2    0    0 -0.83553973278E+02  0.37704092643E+03 -0.53169908781E+03  0.93040596134E+03  0.65864270000E+03 0.  1.
    8880022    1    1    2    0    0  0.83553973278E+02 -0.37704092643E+03  0.57461792795E+02  0.41932640902E+03  0.15294330000E+03 0.  0.
<mgrwt>
<rscale>  0 0.65572398E+03</rscale>
<asrwt>0</asrwt>
<pdfrwt beam="1">  1        2 0.14030536E+00 0.76351250E+03</pdfrwt>
<pdfrwt beam="2">  1       -2 0.67345775E-01 0.76351250E+03</pdfrwt>
<totfact> 0.58969487E+01</totfact>
</mgrwt>
</event>
<event>
 4    2  0.2930016E-007  0.1679651E+04  0.7818608E-02  0.8792204E-01
         -2   -1    0    0    0  501 -0.00000000000E+00  0.00000000000E+00  0.11847748912E+04  0.11847748912E+04  0.25500000000E-02 0.  1.
          2   -1    0    0  501    0  0.00000000000E+00 -0.00000000000E+00 -0.25601073721E+04  0.25601073721E+04  0.25500000000E-02 0. -1.
    8880023    1    1    2    0    0 -0.12731462648E+03 -0.15398725103E+04 -0.13663007475E+02  0.16797062975E+04  0.65864270000E+03 0.  0.
    8880022    1    1    2    0    0  0.12731462648E+03  0.15398725103E+04 -0.13616694733E+04  0.20651759658E+04  0.15294330000E+03 0.  0.
<mgrwt>
<rscale>  0 0.16469657E+04</rscale>
<asrwt>0</asrwt>
<pdfrwt beam="1">  1        2 0.39386267E+00 0.16796507E+04</pdfrwt>
<pdfrwt beam="2">  1       -2 0.18227306E+00 0.16796507E+04</pdfrwt>
<totfact> 0.51908824E-01</totfact>
</mgrwt>
</event>
<event>
 4    2  0.2930016E-007  0.6742544E+03  0.7818608E-02  0.1012780E+00
          2   -1    0    0  501    0  0.00000000000E+00  0.00000000000E+00  0.25352911635E+04  0.25352911635E+04  0.25500000000E-02 0. -1.
         -2   -1    0    0    0  501 -0.00000000000E+00 -0.00000000000E+00 -0.11903874403E+03  0.11903874406E+03  0.25500000000E-02 0.  1.
    8880023    1    1    2    0    0  0.14407639961E+03  0.71278148108E+01  0.23325415373E+04  0.24280381059E+04  0.65864270000E+03 0. -1.
    8880022    1    1    2    0    0 -0.14407639961E+03 -0.71278148108E+01  0.83710882247E+02  0.22629180164E+03  0.15294330000E+03 0.  0.
<mgrwt>
<rscale>  0 0.50384414E+03</rscale>
<asrwt>0</asrwt>
<pdfrwt beam="1">  1        2 0.39004477E+00 0.67425442E+03</pdfrwt>
<pdfrwt beam="2">  1       -2 0.18313654E-01 0.67425442E+03</pdfrwt>
<totfact> 0.86755775E+01</totfact>
</mgrwt>
</event>
<event>
 4    2  0.2930016E-007  0.6722968E+03  0.7818608E-02  0.1014067E+00
          2   -1    0    0  501    0  0.00000000000E+00  0.00000000000E+00  0.63892827241E+03  0.63892827241E+03  0.25500000000E-02 0. -1.
         -2   -1    0    0    0  501 -0.00000000000E+00 -0.00000000000E+00 -0.41380185197E+03  0.41380185198E+03  0.25500000000E-02 0.  1.
    8880023    1    1    2    0    0 -0.12898088796E+03  0.39200631763E+02  0.40157809366E+03  0.78310148165E+03  0.65864270000E+03 0. -1.
    8880022    1    1    2    0    0  0.12898088796E+03 -0.39200631763E+02 -0.17645167323E+03  0.26962864275E+03  0.15294330000E+03 0.  0.
<mgrwt>
<rscale>  0 0.49889710E+03</rscale>
<asrwt>0</asrwt>
<pdfrwt beam="1">  1        2 0.98296657E-01 0.67229678E+03</pdfrwt>
<pdfrwt beam="2">  1       -2 0.63661824E-01 0.67229678E+03</pdfrwt>
<totfact> 0.10655611E+02</totfact>
</mgrwt>
</event>
<event>
 4    2  0.2986327E-007  0.9569128E+03  0.7818608E-02  0.9440237E-01
          2   -1    0    0  501    0  0.00000000000E+00  0.00000000000E+00  0.16970090141E+04  0.16970090141E+04  0.25500000000E-02 0. -1.
         -2   -1    0    0    0  501 -0.00000000000E+00 -0.00000000000E+00 -0.96546253743E+03  0.96546253743E+03  0.25500000000E-02 0.  1.
    8880023    1    1    2    0    0  0.69337884098E+03  0.33131012654E+02  0.13939905040E+04  0.16908257192E+04  0.65864270000E+03 0.  0.
    8880022    1    1    2    0    0 -0.69337884098E+03 -0.33131012654E+02 -0.66244402735E+03  0.97164583234E+03  0.15294330000E+03 0.  0.
<mgrwt>
<rscale>  0 0.88837027E+03</rscale>
<asrwt>0</asrwt>
<pdfrwt beam="1">  1        2 0.26107831E+00 0.95691279E+03</pdfrwt>
<pdfrwt beam="2">  1       -2 0.14853270E+00 0.95691279E+03</pdfrwt>
<totfact> 0.30268190E+00</totfact>
</mgrwt>
</event>
<event>
 4    2  0.2930016E-007  0.1019956E+04  0.7818608E-02  0.9355903E-01
          2   -1    0    0  501    0  0.00000000000E+00  0.00000000000E+00  0.13992552545E+04  0.13992552545E+04  0.25500000000E-02 0. -1.
         -2   -1    0    0    0  501 -0.00000000000E+00 -0.00000000000E+00 -0.62730838294E+03  0.62730838295E+03  0.25500000000E-02 0.  1.
    8880023    1    1    2    0    0  0.34137308070E+03 -0.69997441839E+03  0.68394321593E+03  0.12280424649E+04  0.65864270000E+03 0.  0.
    8880022    1    1    2    0    0 -0.34137308070E+03  0.69997441839E+03  0.88003655605E+02  0.79852117257E+03  0.15294330000E+03 0.  0.
<mgrwt>
<rscale>  0 0.95795310E+03</rscale>
<asrwt>0</asrwt>
<pdfrwt beam="1">  1        2 0.21527004E+00 0.10199559E+04</pdfrwt>
<pdfrwt beam="2">  1       -2 0.96508982E-01 0.10199559E+04</pdfrwt>
<totfact> 0.12923335E+01</totfact>
</mgrwt>
</event>
<event>
 4    2  0.2930016E-007  0.6986483E+03  0.7818608E-02  0.1000286E+00
          2   -1    0    0  501    0  0.00000000000E+00  0.00000000000E+00  0.14702685602E+04  0.14702685602E+04  0.25500000000E-02 0. -1.
         -2   -1    0    0    0  501 -0.00000000000E+00 -0.00000000000E+00 -0.19347900872E+03  0.19347900873E+03  0.25500000000E-02 0.  1.
    8880023    1    1    2    0    0  0.18857053262E+03  0.13689568892E+03  0.11749908836E+04  0.13670087996E+04  0.65864270000E+03 0. -1.
    8880022    1    1    2    0    0 -0.18857053262E+03 -0.13689568892E+03  0.10179866787E+03  0.29673876931E+03  0.15294330000E+03 0.  0.
<mgrwt>
<rscale>  0 0.55525216E+03</rscale>
<asrwt>0</asrwt>
<pdfrwt beam="1">  1        2 0.22619516E+00 0.69864832E+03</pdfrwt>
<pdfrwt beam="2">  1       -2 0.29766001E-01 0.69864832E+03</pdfrwt>
<totfact> 0.14008179E+02</totfact>
</mgrwt>
</event>
<event>
 4    2  0.2930016E-007  0.7342512E+03  0.7818608E-02  0.9877021E-01
          2   -1    0    0  501    0  0.00000000000E+00  0.00000000000E+00  0.74197047129E+03  0.74197047130E+03  0.25500000000E-02 0. -1.
         -2   -1    0    0    0  501 -0.00000000000E+00 -0.00000000000E+00 -0.57108551548E+03  0.57108551549E+03  0.25500000000E-02 0.  1.
    8880023    1    1    2    0    0 -0.29476351531E+03  0.13575366150E+03  0.44764923362E+03  0.85995036438E+03  0.65864270000E+03 0. -1.
    8880022    1    1    2    0    0  0.29476351531E+03 -0.13575366150E+03 -0.27676427781E+03  0.45310562241E+03  0.15294330000E+03 0.  0.
<mgrwt>
<rscale>  0 0.61387994E+03</rscale>
<asrwt>0</asrwt>
<pdfrwt beam="1">  1        2 0.11414930E+00 0.73425118E+03</pdfrwt>
<pdfrwt beam="2">  1       -2 0.87859310E-01 0.73425118E+03</pdfrwt>
<totfact> 0.43101186E+01</totfact>
</mgrwt>
</event>
<event>
 4    2  0.2930016E-007  0.7056686E+03  0.7818608E-02  0.9974451E-01
         -2   -1    0    0    0  501 -0.00000000000E+00  0.00000000000E+00  0.12624863375E+03  0.12624863378E+03  0.25500000000E-02 0.  1.
          2   -1    0    0  501    0  0.00000000000E+00 -0.00000000000E+00 -0.24512528195E+04  0.24512528195E+04  0.25500000000E-02 0. -1.
    8880023    1    1    2    0    0 -0.70751032789E+02  0.24321228994E+03 -0.20697063257E+04  0.21866989751E+04  0.65864270000E+03 0. -1.
    8880022    1    1    2    0    0  0.70751032789E+02 -0.24321228994E+03 -0.25529786004E+03  0.39080247821E+03  0.15294330000E+03 0.  0.
<mgrwt>
<rscale>  0 0.56784831E+03</rscale>
<asrwt>0</asrwt>
<pdfrwt beam="1">  1        2 0.37711578E+00 0.70566857E+03</pdfrwt>
<pdfrwt beam="2">  1       -2 0.19422869E-01 0.70566857E+03</pdfrwt>
<totfact> 0.87032382E+01</totfact>
</mgrwt>
</event>
<event>
 4    2  0.2930016E-007  0.9204315E+03  0.7818608E-02  0.9493998E-01
         -2   -1    0    0    0  501 -0.00000000000E+00  0.00000000000E+00  0.25292329155E+03  0.25292329157E+03  0.25500000000E-02 0.  1.
          2   -1    0    0  501    0  0.00000000000E+00 -0.00000000000E+00 -0.31680691462E+04  0.31680691462E+04  0.25500000000E-02 0. -1.
    8880023    1    1    2    0    0 -0.32252246032E+03 -0.55620430671E+03 -0.24377034215E+04  0.26056845829E+04  0.65864270000E+03 0. -1.
    8880022    1    1    2    0    0  0.32252246032E+03  0.55620430671E+03 -0.47744243318E+03  0.81530785488E+03  0.15294330000E+03 0.  0.
<mgrwt>
<rscale>  0 0.84727796E+03</rscale>
<asrwt>0</asrwt>
<pdfrwt beam="1">  1        2 0.48739523E+00 0.92043152E+03</pdfrwt>
<pdfrwt beam="2">  1       -2 0.38911278E-01 0.92043152E+03</pdfrwt>
<totfact> 0.88236740E+00</totfact>
</mgrwt>
</event>
<event>
 4    2  0.2930016E-007  0.1117415E+04  0.7818608E-02  0.9241910E-01
         -2   -1    0    0    0  501 -0.00000000000E+00  0.00000000000E+00  0.55311396966E+03  0.55311396966E+03  0.25500000000E-02 0.  1.
          2   -1    0    0  501    0  0.00000000000E+00 -0.00000000000E+00 -0.21351266552E+04  0.21351266552E+04  0.25500000000E-02 0. -1.
    8880023    1    1    2    0    0 -0.53881251972E+02  0.90105674651E+03 -0.13331011855E+04  0.17394756184E+04  0.65864270000E+03 0. -1.
    8880022    1    1    2    0    0  0.53881251972E+02 -0.90105674651E+03 -0.24891150003E+03  0.94876500653E+03  0.15294330000E+03 0.  0.
<mgrwt>
<rscale>  0 0.10631126E+04</rscale>
<asrwt>0</asrwt>
<pdfrwt beam="1">  1        2 0.32848102E+00 0.11174152E+04</pdfrwt>
<pdfrwt beam="2">  1       -2 0.85094458E-01 0.11174152E+04</pdfrwt>
<totfact> 0.66844153E+00</totfact>
</mgrwt>
</event>
<event>
 4    2  0.2930016E-007  0.6885858E+03  0.7818608E-02  0.1004832E+00
         -2   -1    0    0    0  501 -0.00000000000E+00  0.00000000000E+00  0.20981785770E+04  0.20981785770E+04  0.25500000000E-02 0.  1.
          2   -1    0    0  501    0  0.00000000000E+00 -0.00000000000E+00 -0.32740300439E+03  0.32740300440E+03  0.25500000000E-02 0. -1.
    8880023    1    1    2    0    0 -0.20071568433E+03  0.73116554013E+01  0.54391048282E+02  0.69073065564E+03  0.65864270000E+03 0.  0.
    8880022    1    1    2    0    0  0.20071568433E+03 -0.73116554013E+01  0.17163845243E+04  0.17348509257E+04  0.15294330000E+03 0.  0.
<mgrwt>
<rscale>  0 0.53581291E+03</rscale>
<asrwt>0</asrwt>
<pdfrwt beam="1">  1        2 0.50369693E-01 0.68858584E+03</pdfrwt>
<pdfrwt beam="2">  1       -2 0.32279670E+00 0.68858584E+03</pdfrwt>
<totfact> 0.24192158E+00</totfact>
</mgrwt>
</event>
<event>
 4    2  0.2930016E-007  0.1379615E+04  0.7818608E-02  0.8999686E-01
         -2   -1    0    0    0  501 -0.00000000000E+00  0.00000000000E+00  0.20988327030E+04  0.20988327030E+04  0.25500000000E-02 0.  1.
          2   -1    0    0  501    0  0.00000000000E+00 -0.00000000000E+00 -0.12262651374E+04  0.12262651374E+04  0.25500000000E-02 0. -1.
    8880023    1    1    2    0    0 -0.10585788477E+04  0.59071031992E+03 -0.51830346562E+03  0.14737627175E+04  0.65864270000E+03 0.  0.
    8880022    1    1    2    0    0  0.10585788477E+04 -0.59071031992E+03  0.13908710312E+04  0.18513351229E+04  0.15294330000E+03 0.  0.
<mgrwt>
<rscale>  0 0.13383602E+04</rscale>
<asrwt>0</asrwt>
<pdfrwt beam="1">  1        2 0.18865618E+00 0.13796152E+04</pdfrwt>
<pdfrwt beam="2">  1       -2 0.32289734E+00 0.13796152E+04</pdfrwt>
<totfact> 0.40183898E-01</totfact>
</mgrwt>
</event>
<event>
 4    2  0.2930016E-007  0.8337285E+03  0.7818608E-02  0.9642121E-01
          2   -1    0    0  501    0  0.00000000000E+00  0.00000000000E+00  0.15082537350E+04  0.15082537350E+04  0.25500000000E-02 0. -1.
         -2   -1    0    0    0  501 -0.00000000000E+00 -0.00000000000E+00 -0.47729626498E+03  0.47729626499E+03  0.25500000000E-02 0.  1.
    8880023    1    1    2    0    0 -0.53743019054E+02  0.50833513649E+03  0.11676589016E+04  0.14347579725E+04  0.65864270000E+03 0. -1.
    8880022    1    1    2    0    0  0.53743019054E+02 -0.50833513649E+03 -0.13670143157E+03  0.55079202744E+03  0.15294330000E+03 0.  0.
<mgrwt>
<rscale>  0 0.74569968E+03</rscale>
<asrwt>0</asrwt>
<pdfrwt beam="1">  1        2 0.23203904E+00 0.83372845E+03</pdfrwt>
<pdfrwt beam="2">  1       -2 0.73430195E-01 0.83372845E+03</pdfrwt>
<totfact> 0.21313792E+01</totfact>
</mgrwt>
</event>
<event>
 4    2  0.2930016E-007  0.7387159E+03  0.7818608E-02  0.9863704E-01
          2   -1    0    0  501    0  0.00000000000E+00  0.00000000000E+00  0.61834686118E+03  0.61834686119E+03  0.25500000000E-02 0. -1.
         -2   -1    0    0    0  501 -0.00000000000E+00 -0.00000000000E+00 -0.95551088114E+03  0.95551088115E+03  0.25500000000E-02 0.  1.
    8880023    1    1    2    0    0  0.13321428003E+03  0.30683036476E+03  0.33229541325E+03  0.81001318821E+03  0.65864270000E+03 0.  0.
    8880022    1    1    2    0    0 -0.13321428003E+03 -0.30683036476E+03 -0.66945943321E+03  0.76384455413E+03  0.15294330000E+03 0.  0.
<mgrwt>
<rscale>  0 0.62053074E+03</rscale>
<asrwt>0</asrwt>
<pdfrwt beam="1">  1        2 0.95130287E-01 0.73871586E+03</pdfrwt>
<pdfrwt beam="2">  1       -2 0.14700167E+00 0.73871586E+03</pdfrwt>
<totfact> 0.15345257E+01</totfact>
</mgrwt>
</event>
<event>
 4    2  0.4006228E-007  0.8292215E+03  0.7818608E-02  0.9650849E-01
         -2   -1    0    0    0  501 -0.00000000000E+00  0.00000000000E+00  0.11941919514E+04  0.11941919514E+04  0.25500000000E-02 0.  1.
          2   -1    0    0  501    0  0.00000000000E+00 -0.00000000000E+00 -0.13063057011E+04  0.13063057011E+04  0.25500000000E-02 0. -1.
    8880023    1    1    2    0    0  0.40033589204E+03  0.30582549061E+03 -0.11021035505E+04  0.13792173504E+04  0.65864270000E+03 0.  0.
    8880022    1    1    2    0    0 -0.40033589204E+03 -0.30582549061E+03  0.98998980085E+03  0.11212803021E+04  0.15294330000E+03 0.  0.
<mgrwt>
<rscale>  0 0.74020164E+03</rscale>
<asrwt>0</asrwt>
<pdfrwt beam="1">  1        2 0.20097011E+00 0.82922148E+03</pdfrwt>
<pdfrwt beam="2">  1       -2 0.18372184E+00 0.82922148E+03</pdfrwt>
<totfact> 0.28420063E+00</totfact>
</mgrwt>
</event>
<event>
 4    2  0.2930016E-007  0.9637332E+03  0.7818608E-02  0.9430624E-01
          2   -1    0    0  501    0  0.00000000000E+00  0.00000000000E+00  0.66912934145E+03  0.66912934145E+03  0.25500000000E-02 0. -1.
         -2   -1    0    0    0  501 -0.00000000000E+00 -0.00000000000E+00 -0.13556969243E+04  0.13556969243E+04  0.25500000000E-02 0.  1.
    8880023    1    1    2    0    0 -0.45750072278E+03 -0.53447589048E+03  0.87487480533E+02  0.96769605474E+03  0.65864270000E+03 0. -1.
    8880022    1    1    2    0    0  0.45750072278E+03  0.53447589048E+03 -0.77405506335E+03  0.10571302110E+04  0.15294330000E+03 0.  0.
<mgrwt>
<rscale>  0 0.89597698E+03</rscale>
<asrwt>0</asrwt>
<pdfrwt beam="1">  1        2 0.10294298E+00 0.96373316E+03</pdfrwt>
<pdfrwt beam="2">  1       -2 0.20856876E+00 0.96373316E+03</pdfrwt>
<totfact> 0.50615617E+00</totfact>
</mgrwt>
</event>
<event>
 4    2  0.3312837E-007  0.7154272E+03  0.7818608E-02  0.9938374E-01
          2   -1    0    0  501    0  0.00000000000E+00  0.00000000000E+00  0.29981213133E+04  0.29981213133E+04  0.25500000000E-02 0. -1.
         -2   -1    0    0    0  501 -0.00000000000E+00 -0.00000000000E+00 -0.94291260109E+03  0.94291260110E+03  0.25500000000E-02 0.  1.
    8880023    1    1    2    0    0  0.23377823651E+03  0.15288415687E+03  0.29268597562E+04  0.30130290520E+04  0.65864270000E+03 0. -1.
    8880022    1    1    2    0    0 -0.23377823651E+03 -0.15288415687E+03 -0.87165104396E+03  0.92800486246E+03  0.15294330000E+03 0.  0.
<mgrwt>
<rscale>  0 0.58437035E+03</rscale>
<asrwt>0</asrwt>
<pdfrwt beam="1">  1        2 0.46124942E+00 0.71542717E+03</pdfrwt>
<pdfrwt beam="2">  1       -2 0.14506348E+00 0.71542717E+03</pdfrwt>
<totfact> 0.61621296E-01</totfact>
</mgrwt>
</event>
<event>
 4    2  0.2930016E-007  0.1087383E+04  0.7818608E-02  0.9275235E-01
          2   -1    0    0  501    0  0.00000000000E+00  0.00000000000E+00  0.20621734177E+04  0.20621734177E+04  0.25500000000E-02 0. -1.
         -2   -1    0    0    0  501 -0.00000000000E+00 -0.00000000000E+00 -0.72499708675E+03  0.72499708675E+03  0.25500000000E-02 0.  1.
    8880023    1    1    2    0    0  0.52350870088E+03  0.68886169710E+03  0.15402229014E+04  0.18853881802E+04  0.65864270000E+03 0. -1.
    8880022    1    1    2    0    0 -0.52350870088E+03 -0.68886169710E+03 -0.20304657045E+03  0.90178232429E+03  0.15294330000E+03 0.  0.
<mgrwt>
<rscale>  0 0.10309508E+04</rscale>
<asrwt>0</asrwt>
<pdfrwt beam="1">  1        2 0.31725745E+00 0.10873831E+04</pdfrwt>
<pdfrwt beam="2">  1       -2 0.11153801E+00 0.10873831E+04</pdfrwt>
<totfact> 0.38793440E+00</totfact>
</mgrwt>
</event>
<event>
 4    2  0.2930016E-007  0.8561826E+03  0.7818608E-02  0.9600390E-01
         -2   -1    0    0    0  501 -0.00000000000E+00  0.00000000000E+00  0.15416180891E+04  0.15416180891E+04  0.25500000000E-02 0.  1.
          2   -1    0    0  501    0  0.00000000000E+00 -0.00000000000E+00 -0.80597030244E+03  0.80597030244E+03  0.25500000000E-02 0. -1.
    8880023    1    1    2    0    0 -0.48417981169E+03  0.25457488045E+03 -0.49727517395E+03  0.99011679346E+03  0.65864270000E+03 0. -1.
    8880022    1    1    2    0    0  0.48417981169E+03 -0.25457488045E+03  0.12329229606E+04  0.13574715981E+04  0.15294330000E+03 0.  0.
<mgrwt>
<rscale>  0 0.77270356E+03</rscale>
<asrwt>0</asrwt>
<pdfrwt beam="1">  1        2 0.12399543E+00 0.85618261E+03</pdfrwt>
<pdfrwt beam="2">  1       -2 0.23717201E+00 0.85618261E+03</pdfrwt>
<totfact> 0.26662610E+00</totfact>
</mgrwt>
</event>
<event>
 4    2  0.2930016E-007  0.8780876E+03  0.7818608E-02  0.9562165E-01
         -2   -1    0    0    0  501 -0.00000000000E+00  0.00000000000E+00  0.52475055670E+03  0.52475055670E+03  0.25500000000E-02 0.  1.
          2   -1    0    0  501    0  0.00000000000E+00 -0.00000000000E+00 -0.18396925660E+04  0.18396925660E+04  0.25500000000E-02 0. -1.
    8880023    1    1    2    0    0  0.14646349180E+03 -0.56193963932E+03  0.43523957209E+02  0.87916565776E+03  0.65864270000E+03 0.  0.
    8880022    1    1    2    0    0 -0.14646349180E+03  0.56193963932E+03 -0.13584659665E+04  0.14852774649E+04  0.15294330000E+03 0.  0.
<mgrwt>
<rscale>  0 0.79851767E+03</rscale>
<asrwt>0</asrwt>
<pdfrwt beam="1">  1        2 0.28302962E+00 0.87808765E+03</pdfrwt>
<pdfrwt beam="2">  1       -2 0.80730856E-01 0.87808765E+03</pdfrwt>
<totfact> 0.11264245E+01</totfact>
</mgrwt>
</event>
<event>
 4    2  0.2930016E-007  0.6713677E+03  0.7818608E-02  0.1014701E+00
         -2   -1    0    0    0  501 -0.00000000000E+00  0.00000000000E+00  0.10573150948E+03  0.10573150951E+03  0.25500000000E-02 0.  1.
          2   -1    0    0  501    0  0.00000000000E+00 -0.00000000000E+00 -0.31761485600E+04  0.31761485600E+04  0.25500000000E-02 0. -1.
    8880023    1    1    2    0    0 -0.82794452231E+02 -0.10034699738E+03 -0.29918750582E+04  0.30662764082E+04  0.65864270000E+03 0. -1.
    8880022    1    1    2    0    0  0.82794452231E+02  0.10034699738E+03 -0.78541992302E+02  0.21560366132E+03  0.15294330000E+03 0.  0.
<mgrwt>
<rscale>  0 0.49648389E+03</rscale>
<asrwt>0</asrwt>
<pdfrwt beam="1">  1        2 0.48863817E+00 0.67136774E+03</pdfrwt>
<pdfrwt beam="2">  1       -2 0.16266388E-01 0.67136774E+03</pdfrwt>
<totfact> 0.44128982E+01</totfact>
</mgrwt>
</event>
<event>
 4    2  0.2930016E-007  0.9415263E+03  0.7818608E-02  0.9462412E-01
          2   -1    0    0  501    0  0.00000000000E+00  0.00000000000E+00  0.77910193537E+03  0.77910193537E+03  0.25500000000E-02 0. -1.
         -2   -1    0    0    0  501 -0.00000000000E+00 -0.00000000000E+00 -0.90504425467E+03  0.90504425467E+03  0.25500000000E-02 0.  1.
    8880023    1    1    2    0    0 -0.22104128991E+03  0.63545435130E+03  0.12536962612E+03  0.94983642478E+03  0.65864270000E+03 0.  0.
    8880022    1    1    2    0    0  0.22104128991E+03 -0.63545435130E+03 -0.25131194542E+03  0.73430976526E+03  0.15294330000E+03 0.  0.
<mgrwt>
<rscale>  0 0.87112656E+03</rscale>
<asrwt>0</asrwt>
<pdfrwt beam="1">  1        2 0.11986184E+00 0.94152626E+03</pdfrwt>
<pdfrwt beam="2">  1       -2 0.13923758E+00 0.94152626E+03</pdfrwt>
<totfact> 0.12959786E+01</totfact>
</mgrwt>
</event>
<event>
 4    2  0.2930016E-007  0.7482375E+03  0.7818608E-02  0.9836570E-01
         -2   -1    0    0    0  501 -0.00000000000E+00  0.00000000000E+00  0.12828606223E+04  0.12828606223E+04  0.25500000000E-02 0.  1.
          2   -1    0    0  501    0  0.00000000000E+00 -0.00000000000E+00 -0.73673364634E+03  0.73673364634E+03  0.25500000000E-02 0. -1.
    8880023    1    1    2    0    0 -0.34737178889E+03 -0.73362304441E+02 -0.50294634785E+03  0.90156221222E+03  0.65864270000E+03 0. -1.
    8880022    1    1    2    0    0  0.34737178889E+03  0.73362304441E+02  0.10490733238E+04  0.11180320564E+04  0.15294330000E+03 0.  0.
<mgrwt>
<rscale>  0 0.63436363E+03</rscale>
<asrwt>0</asrwt>
<pdfrwt beam="1">  1        2 0.11334364E+00 0.74823752E+03</pdfrwt>
<pdfrwt beam="2">  1       -2 0.19736317E+00 0.74823752E+03</pdfrwt>
<totfact> 0.54247882E+00</totfact>
</mgrwt>
</event>
<event>
 4    2  0.3927160E-007  0.6791957E+03  0.7818608E-02  0.1009782E+00
          2   -1    0    0  501    0  0.00000000000E+00  0.00000000000E+00  0.13239836893E+04  0.13239836893E+04  0.25500000000E-02 0. -1.
         -2   -1    0    0    0  501 -0.00000000000E+00 -0.00000000000E+00 -0.10830275814E+04  0.10830275814E+04  0.25500000000E-02 0.  1.
    8880023    1    1    2    0    0 -0.33434664233E+02  0.16241513827E+03  0.12232434751E+04  0.13991538013E+04  0.65864270000E+03 0. -1.
    8880022    1    1    2    0    0  0.33434664233E+02 -0.16241513827E+03 -0.98228736724E+03  0.10078574695E+04  0.15294330000E+03 0.  0.
<mgrwt>
<rscale>  0 0.51561237E+03</rscale>
<asrwt>0</asrwt>
<pdfrwt beam="1">  1        2 0.20368980E+00 0.67919567E+03</pdfrwt>
<pdfrwt beam="2">  1       -2 0.16661963E+00 0.67919567E+03</pdfrwt>
<totfact> 0.37395413E+00</totfact>
</mgrwt>
</event>
<event>
 4    2  0.2930016E-007  0.9752540E+03  0.7818608E-02  0.9414674E-01
          2   -1    0    0  501    0  0.00000000000E+00  0.00000000000E+00  0.16467994132E+04  0.16467994132E+04  0.25500000000E-02 0. -1.
         -2   -1    0    0    0  501 -0.00000000000E+00 -0.00000000000E+00 -0.58688557570E+03  0.58688557571E+03  0.25500000000E-02 0.  1.
    8880023    1    1    2    0    0 -0.71909125943E+03  0.14761881966E+02  0.11327777567E+04  0.14947594472E+04  0.65864270000E+03 0. -1.
    8880022    1    1    2    0    0  0.71909125943E+03 -0.14761881966E+02 -0.72863919174E+02  0.73892554177E+03  0.15294330000E+03 0.  0.
<mgrwt>
<rscale>  0 0.90877847E+03</rscale>
<asrwt>0</asrwt>
<pdfrwt beam="1">  1        2 0.25335375E+00 0.97525400E+03</pdfrwt>
<pdfrwt beam="2">  1       -2 0.90290091E-01 0.97525400E+03</pdfrwt>
<totfact> 0.11013977E+01</totfact>
</mgrwt>
</event>
<event>
 4    2  0.2930016E-007  0.1073862E+04  0.7818608E-02  0.9290731E-01
          2   -1    0    0  501    0  0.00000000000E+00  0.00000000000E+00  0.32817604948E+04  0.32817604948E+04  0.25500000000E-02 0. -1.
         -2   -1    0    0    0  501 -0.00000000000E+00 -0.00000000000E+00 -0.76992762956E+03  0.76992762957E+03  0.25500000000E-02 0.  1.
    8880023    1    1    2    0    0  0.82764543634E+03 -0.18539963497E+03  0.29103695419E+04  0.31021655451E+04  0.65864270000E+03 0.  0.
    8880022    1    1    2    0    0 -0.82764543634E+03  0.18539963497E+03 -0.39853667659E+03  0.94952257927E+03  0.15294330000E+03 0.  0.
<mgrwt>
<rscale>  0 0.10164069E+04</rscale>
<asrwt>0</asrwt>
<pdfrwt beam="1">  1        2 0.50488623E+00 0.10738623E+04</pdfrwt>
<pdfrwt beam="2">  1       -2 0.11845041E+00 0.10738623E+04</pdfrwt>
<totfact> 0.63622530E-01</totfact>
</mgrwt>
</event>
<event>
 4    2  0.2930016E-007  0.7031194E+03  0.7818608E-02  0.9984499E-01
         -2   -1    0    0    0  501 -0.00000000000E+00  0.00000000000E+00  0.59061504409E+03  0.59061504409E+03  0.25500000000E-02 0.  1.
          2   -1    0    0  501    0  0.00000000000E+00 -0.00000000000E+00 -0.73596457041E+03  0.73596457041E+03  0.25500000000E-02 0. -1.
    8880023    1    1    2    0    0  0.74990472446E+02 -0.23439960971E+03 -0.50430077475E+03  0.86527234191E+03  0.65864270000E+03 0.  0.
    8880022    1    1    2    0    0 -0.74990472446E+02  0.23439960971E+03  0.35895124843E+03  0.46130727260E+03  0.15294330000E+03 0.  0.
<mgrwt>
<rscale>  0 0.56335201E+03</rscale>
<asrwt>0</asrwt>
<pdfrwt beam="1">  1        2 0.11322532E+00 0.70311945E+03</pdfrwt>
<pdfrwt beam="2">  1       -2 0.90863853E-01 0.70311945E+03</pdfrwt>
<totfact> 0.40414298E+01</totfact>
</mgrwt>
</event>
<event>
 4    2  0.2930016E-007  0.8312605E+03  0.7818608E-02  0.9646885E-01
         -2   -1    0    0    0  501 -0.00000000000E+00  0.00000000000E+00  0.50280651014E+03  0.50280651015E+03  0.25500000000E-02 0.  1.
          2   -1    0    0  501    0  0.00000000000E+00 -0.00000000000E+00 -0.11268062103E+04  0.11268062103E+04  0.25500000000E-02 0. -1.
    8880023    1    1    2    0    0 -0.50475272314E+03  0.49075703786E+02 -0.70972756891E+03  0.10930266074E+04  0.65864270000E+03 0. -1.
    8880022    1    1    2    0    0  0.50475272314E+03 -0.49075703786E+02  0.85727868730E+02  0.53658611304E+03  0.15294330000E+03 0.  1.
<mgrwt>
<rscale>  0 0.74269250E+03</rscale>
<asrwt>0</asrwt>
<pdfrwt beam="1">  1        2 0.17335480E+00 0.83126045E+03</pdfrwt>
<pdfrwt beam="2">  1       -2 0.77354848E-01 0.83126045E+03</pdfrwt>
<totfact> 0.31569867E+01</totfact>
</mgrwt>
</event>
<event>
 4    2  0.2930016E-007  0.7246987E+03  0.7818608E-02  0.9906996E-01
          2   -1    0    0  501    0  0.00000000000E+00  0.00000000000E+00  0.18004537705E+04  0.18004537705E+04  0.25500000000E-02 0. -1.
         -2   -1    0    0    0  501 -0.00000000000E+00 -0.00000000000E+00 -0.26790346377E+03  0.26790346378E+03  0.25500000000E-02 0.  1.
    8880023    1    1    2    0    0 -0.71727825231E+02  0.29365478147E+03  0.15683549749E+04  0.17276937070E+04  0.65864270000E+03 0.  0.
    8880022    1    1    2    0    0  0.71727825231E+02 -0.29365478147E+03 -0.35804668114E+02  0.34066352735E+03  0.15294330000E+03 0.  0.
<mgrwt>
<rscale>  0 0.59923408E+03</rscale>
<asrwt>0</asrwt>
<pdfrwt beam="1">  1        2 0.27699289E+00 0.72469871E+03</pdfrwt>
<pdfrwt beam="2">  1       -2 0.41215917E-01 0.72469871E+03</pdfrwt>
<totfact> 0.49504879E+01</totfact>
</mgrwt>
</event>
<event>
 4    2  0.2930016E-007  0.7199261E+03  0.7818608E-02  0.9922836E-01
          2   -1    0    0  501    0  0.00000000000E+00  0.00000000000E+00  0.19010378021E+04  0.19010378021E+04  0.25500000000E-02 0. -1.
         -2   -1    0    0    0  501 -0.00000000000E+00 -0.00000000000E+00 -0.23903310887E+03  0.23903310889E+03  0.25500000000E-02 0.  1.
    8880023    1    1    2    0    0  0.75516253676E+01 -0.29056203309E+03  0.16624380232E+04  0.18116273650E+04  0.65864270000E+03 0. -1.
    8880022    1    1    2    0    0 -0.75516253676E+01  0.29056203309E+03 -0.43333003511E+00  0.32844354600E+03  0.15294330000E+03 0.  0.
<mgrwt>
<rscale>  0 0.59167199E+03</rscale>
<asrwt>0</asrwt>
<pdfrwt beam="1">  1        2 0.29246736E+00 0.71992606E+03</pdfrwt>
<pdfrwt beam="2">  1       -2 0.36774324E-01 0.71992606E+03</pdfrwt>
<totfact> 0.54474015E+01</totfact>
</mgrwt>
</event>
<event>
 4    2  0.2930016E-007  0.1919254E+04  0.7818608E-02  0.8659288E-01
          2   -1    0    0  501    0  0.00000000000E+00  0.00000000000E+00  0.34912485968E+04  0.34912485968E+04  0.25500000000E-02 0. -1.
         -2   -1    0    0    0  501 -0.00000000000E+00 -0.00000000000E+00 -0.11635198536E+04  0.11635198536E+04  0.25500000000E-02 0.  1.
    8880023    1    1    2    0    0 -0.45037824953E+02  0.18021368865E+04  0.20775395847E+04  0.28283752749E+04  0.65864270000E+03 0.  0.
    8880022    1    1    2    0    0  0.45037824953E+02 -0.18021368865E+04  0.25018915850E+03  0.18263931754E+04  0.15294330000E+03 0.  0.
<mgrwt>
<rscale>  0 0.18911220E+04</rscale>
<asrwt>0</asrwt>
<pdfrwt beam="1">  1        2 0.53711516E+00 0.19192540E+04</pdfrwt>
<pdfrwt beam="2">  1       -2 0.17900306E+00 0.19192540E+04</pdfrwt>
<totfact> 0.13741234E-01</totfact>
</mgrwt>
</event>
<event>
 4    2  0.2930016E-007  0.8528684E+03  0.7818608E-02  0.9606377E-01
          2   -1    0    0  501    0  0.00000000000E+00  0.00000000000E+00  0.10013145202E+04  0.10013145202E+04  0.25500000000E-02 0. -1.
         -2   -1    0    0    0  501 -0.00000000000E+00 -0.00000000000E+00 -0.77891099359E+03  0.77891099359E+03  0.25500000000E-02 0.  1.
    8880023    1    1    2    0    0 -0.37891428841E+03 -0.38729616537E+03  0.65076768770E+03  0.10727922200E+04  0.65864270000E+03 0. -1.
    8880022    1    1    2    0    0  0.37891428841E+03  0.38729616537E+03 -0.42836416108E+03  0.70743329380E+03  0.15294330000E+03 0.  0.
<mgrwt>
<rscale>  0 0.76875529E+03</rscale>
<asrwt>0</asrwt>
<pdfrwt beam="1">  1        2 0.15404839E+00 0.85286843E+03</pdfrwt>
<pdfrwt beam="2">  1       -2 0.11983246E+00 0.85286843E+03</pdfrwt>
<totfact> 0.13475552E+01</totfact>
</mgrwt>
</event>
<event>
 4    2  0.2930016E-007  0.1150927E+04  0.7818608E-02  0.9206367E-01
          2   -1    0    0  501    0  0.00000000000E+00  0.00000000000E+00  0.95569662708E+03  0.95569662708E+03  0.25500000000E-02 0. -1.
         -2   -1    0    0    0  501 -0.00000000000E+00 -0.00000000000E+00 -0.15091130291E+04  0.15091130291E+04  0.25500000000E-02 0.  1.
    8880023    1    1    2    0    0  0.81558039795E+03  0.47502772401E+03  0.29323008051E+03  0.11876939044E+04  0.65864270000E+03 0. -1.
    8880022    1    1    2    0    0 -0.81558039795E+03 -0.47502772401E+03 -0.84664648251E+03  0.12771157518E+04  0.15294330000E+03 0.  1.
<mgrwt>
<rscale>  0 0.10987954E+04</rscale>
<asrwt>0</asrwt>
<pdfrwt beam="1">  1        2 0.14703025E+00 0.11509270E+04</pdfrwt>
<pdfrwt beam="2">  1       -2 0.23217124E+00 0.11509270E+04</pdfrwt>
<totfact> 0.21826408E+00</totfact>
</mgrwt>
</event>
<event>
 4    2  0.3942994E-007  0.7708776E+03  0.7818608E-02  0.9777719E-01
         -2   -1    0    0    0  501 -0.00000000000E+00  0.00000000000E+00  0.63153110271E+03  0.63153110271E+03  0.25500000000E-02 0.  1.
          2   -1    0    0  501    0  0.00000000000E+00 -0.00000000000E+00 -0.22840372981E+04  0.22840372981E+04  0.25500000000E-02 0. -1.
    8880023    1    1    2    0    0 -0.15924225346E+03 -0.36753766079E+03 -0.21351123384E+04  0.22700125399E+04  0.65864270000E+03 0.  0.
    8880022    1    1    2    0    0  0.15924225346E+03  0.36753766079E+03  0.48260614297E+03  0.64555586097E+03  0.15294330000E+03 0.  0.
<mgrwt>
<rscale>  0 0.66572090E+03</rscale>
<asrwt>0</asrwt>
<pdfrwt beam="1">  1        2 0.35139035E+00 0.77087757E+03</pdfrwt>
<pdfrwt beam="2">  1       -2 0.97158632E-01 0.77087757E+03</pdfrwt>
<totfact> 0.42563350E+00</totfact>
</mgrwt>
</event>
<event>
 4    2  0.2930016E-007  0.7124312E+03  0.7818608E-02  0.9949081E-01
         -2   -1    0    0    0  501 -0.00000000000E+00  0.00000000000E+00  0.10583797727E+04  0.10583797727E+04  0.25500000000E-02 0.  1.
          2   -1    0    0  501    0  0.00000000000E+00 -0.00000000000E+00 -0.12174896483E+04  0.12174896483E+04  0.25500000000E-02 0. -1.
    8880023    1    1    2    0    0  0.23031343514E+03 -0.14388775465E+03 -0.10855254422E+04  0.12984312289E+04  0.65864270000E+03 0. -1.
    8880022    1    1    2    0    0 -0.23031343514E+03  0.14388775465E+03  0.92641556654E+03  0.97743819206E+03  0.15294330000E+03 0.  0.
<mgrwt>
<rscale>  0 0.57940432E+03</rscale>
<asrwt>0</asrwt>
<pdfrwt beam="1">  1        2 0.18730610E+00 0.71243117E+03</pdfrwt>
<pdfrwt beam="2">  1       -2 0.16282766E+00 0.71243117E+03</pdfrwt>
<totfact> 0.45658148E+00</totfact>
</mgrwt>
</event>
<event>
 4    2  0.2930016E-007  0.6873131E+03  0.7818608E-02  0.1005457E+00
          2   -1    0    0  501    0  0.00000000000E+00  0.00000000000E+00  0.32628884762E+04  0.32628884762E+04  0.25500000000E-02 0. -1.
         -2   -1    0    0    0  501 -0.00000000000E+00 -0.00000000000E+00 -0.18688531475E+03  0.18688531477E+03  0.25500000000E-02 0.  1.
    8880023    1    1    2    0    0  0.17805818385E+03 -0.82971783583E+02  0.31218616300E+04  0.31966262335E+04  0.65864270000E+03 0. -1.
    8880022    1    1    2    0    0 -0.17805818385E+03  0.82971783583E+02 -0.45858468517E+02  0.25314755748E+03  0.15294330000E+03 0.  0.
<mgrwt>
<rscale>  0 0.53320964E+03</rscale>
<asrwt>0</asrwt>
<pdfrwt beam="1">  1        2 0.50198284E+00 0.68731306E+03</pdfrwt>
<pdfrwt beam="2">  1       -2 0.28751587E-01 0.68731306E+03</pdfrwt>
<totfact> 0.14156155E+01</totfact>
</mgrwt>
</event>
<event>
 4    2  0.2930016E-007  0.8090627E+03  0.7818608E-02  0.9691533E-01
         -2   -1    0    0    0  501 -0.00000000000E+00  0.00000000000E+00  0.38472300276E+03  0.38472300277E+03  0.25500000000E-02 0.  1.
          2   -1    0    0  501    0  0.00000000000E+00 -0.00000000000E+00 -0.19553753641E+04  0.19553753641E+04  0.25500000000E-02 0. -1.
    8880023    1    1    2    0    0  0.14300168843E+03  0.44757423834E+03 -0.16518470149E+04  0.18393425316E+04  0.65864270000E+03 0.  0.
    8880022    1    1    2    0    0 -0.14300168843E+03 -0.44757423834E+03  0.81194653591E+02  0.50075583522E+03  0.15294330000E+03 0.  0.
<mgrwt>
<rscale>  0 0.71523175E+03</rscale>
<asrwt>0</asrwt>
<pdfrwt beam="1">  1        2 0.30082697E+00 0.80906266E+03</pdfrwt>
<pdfrwt beam="2">  1       -2 0.59188155E-01 0.80906266E+03</pdfrwt>
<totfact> 0.19330466E+01</totfact>
</mgrwt>
</event>
<event>
 4    2  0.2930016E-007  0.7301253E+03  0.7818608E-02  0.9889705E-01
         -2   -1    0    0    0  501 -0.00000000000E+00  0.00000000000E+00  0.25147190888E+03  0.25147190889E+03  0.25500000000E-02 0.  1.
          2   -1    0    0  501    0  0.00000000000E+00 -0.00000000000E+00 -0.16898395966E+04  0.16898395966E+04  0.25500000000E-02 0. -1.
    8880023    1    1    2    0    0 -0.12825965218E+03 -0.28778851877E+03 -0.14125968830E+04  0.15901298469E+04  0.65864270000E+03 0. -1.
    8880022    1    1    2    0    0  0.12825965218E+03  0.28778851877E+03 -0.25770804694E+02  0.35118165856E+03  0.15294330000E+03 0.  0.
<mgrwt>
<rscale>  0 0.60762815E+03</rscale>
<asrwt>0</asrwt>
<pdfrwt beam="1">  1        2 0.25997532E+00 0.73012532E+03</pdfrwt>
<pdfrwt beam="2">  1       -2 0.38687987E-01 0.73012532E+03</pdfrwt>
<totfact> 0.64317062E+01</totfact>
</mgrwt>
</event>
<event>
 4    2  0.2930016E-007  0.1255994E+04  0.7818608E-02  0.9104525E-01
         -2   -1    0    0    0  501 -0.00000000000E+00  0.00000000000E+00  0.86900399354E+03  0.86900399355E+03  0.25500000000E-02 0.  1.
          2   -1    0    0  501    0  0.00000000000E+00 -0.00000000000E+00 -0.33877243699E+04  0.33877243699E+04  0.25500000000E-02 0. -1.
    8880023    1    1    2    0    0  0.10446234053E+04 -0.22907037131E+03  0.25361003188E+03  0.12813428692E+04  0.65864270000E+03 0.  1.
    8880022    1    1    2    0    0 -0.10446234053E+04  0.22907037131E+03 -0.27723304083E+04  0.29753854943E+04  0.15294330000E+03 0.  0.
<mgrwt>
<rscale>  0 0.12095655E+04</rscale>
<asrwt>0</asrwt>
<pdfrwt beam="1">  1        2 0.52118836E+00 0.12559942E+04</pdfrwt>
<pdfrwt beam="2">  1       -2 0.13369292E+00 0.12559942E+04</pdfrwt>
<totfact> 0.38738451E-01</totfact>
</mgrwt>
</event>
<event>
 4    2  0.2930016E-007  0.1213241E+04  0.7818608E-02  0.9144358E-01
          2   -1    0    0  501    0  0.00000000000E+00  0.00000000000E+00  0.32724215138E+04  0.32724215138E+04  0.25500000000E-02 0. -1.
         -2   -1    0    0    0  501 -0.00000000000E+00 -0.00000000000E+00 -0.46958571088E+03  0.46958571088E+03  0.25500000000E-02 0.  1.
    8880023    1    1    2    0    0  0.83756260353E+03  0.58019948147E+03  0.22890587962E+04  0.25907031733E+04  0.65864270000E+03 0. -1.
    8880022    1    1    2    0    0 -0.83756260353E+03 -0.58019948147E+03  0.51377700666E+03  0.11513040514E+04  0.15294330000E+03 0.  0.
<mgrwt>
<rscale>  0 0.11646675E+04</rscale>
<asrwt>0</asrwt>
<pdfrwt beam="1">  1        2 0.50344948E+00 0.12132406E+04</pdfrwt>
<pdfrwt beam="2">  1       -2 0.72243953E-01 0.12132406E+04</pdfrwt>
<totfact> 0.20115244E+00</totfact>
</mgrwt>
</event>
<event>
 4    2  0.2930016E-007  0.8180411E+03  0.7818608E-02  0.9673065E-01
         -2   -1    0    0    0  501 -0.00000000000E+00  0.00000000000E+00  0.44374150756E+03  0.44374150757E+03  0.25500000000E-02 0.  1.
          2   -1    0    0  501    0  0.00000000000E+00 -0.00000000000E+00 -0.16602322234E+04  0.16602322234E+04  0.25500000000E-02 0. -1.
    8880023    1    1    2    0    0 -0.39081678567E+03 -0.28747757088E+03 -0.36331153290E+02  0.81884752713E+03  0.65864270000E+03 0.  0.
    8880022    1    1    2    0    0  0.39081678567E+03  0.28747757088E+03 -0.11801595626E+04  0.12851262039E+04  0.15294330000E+03 0.  0.
<mgrwt>
<rscale>  0 0.72643403E+03</rscale>
<asrwt>0</asrwt>
<pdfrwt beam="1">  1        2 0.25542034E+00 0.81804115E+03</pdfrwt>
<pdfrwt beam="2">  1       -2 0.68267925E-01 0.81804115E+03</pdfrwt>
<totfact> 0.20636113E+01</totfact>
</mgrwt>
</event>
<event>
 4    2  0.2930016E-007  0.8648326E+03  0.7818608E-02  0.9585024E-01
          2   -1    0    0  501    0  0.00000000000E+00  0.00000000000E+00  0.17897557253E+04  0.17897557253E+04  0.25500000000E-02 0. -1.
         -2   -1    0    0    0  501 -0.00000000000E+00 -0.00000000000E+00 -0.70859259882E+03  0.70859259883E+03  0.25500000000E-02 0.  1.
    8880023    1    1    2    0    0  0.36224691518E+03  0.42767086505E+03  0.15345098723E+04  0.17614357640E+04  0.65864270000E+03 0. -1.
    8880022    1    1    2    0    0 -0.36224691518E+03 -0.42767086505E+03 -0.45334674577E+03  0.73691256014E+03  0.15294330000E+03 0.  0.
<mgrwt>
<rscale>  0 0.78295349E+03</rscale>
<asrwt>0</asrwt>
<pdfrwt beam="1">  1        2 0.27534703E+00 0.86483259E+03</pdfrwt>
<pdfrwt beam="2">  1       -2 0.10901425E+00 0.86483259E+03</pdfrwt>
<totfact> 0.59534146E+00</totfact>
</mgrwt>
</event>
<event>
 4    2  0.2930016E-007  0.1013747E+04  0.7818608E-02  0.9363790E-01
          2   -1    0    0  501    0  0.00000000000E+00  0.00000000000E+00  0.58255482449E+03  0.58255482450E+03  0.25500000000E-02 0. -1.
         -2   -1    0    0    0  501 -0.00000000000E+00 -0.00000000000E+00 -0.15295018359E+04  0.15295018359E+04  0.25500000000E-02 0.  1.
    8880023    1    1    2    0    0  0.76177859295E+03  0.11647017149E+03 -0.84513916604E+03  0.13198266332E+04  0.65864270000E+03 0.  1.
    8880022    1    1    2    0    0 -0.76177859295E+03 -0.11647017149E+03 -0.10180784533E+03  0.79223002714E+03  0.15294330000E+03 0.  0.
<mgrwt>
<rscale>  0 0.95116505E+03</rscale>
<asrwt>0</asrwt>
<pdfrwt beam="1">  1        2 0.89623820E-01 0.10137466E+04</pdfrwt>
<pdfrwt beam="2">  1       -2 0.23530797E+00 0.10137466E+04</pdfrwt>
<totfact> 0.40555502E+00</totfact>
</mgrwt>
</event>
<event>
 4    2  0.2930016E-007  0.6834399E+03  0.7818608E-02  0.1007441E+00
         -2   -1    0    0    0  501 -0.00000000000E+00  0.00000000000E+00  0.18616370198E+03  0.18616370199E+03  0.25500000000E-02 0.  1.
          2   -1    0    0  501    0  0.00000000000E+00 -0.00000000000E+00 -0.14000797151E+04  0.14000797151E+04  0.25500000000E-02 0. -1.
    8880023    1    1    2    0    0 -0.17283235338E+03 -0.58385011682E+02 -0.11532936850E+04  0.13405880657E+04  0.65864270000E+03 0.  0.
    8880022    1    1    2    0    0  0.17283235338E+03  0.58385011682E+02 -0.60622328161E+02  0.24565535136E+03  0.15294330000E+03 0.  0.
<mgrwt>
<rscale>  0 0.52504412E+03</rscale>
<asrwt>0</asrwt>
<pdfrwt beam="1">  1        2 0.21539687E+00 0.68343986E+03</pdfrwt>
<pdfrwt beam="2">  1       -2 0.28640570E-01 0.68343986E+03</pdfrwt>
<totfact> 0.16488907E+02</totfact>
</mgrwt>
</event>
<event>
 4    2  0.2930016E-007  0.7893385E+03  0.7818608E-02  0.9734341E-01
         -2   -1    0    0    0  501 -0.00000000000E+00  0.00000000000E+00  0.21403335144E+03  0.21403335146E+03  0.25500000000E-02 0.  1.
          2   -1    0    0  501    0  0.00000000000E+00 -0.00000000000E+00 -0.23799798029E+04  0.23799798029E+04  0.25500000000E-02 0. -1.
    8880023    1    1    2    0    0  0.21307662800E+03  0.37926703531E+03 -0.69235581075E+03  0.10499580508E+04  0.65864270000E+03 0.  0.
    8880022    1    1    2    0    0 -0.21307662800E+03 -0.37926703531E+03 -0.14735906407E+04  0.15440551035E+04  0.15294330000E+03 0.  0.
<mgrwt>
<rscale>  0 0.69008452E+03</rscale>
<asrwt>0</asrwt>
<pdfrwt beam="1">  1        2 0.36615072E+00 0.78933855E+03</pdfrwt>
<pdfrwt beam="2">  1       -2 0.32928210E-01 0.78933855E+03</pdfrwt>
<totfact> 0.36321575E+01</totfact>
</mgrwt>
</event>
<event>
 4    2  0.2930016E-007  0.9654768E+03  0.7818608E-02  0.9428188E-01
         -2   -1    0    0    0  501 -0.00000000000E+00  0.00000000000E+00  0.18435647080E+04  0.18435647080E+04  0.25500000000E-02 0.  1.
          2   -1    0    0  501    0  0.00000000000E+00 -0.00000000000E+00 -0.43361821035E+03  0.43361821035E+03  0.25500000000E-02 0. -1.
    8880023    1    1    2    0    0  0.91794024582E+02  0.69993505509E+03  0.42279615458E+03  0.10539933676E+04  0.65864270000E+03 0. -1.
    8880022    1    1    2    0    0 -0.91794024582E+02 -0.69993505509E+03  0.98715034305E+03  0.12231895508E+04  0.15294330000E+03 0.  0.
<mgrwt>
<rscale>  0 0.89791821E+03</rscale>
<asrwt>0</asrwt>
<pdfrwt beam="1">  1        2 0.66710495E-01 0.96547679E+03</pdfrwt>
<pdfrwt beam="2">  1       -2 0.28362534E+00 0.96547679E+03</pdfrwt>
<totfact> 0.29306718E+00</totfact>
</mgrwt>
</event>
<event>
 4    2  0.2930016E-007  0.6713584E+03  0.7818608E-02  0.1014707E+00
         -2   -1    0    0    0  501 -0.00000000000E+00  0.00000000000E+00  0.87539171792E+03  0.87539171793E+03  0.25500000000E-02 0.  1.
          2   -1    0    0  501    0  0.00000000000E+00 -0.00000000000E+00 -0.22119001855E+03  0.22119001856E+03  0.25500000000E-02 0. -1.
    8880023    1    1    2    0    0 -0.95721420740E+02  0.88029856253E+02  0.43830736762E+03  0.80177016704E+03  0.65864270000E+03 0. -1.
    8880022    1    1    2    0    0  0.95721420740E+02 -0.88029856253E+02  0.21589433176E+03  0.29481156945E+03  0.15294330000E+03 0.  1.
<mgrwt>
<rscale>  0 0.49645930E+03</rscale>
<asrwt>0</asrwt>
<pdfrwt beam="1">  1        2 0.34029233E-01 0.67135836E+03</pdfrwt>
<pdfrwt beam="2">  1       -2 0.13467565E+00 0.67135836E+03</pdfrwt>
<totfact> 0.62152789E+01</totfact>
</mgrwt>
</event>
<event>
 4    2  0.2930016E-007  0.6962327E+03  0.7818608E-02  0.1001320E+00
          2   -1    0    0  501    0  0.00000000000E+00  0.00000000000E+00  0.25918505704E+03  0.25918505705E+03  0.25500000000E-02 0. -1.
         -2   -1    0    0    0  501 -0.00000000000E+00 -0.00000000000E+00 -0.12318549003E+04  0.12318549003E+04  0.25500000000E-02 0.  1.
    8880023    1    1    2    0    0 -0.32240668485E+02 -0.22336122487E+03 -0.28682625455E+03  0.75300013549E+03  0.65864270000E+03 0. -1.
    8880022    1    1    2    0    0  0.32240668485E+02  0.22336122487E+03 -0.68584358874E+03  0.73803982190E+03  0.15294330000E+03 0.  0.
<mgrwt>
<rscale>  0 0.55075061E+03</rscale>
<asrwt>0</asrwt>
<pdfrwt beam="1">  1        2 0.39874625E-01 0.69623265E+03</pdfrwt>
<pdfrwt beam="2">  1       -2 0.18951613E+00 0.69623265E+03</pdfrwt>
<totfact> 0.20587750E+01</totfact>
</mgrwt>
</event>
<event>
 4    2  0.2930016E-007  0.7172564E+03  0.7818608E-02  0.9931981E-01
         -2   -1    0    0    0  501 -0.00000000000E+00  0.00000000000E+00  0.96574721185E+03  0.96574721185E+03  0.25500000000E-02 0.  1.
          2   -1    0    0  501    0  0.00000000000E+00 -0.00000000000E+00 -0.70567498776E+03  0.70567498776E+03  0.25500000000E-02 0. -1.
    8880023    1    1    2    0    0 -0.25354023102E+03  0.12792161686E+03 -0.48072221356E+03  0.86345274432E+03  0.65864270000E+03 0. -1.
    8880022    1    1    2    0    0  0.25354023102E+03 -0.12792161686E+03  0.74079443765E+03  0.80796945529E+03  0.15294330000E+03 0.  0.
<mgrwt>
<rscale>  0 0.58736081E+03</rscale>
<asrwt>0</asrwt>
<pdfrwt beam="1">  1        2 0.10856538E+00 0.71725644E+03</pdfrwt>
<pdfrwt beam="2">  1       -2 0.14857649E+00 0.71725644E+03</pdfrwt>
<totfact> 0.12695648E+01</totfact>
</mgrwt>
</event>
<event>
 4    2  0.2930016E-007  0.7169039E+03  0.7818608E-02  0.9933205E-01
         -2   -1    0    0    0  501 -0.00000000000E+00  0.00000000000E+00  0.15522350646E+03  0.15522350648E+03  0.25500000000E-02 0.  1.
          2   -1    0    0  501    0  0.00000000000E+00 -0.00000000000E+00 -0.37709603127E+04  0.37709603127E+04  0.25500000000E-02 0. -1.
    8880023    1    1    2    0    0 -0.25795245403E+02 -0.28191413068E+03 -0.35174183687E+04  0.35897330205E+04  0.65864270000E+03 0. -1.
    8880022    1    1    2    0    0  0.25795245403E+02  0.28191413068E+03 -0.98318437558E+02  0.33645079869E+03  0.15294330000E+03 0.  0.
<mgrwt>
<rscale>  0 0.58678682E+03</rscale>
<asrwt>0</asrwt>
<pdfrwt beam="1">  1        2 0.58014767E+00 0.71690388E+03</pdfrwt>
<pdfrwt beam="2">  1       -2 0.23880542E-01 0.71690388E+03</pdfrwt>
<totfact> 0.88382904E+00</totfact>
</mgrwt>
</event>
<event>
 4    2  0.2930016E-007  0.6687433E+03  0.7818608E-02  0.1016580E+00
         -2   -1    0    0    0  501 -0.00000000000E+00  0.00000000000E+00  0.83661957689E+03  0.83661957689E+03  0.25500000000E-02 0.  1.
          2   -1    0    0  501    0  0.00000000000E+00 -0.00000000000E+00 -0.43990149191E+03  0.43990149192E+03  0.25500000000E-02 0. -1.
    8880023    1    1    2    0    0 -0.95491837936E+02  0.65488632471E+02 -0.16005291616E+03  0.68762969273E+03  0.65864270000E+03 0. -1.
    8880022    1    1    2    0    0  0.95491837936E+02 -0.65488632471E+02  0.55677100114E+03  0.58889137608E+03  0.15294330000E+03 0.  0.
<mgrwt>
<rscale>  0 0.48941160E+03</rscale>
<asrwt>0</asrwt>
<pdfrwt beam="1">  1        2 0.67677154E-01 0.66874334E+03</pdfrwt>
<pdfrwt beam="2">  1       -2 0.12871070E+00 0.66874334E+03</pdfrwt>
<totfact> 0.32378259E+01</totfact>
</mgrwt>
</event>
<event>
 4    2  0.2930016E-007  0.6916431E+03  0.7818608E-02  0.1003381E+00
         -2   -1    0    0    0  501 -0.00000000000E+00  0.00000000000E+00  0.25016205989E+03  0.25016205991E+03  0.25500000000E-02 0.  1.
          2   -1    0    0  501    0  0.00000000000E+00 -0.00000000000E+00 -0.91495977235E+03  0.91495977235E+03  0.25500000000E-02 0. -1.
    8880023    1    1    2    0    0 -0.18188510969E+03  0.10713419017E+03 -0.43086976704E+03  0.81487354249E+03  0.65864270000E+03 0.  1.
    8880022    1    1    2    0    0  0.18188510969E+03 -0.10713419017E+03 -0.23392794541E+03  0.35024828977E+03  0.15294330000E+03 0.  1.
<mgrwt>
<rscale>  0 0.54192161E+03</rscale>
<asrwt>0</asrwt>
<pdfrwt beam="1">  1        2 0.14076304E+00 0.69164307E+03</pdfrwt>
<pdfrwt beam="2">  1       -2 0.38486471E-01 0.69164307E+03</pdfrwt>
<totfact> 0.18520344E+02</totfact>
</mgrwt>
</event>
<event>
 4    2  0.2930016E-007  0.1505666E+04  0.7818608E-02  0.8905645E-01
          2   -1    0    0  501    0  0.00000000000E+00  0.00000000000E+00  0.14062230872E+04  0.14062230872E+04  0.25500000000E-02 0. -1.
         -2   -1    0    0    0  501 -0.00000000000E+00 -0.00000000000E+00 -0.15029722322E+04  0.15029722322E+04  0.25500000000E-02 0.  1.
    8880023    1    1    2    0    0 -0.11071374628E+04 -0.77940152656E+03  0.18747252430E+03  0.15172924091E+04  0.65864270000E+03 0. -1.
    8880022    1    1    2    0    0  0.11071374628E+04  0.77940152656E+03 -0.28422166928E+03  0.13919029102E+04  0.15294330000E+03 0.  0.
<mgrwt>
<rscale>  0 0.14685429E+04</rscale>
<asrwt>0</asrwt>
<pdfrwt beam="1">  1        2 0.21634201E+00 0.15056661E+04</pdfrwt>
<pdfrwt beam="2">  1       -2 0.23122650E+00 0.15056661E+04</pdfrwt>
<totfact> 0.11348394E+00</totfact>
</mgrwt>
</event>
<event>
 4    2  0.2930016E-007  0.7322442E+03  0.7818608E-02  0.9883144E-01
          2   -1    0    0  501    0  0.00000000000E+00  0.00000000000E+00  0.50284576588E+03  0.50284576589E+03  0.25500000000E-02 0. -1.
         -2   -1    0    0    0  501 -0.00000000000E+00 -0.00000000000E+00 -0.73460159500E+03  0.73460159501E+03  0.25500000000E-02 0.  1.
    8880023    1    1    2    0    0 -0.20062568635E+03 -0.24924012236E+03  0.11528234853E+03  0.74126346920E+03  0.65864270000E+03 0.  0.
    8880022    1    1    2    0    0  0.20062568635E+03  0.24924012236E+03 -0.34703817765E+03  0.49618389170E+03  0.15294330000E+03 0.  0.
<mgrwt>
<rscale>  0 0.61085204E+03</rscale>
<asrwt>0</asrwt>
<pdfrwt beam="1">  1        2 0.77360886E-01 0.73224416E+03</pdfrwt>
<pdfrwt beam="2">  1       -2 0.11301563E+00 0.73224416E+03</pdfrwt>
<totfact> 0.38137866E+01</totfact>
</mgrwt>
</event>
<event>
 4    2  0.3154231E-007  0.7464483E+03  0.7818608E-02  0.9841547E-01
         -2   -1    0    0    0  501 -0.00000000000E+00  0.00000000000E+00  0.99541701665E+03  0.99541701665E+03  0.25500000000E-02 0.  1.
          2   -1    0    0  501    0  0.00000000000E+00 -0.00000000000E+00 -0.23876942815E+04  0.23876942815E+04  0.25500000000E-02 0. -1.
    8880023    1    1    2    0    0 -0.17191321598E+03  0.30630170615E+03 -0.22891852601E+04  0.24078110911E+04  0.65864270000E+03 0. -1.
    8880022    1    1    2    0    0  0.17191321598E+03 -0.30630170615E+03  0.89690799523E+03  0.97530020708E+03  0.15294330000E+03 0.  0.
<mgrwt>
<rscale>  0 0.63179792E+03</rscale>
<asrwt>0</asrwt>
<pdfrwt beam="1">  1        2 0.36733758E+00 0.74644832E+03</pdfrwt>
<pdfrwt beam="2">  1       -2 0.15314108E+00 0.74644832E+03</pdfrwt>
<totfact> 0.12028081E+00</totfact>
</mgrwt>
</event>
<event>
 4    2  0.2930016E-007  0.6641794E+03  0.7818608E-02  0.1020232E+00
         -2   -1    0    0    0  501 -0.00000000000E+00  0.00000000000E+00  0.67638675380E+03  0.67638675381E+03  0.25500000000E-02 0.  1.
          2   -1    0    0  501    0  0.00000000000E+00 -0.00000000000E+00 -0.34751500583E+03  0.34751500584E+03  0.25500000000E-02 0. -1.
    8880023    1    1    2    0    0  0.13785701635E+02 -0.84462867269E+02  0.14922769233E+02  0.66434698526E+03  0.65864270000E+03 0. -1.
    8880022    1    1    2    0    0 -0.13785701635E+02  0.84462867269E+02  0.31394897874E+03  0.35955477439E+03  0.15294330000E+03 0.  0.
<mgrwt>
<rscale>  0 0.47602969E+03</rscale>
<asrwt>0</asrwt>
<pdfrwt beam="1">  1        2 0.53463848E-01 0.66417936E+03</pdfrwt>
<pdfrwt beam="2">  1       -2 0.10405950E+00 0.66417936E+03</pdfrwt>
<totfact> 0.71043780E+01</totfact>
</mgrwt>
</event>
<event>
 4    2  0.2930016E-007  0.6674654E+03  0.7818608E-02  0.1017549E+00
          2   -1    0    0  501    0  0.00000000000E+00  0.00000000000E+00  0.55998278321E+03  0.55998278322E+03  0.25500000000E-02 0. -1.
         -2   -1    0    0    0  501 -0.00000000000E+00 -0.00000000000E+00 -0.38359499328E+03  0.38359499328E+03  0.25500000000E-02 0.  1.
    8880023    1    1    2    0    0 -0.80078718060E+02 -0.72713130317E+02  0.28642179246E+03  0.72632461742E+03  0.65864270000E+03 0. -1.
    8880022    1    1    2    0    0  0.80078718060E+02  0.72713130317E+02 -0.11003400252E+03  0.21725315909E+03  0.15294330000E+03 0.  1.
<mgrwt>
<rscale>  0 0.48581589E+03</rscale>
<asrwt>0</asrwt>
<pdfrwt beam="1">  1        2 0.86151197E-01 0.66746536E+03</pdfrwt>
<pdfrwt beam="2">  1       -2 0.59014614E-01 0.66746536E+03</pdfrwt>
<totfact> 0.14666318E+02</totfact>
</mgrwt>
</event>
<event>
 4    2  0.2930016E-007  0.7399372E+03  0.7818608E-02  0.9860130E-01
         -2   -1    0    0    0  501 -0.00000000000E+00  0.00000000000E+00  0.46481853461E+03  0.46481853462E+03  0.25500000000E-02 0.  1.
          2   -1    0    0  501    0  0.00000000000E+00 -0.00000000000E+00 -0.22583919932E+04  0.22583919932E+04  0.25500000000E-02 0. -1.
    8880023    1    1    2    0    0  0.21914304430E+03  0.25626768934E+03 -0.21101154825E+04  0.22360890765E+04  0.65864270000E+03 0. -1.
    8880022    1    1    2    0    0 -0.21914304430E+03 -0.25626768934E+03  0.31654202385E+03  0.48712145133E+03  0.15294330000E+03 0.  0.
<mgrwt>
<rscale>  0 0.62233072E+03</rscale>
<asrwt>0</asrwt>
<pdfrwt beam="1">  1        2 0.34744491E+00 0.73993717E+03</pdfrwt>
<pdfrwt beam="2">  1       -2 0.71510545E-01 0.73993717E+03</pdfrwt>
<totfact> 0.88634470E+00</totfact>
</mgrwt>
</event>
<event>
 4    2  0.2930016E-007  0.8593095E+03  0.7818608E-02  0.9594793E-01
         -2   -1    0    0    0  501 -0.00000000000E+00  0.00000000000E+00  0.25407227474E+03  0.25407227475E+03  0.25500000000E-02 0.  1.
          2   -1    0    0  501    0  0.00000000000E+00 -0.00000000000E+00 -0.34496199763E+04  0.34496199763E+04  0.25500000000E-02 0. -1.
    8880023    1    1    2    0    0  0.38732750541E+03 -0.39316654962E+03 -0.29638238659E+04  0.30858815023E+04  0.65864270000E+03 0. -1.
    8880022    1    1    2    0    0 -0.38732750541E+03  0.39316654962E+03 -0.23172383565E+03  0.61781074870E+03  0.15294330000E+03 0.  0.
<mgrwt>
<rscale>  0 0.77641776E+03</rscale>
<asrwt>0</asrwt>
<pdfrwt beam="1">  1        2 0.53071073E+00 0.85930945E+03</pdfrwt>
<pdfrwt beam="2">  1       -2 0.39088045E-01 0.85930945E+03</pdfrwt>
<totfact> 0.57752949E+00</totfact>
</mgrwt>
</event>
<event>
 4    2  0.2930016E-007  0.8880061E+03  0.7818608E-02  0.9545567E-01
         -2   -1    0    0    0  501 -0.00000000000E+00  0.00000000000E+00  0.70517069247E+03  0.70517069248E+03  0.25500000000E-02 0.  1.
          2   -1    0    0  501    0  0.00000000000E+00 -0.00000000000E+00 -0.15493191974E+04  0.15493191974E+04  0.25500000000E-02 0. -1.
    8880023    1    1    2    0    0  0.59169863624E+03  0.68098203018E+02 -0.12385165302E+04  0.15239678616E+04  0.65864270000E+03 0. -1.
    8880022    1    1    2    0    0 -0.59169863624E+03 -0.68098203018E+02  0.39436802529E+03  0.73052202825E+03  0.15294330000E+03 0.  0.
<mgrwt>
<rscale>  0 0.81006153E+03</rscale>
<asrwt>0</asrwt>
<pdfrwt beam="1">  1        2 0.23835680E+00 0.88800611E+03</pdfrwt>
<pdfrwt beam="2">  1       -2 0.10848780E+00 0.88800611E+03</pdfrwt>
<totfact> 0.81513542E+00</totfact>
</mgrwt>
</event>
<event>
 4    2  0.2930016E-007  0.7041043E+03  0.7818608E-02  0.9980583E-01
         -2   -1    0    0    0  501 -0.00000000000E+00  0.00000000000E+00  0.17944699120E+03  0.17944699122E+03  0.25500000000E-02 0.  1.
          2   -1    0    0  501    0  0.00000000000E+00 -0.00000000000E+00 -0.14513151083E+04  0.14513151083E+04  0.25500000000E-02 0. -1.
    8880023    1    1    2    0    0  0.34950646275E+02  0.24643688241E+03 -0.10486646009E+04  0.12631153297E+04  0.65864270000E+03 0.  0.
    8880022    1    1    2    0    0 -0.34950646275E+02 -0.24643688241E+03 -0.22320351617E+03  0.36764676979E+03  0.15294330000E+03 0.  0.
<mgrwt>
<rscale>  0 0.56509907E+03</rscale>
<asrwt>0</asrwt>
<pdfrwt beam="1">  1        2 0.22327924E+00 0.70410432E+03</pdfrwt>
<pdfrwt beam="2">  1       -2 0.27607230E-01 0.70410432E+03</pdfrwt>
<totfact> 0.16480096E+02</totfact>
</mgrwt>
</event>
<event>
 4    2  0.2930016E-007  0.7582861E+03  0.7818608E-02  0.9809565E-01
          2   -1    0    0  501    0  0.00000000000E+00  0.00000000000E+00  0.56465891618E+03  0.56465891619E+03  0.25500000000E-02 0. -1.
         -2   -1    0    0    0  501 -0.00000000000E+00 -0.00000000000E+00 -0.92752907800E+03  0.92752907800E+03  0.25500000000E-02 0.  1.
    8880023    1    1    2    0    0 -0.28415086038E+03  0.24585741737E+03  0.21312467371E+03  0.78766738789E+03  0.65864270000E+03 0.  1.
    8880022    1    1    2    0    0  0.28415086038E+03 -0.24585741737E+03 -0.57599483553E+03  0.70452060630E+03  0.15294330000E+03 0.  0.
<mgrwt>
<rscale>  0 0.64851749E+03</rscale>
<asrwt>0</asrwt>
<pdfrwt beam="1">  1        2 0.86870603E-01 0.75828609E+03</pdfrwt>
<pdfrwt beam="2">  1       -2 0.14269678E+00 0.75828609E+03</pdfrwt>
<totfact> 0.18467854E+01</totfact>
</mgrwt>
</event>
<event>
 4    2  0.2930016E-007  0.6719224E+03  0.7818608E-02  0.1014321E+00
         -2   -1    0    0    0  501 -0.00000000000E+00  0.00000000000E+00  0.16016374593E+03  0.16016374595E+03  0.25500000000E-02 0.  1.
          2   -1    0    0  501    0  0.00000000000E+00 -0.00000000000E+00 -0.14596233972E+04  0.14596233972E+04  0.25500000000E-02 0. -1.
    8880023    1    1    2    0    0 -0.10113948005E+02 -0.13254157294E+03 -0.12370568729E+04  0.14077604460E+04  0.65864270000E+03 0. -1.
    8880022    1    1    2    0    0  0.10113948005E+02  0.13254157294E+03 -0.62402778369E+02  0.21202669706E+03  0.15294330000E+03 0.  0.
<mgrwt>
<rscale>  0 0.49793004E+03</rscale>
<asrwt>0</asrwt>
<pdfrwt beam="1">  1        2 0.22455744E+00 0.67192244E+03</pdfrwt>
<pdfrwt beam="2">  1       -2 0.24640577E-01 0.67192244E+03</pdfrwt>
<totfact> 0.20090806E+02</totfact>
</mgrwt>
</event>
<event>
 4    2  0.2930016E-007  0.7066536E+03  0.7818608E-02  0.9970644E-01
          2   -1    0    0  501    0  0.00000000000E+00  0.00000000000E+00  0.24998762061E+04  0.24998762061E+04  0.25500000000E-02 0. -1.
         -2   -1    0    0    0  501 -0.00000000000E+00 -0.00000000000E+00 -0.47789851992E+03  0.47789851992E+03  0.25500000000E-02 0.  1.
    8880023    1    1    2    0    0  0.42298241511E+02 -0.25250727953E+03  0.23967896632E+04  0.24987917007E+04  0.65864270000E+03 0. -1.
    8880022    1    1    2    0    0 -0.42298241511E+02  0.25250727953E+03 -0.37481197702E+03  0.47898302536E+03  0.15294330000E+03 0.  0.
<mgrwt>
<rscale>  0 0.56956396E+03</rscale>
<asrwt>0</asrwt>
<pdfrwt beam="1">  1        2 0.38459635E+00 0.70665357E+03</pdfrwt>
<pdfrwt beam="2">  1       -2 0.73522848E-01 0.70665357E+03</pdfrwt>
<totfact> 0.61460430E+00</totfact>
</mgrwt>
</event>
<event>
 4    2  0.2930016E-007  0.7190100E+03  0.7818608E-02  0.9925950E-01
          2   -1    0    0  501    0  0.00000000000E+00  0.00000000000E+00  0.18385209881E+04  0.18385209881E+04  0.25500000000E-02 0. -1.
         -2   -1    0    0    0  501 -0.00000000000E+00 -0.00000000000E+00 -0.20460643454E+03  0.20460643456E+03  0.25500000000E-02 0.  1.
    8880023    1    1    2    0    0 -0.23010086220E+03 -0.17383530970E+03  0.15460714719E+04  0.17050842572E+04  0.65864270000E+03 0.  0.
    8880022    1    1    2    0    0  0.23010086220E+03  0.17383530970E+03  0.87843081630E+02  0.33804316543E+03  0.15294330000E+03 0.  0.
<mgrwt>
<rscale>  0 0.59019947E+03</rscale>
<asrwt>0</asrwt>
<pdfrwt beam="1">  1        2 0.28284939E+00 0.71900996E+03</pdfrwt>
<pdfrwt beam="2">  1       -2 0.31477912E-01 0.71900996E+03</pdfrwt>
<totfact> 0.79101680E+01</totfact>
</mgrwt>
</event>
<event>
 4    2  0.2930016E-007  0.7048138E+03  0.7818608E-02  0.9977789E-01
         -2   -1    0    0    0  501 -0.00000000000E+00  0.00000000000E+00  0.88136313579E+03  0.88136313579E+03  0.25500000000E-02 0.  1.
          2   -1    0    0  501    0  0.00000000000E+00 -0.00000000000E+00 -0.44732394504E+03  0.44732394505E+03  0.25500000000E-02 0. -1.
    8880023    1    1    2    0    0 -0.12502908335E+03 -0.21753156663E+03  0.65410764546E+03  0.96157125179E+03  0.65864270000E+03 0.  1.
    8880022    1    1    2    0    0  0.12502908335E+03  0.21753156663E+03 -0.22006845471E+03  0.36711582905E+03  0.15294330000E+03 0.  0.
<mgrwt>
<rscale>  0 0.56634980E+03</rscale>
<asrwt>0</asrwt>
<pdfrwt beam="1">  1        2 0.68819069E-01 0.70481378E+03</pdfrwt>
<pdfrwt beam="2">  1       -2 0.13559433E+00 0.70481378E+03</pdfrwt>
<totfact> 0.27755020E+01</totfact>
</mgrwt>
</event>
<event>
 4    2  0.2930016E-007  0.1224363E+04  0.7818608E-02  0.9133796E-01
         -2   -1    0    0    0  501 -0.00000000000E+00  0.00000000000E+00  0.14592204711E+04  0.14592204711E+04  0.25500000000E-02 0.  1.
          2   -1    0    0  501    0  0.00000000000E+00 -0.00000000000E+00 -0.10455382864E+04  0.10455382864E+04  0.25500000000E-02 0. -1.
    8880023    1    1    2    0    0 -0.51036696780E+03 -0.89709604485E+03 -0.27463578463E+03  0.12547871437E+04  0.65864270000E+03 0.  0.
    8880022    1    1    2    0    0  0.51036696780E+03  0.89709604485E+03  0.68831796936E+03  0.12499716139E+04  0.15294330000E+03 0.  0.
<mgrwt>
<rscale>  0 0.11763693E+04</rscale>
<asrwt>0</asrwt>
<pdfrwt beam="1">  1        2 0.16085204E+00 0.12243635E+04</pdfrwt>
<pdfrwt beam="2">  1       -2 0.22449546E+00 0.12243635E+04</pdfrwt>
<totfact> 0.21163380E+00</totfact>
</mgrwt>
</event>
<event>
 4    2  0.2930016E-007  0.8089443E+03  0.7818608E-02  0.9691780E-01
          2   -1    0    0  501    0  0.00000000000E+00  0.00000000000E+00  0.13779966746E+04  0.13779966746E+04  0.25500000000E-02 0. -1.
         -2   -1    0    0    0  501 -0.00000000000E+00 -0.00000000000E+00 -0.52264934023E+03  0.52264934024E+03  0.25500000000E-02 0.  1.
    8880023    1    1    2    0    0  0.43757562416E+02  0.46761724313E+03  0.10870900787E+04  0.13550482116E+04  0.65864270000E+03 0.  0.
    8880022    1    1    2    0    0 -0.43757562416E+02 -0.46761724313E+03 -0.23174274432E+03  0.54559780324E+03  0.15294330000E+03 0.  0.
<mgrwt>
<rscale>  0 0.71508309E+03</rscale>
<asrwt>0</asrwt>
<pdfrwt beam="1">  1        2 0.21199949E+00 0.80894426E+03</pdfrwt>
<pdfrwt beam="2">  1       -2 0.80407592E-01 0.80894426E+03</pdfrwt>
<totfact> 0.20665142E+01</totfact>
</mgrwt>
</event>
<event>
 4    2  0.2930016E-007  0.9782308E+03  0.7818608E-02  0.9410609E-01
          2   -1    0    0  501    0  0.00000000000E+00  0.00000000000E+00  0.68619568671E+03  0.68619568671E+03  0.25500000000E-02 0. -1.
         -2   -1    0    0    0  501 -0.00000000000E+00 -0.00000000000E+00 -0.11393291401E+04  0.11393291401E+04  0.25500000000E-02 0.  1.
    8880023    1    1    2    0    0 -0.68878858750E+03  0.22067076521E+03 -0.40891723866E+02  0.97908510571E+03  0.65864270000E+03 0. -1.
    8880022    1    1    2    0    0  0.68878858750E+03 -0.22067076521E+03 -0.41224172952E+03  0.84643972110E+03  0.15294330000E+03 0. -1.
<mgrwt>
<rscale>  0 0.91207690E+03</rscale>
<asrwt>0</asrwt>
<pdfrwt beam="1">  1        2 0.10556857E+00 0.97823081E+03</pdfrwt>
<pdfrwt beam="2">  1       -2 0.17528141E+00 0.97823081E+03</pdfrwt>
<totfact> 0.81733242E+00</totfact>
</mgrwt>
</event>
<event>
 4    2  0.2930016E-007  0.8142960E+03  0.7818608E-02  0.9680697E-01
          2   -1    0    0  501    0  0.00000000000E+00  0.00000000000E+00  0.17242906894E+04  0.17242906894E+04  0.25500000000E-02 0. -1.
         -2   -1    0    0    0  501 -0.00000000000E+00 -0.00000000000E+00 -0.45884085427E+03  0.45884085428E+03  0.25500000000E-02 0.  1.
    8880023    1    1    2    0    0  0.47577920822E+03  0.53869564813E+02  0.14372774515E+04  0.16519214461E+04  0.65864270000E+03 0. -1.
    8880022    1    1    2    0    0 -0.47577920822E+03 -0.53869564813E+02 -0.17182761645E+03  0.53121009758E+03  0.15294330000E+03 0.  0.
<mgrwt>
<rscale>  0 0.72177805E+03</rscale>
<asrwt>0</asrwt>
<pdfrwt beam="1">  1        2 0.26527549E+00 0.81429601E+03</pdfrwt>
<pdfrwt beam="2">  1       -2 0.70590901E-01 0.81429601E+03</pdfrwt>
<totfact> 0.17698524E+01</totfact>
</mgrwt>
</event>
<event>
 4    2  0.2930016E-007  0.1107270E+04  0.7818608E-02  0.9253004E-01
          2   -1    0    0  501    0  0.00000000000E+00  0.00000000000E+00  0.36747978228E+04  0.36747978228E+04  0.25500000000E-02 0. -1.
         -2   -1    0    0    0  501 -0.00000000000E+00 -0.00000000000E+00 -0.45136224049E+03  0.45136224050E+03  0.25500000000E-02 0.  1.
    8880023    1    1    2    0    0 -0.30534765483E+03 -0.83606223431E+03  0.42572226592E+03  0.11862912391E+04  0.65864270000E+03 0.  0.
    8880022    1    1    2    0    0  0.30534765483E+03  0.83606223431E+03  0.27977133164E+04  0.29398688242E+04  0.15294330000E+03 0.  0.
<mgrwt>
<rscale>  0 0.10522691E+04</rscale>
<asrwt>0</asrwt>
<pdfrwt beam="1">  1        2 0.56535351E+00 0.11072703E+04</pdfrwt>
<pdfrwt beam="2">  1       -2 0.69440345E-01 0.11072703E+04</pdfrwt>
<totfact> 0.11795353E+00</totfact>
</mgrwt>
</event>
<event>
 4    2  0.2930016E-007  0.1292319E+04  0.7818608E-02  0.9072222E-01
          2   -1    0    0  501    0  0.00000000000E+00  0.00000000000E+00  0.21304603855E+04  0.21304603855E+04  0.25500000000E-02 0. -1.
         -2   -1    0    0    0  501 -0.00000000000E+00 -0.00000000000E+00 -0.84275864870E+03  0.84275864871E+03  0.25500000000E-02 0.  1.
    8880023    1    1    2    0    0 -0.86259953960E+03  0.70156922495E+03  0.13241739890E+04  0.18502768178E+04  0.65864270000E+03 0. -1.
    8880022    1    1    2    0    0  0.86259953960E+03 -0.70156922495E+03 -0.36472252227E+02  0.11229422164E+04  0.15294330000E+03 0.  0.
<mgrwt>
<rscale>  0 0.12475538E+04</rscale>
<asrwt>0</asrwt>
<pdfrwt beam="1">  1        2 0.32776313E+00 0.12923187E+04</pdfrwt>
<pdfrwt beam="2">  1       -2 0.12965518E+00 0.12923187E+04</pdfrwt>
<totfact> 0.23873848E+00</totfact>
</mgrwt>
</event>
<event>
 4    2  0.2930016E-007  0.7468005E+03  0.7818608E-02  0.9840563E-01
          2   -1    0    0  501    0  0.00000000000E+00  0.00000000000E+00  0.46673096807E+03  0.46673096808E+03  0.25500000000E-02 0. -1.
         -2   -1    0    0    0  501 -0.00000000000E+00 -0.00000000000E+00 -0.81797556025E+03  0.81797556025E+03  0.25500000000E-02 0.  1.
    8880023    1    1    2    0    0 -0.93737724827E+02  0.33928446725E+03  0.25051632072E+02  0.74722051719E+03  0.65864270000E+03 0. -1.
    8880022    1    1    2    0    0  0.93737724827E+02 -0.33928446725E+03 -0.37629622425E+03  0.53748601114E+03  0.15294330000E+03 0.  0.
<mgrwt>
<rscale>  0 0.63230404E+03</rscale>
<asrwt>0</asrwt>
<pdfrwt beam="1">  1        2 0.71804764E-01 0.74680045E+03</pdfrwt>
<pdfrwt beam="2">  1       -2 0.12584239E+00 0.74680045E+03</pdfrwt>
<totfact> 0.31831088E+01</totfact>
</mgrwt>
</event>
<event>
 4    2  0.2930016E-007  0.7966605E+03  0.7818608E-02  0.9718064E-01
         -2   -1    0    0    0  501 -0.00000000000E+00  0.00000000000E+00  0.57075808459E+03  0.57075808459E+03  0.25500000000E-02 0.  1.
          2   -1    0    0  501    0  0.00000000000E+00 -0.00000000000E+00 -0.74878340234E+03  0.74878340235E+03  0.25500000000E-02 0. -1.
    8880023    1    1    2    0    0 -0.33866722357E+03 -0.29353409862E+03 -0.26193167700E+03  0.83861562414E+03  0.65864270000E+03 0. -1.
    8880022    1    1    2    0    0  0.33866722357E+03  0.29353409862E+03  0.83906359244E+02  0.48092586280E+03  0.15294330000E+03 0.  1.
<mgrwt>
<rscale>  0 0.69951395E+03</rscale>
<asrwt>0</asrwt>
<pdfrwt beam="1">  1        2 0.11519745E+00 0.79666051E+03</pdfrwt>
<pdfrwt beam="2">  1       -2 0.87808936E-01 0.79666051E+03</pdfrwt>
<totfact> 0.42443762E+01</totfact>
</mgrwt>
</event>
<event>
 4    2  0.2930016E-007  0.6675895E+03  0.7818608E-02  0.1017453E+00
          2   -1    0    0  501    0  0.00000000000E+00  0.00000000000E+00  0.10463097371E+04  0.10463097371E+04  0.25500000000E-02 0. -1.
         -2   -1    0    0    0  501 -0.00000000000E+00 -0.00000000000E+00 -0.17536853604E+03  0.17536853606E+03  0.25500000000E-02 0.  1.
    8880023    1    1    2    0    0 -0.10867216393E+03 -0.74753017115E+01  0.70743736642E+03  0.97269900433E+03  0.65864270000E+03 0.  1.
    8880022    1    1    2    0    0  0.10867216393E+03  0.74753017115E+01  0.16350383464E+03  0.24897926883E+03  0.15294330000E+03 0.  0.
<mgrwt>
<rscale>  0 0.48616988E+03</rscale>
<asrwt>0</asrwt>
<pdfrwt beam="1">  1        2 0.16097073E+00 0.66758949E+03</pdfrwt>
<pdfrwt beam="2">  1       -2 0.26979775E-01 0.66758949E+03</pdfrwt>
<totfact> 0.29735959E+02</totfact>
</mgrwt>
</event>
<event>
 4    2  0.2930016E-007  0.7048319E+03  0.7818608E-02  0.9977717E-01
         -2   -1    0    0    0  501 -0.00000000000E+00  0.00000000000E+00  0.50024091687E+03  0.50024091688E+03  0.25500000000E-02 0.  1.
          2   -1    0    0  501    0  0.00000000000E+00 -0.00000000000E+00 -0.62449172454E+03  0.62449172454E+03  0.25500000000E-02 0. -1.
    8880023    1    1    2    0    0  0.16238830017E+03  0.19133185588E+03 -0.31745765115E+03  0.77302484155E+03  0.65864270000E+03 0.  0.
    8880022    1    1    2    0    0 -0.16238830017E+03 -0.19133185588E+03  0.19320684349E+03  0.35170779988E+03  0.15294330000E+03 0.  0.
<mgrwt>
<rscale>  0 0.56638171E+03</rscale>
<asrwt>0</asrwt>
<pdfrwt beam="1">  1        2 0.96075650E-01 0.70483193E+03</pdfrwt>
<pdfrwt beam="2">  1       -2 0.76960141E-01 0.70483193E+03</pdfrwt>
<totfact> 0.72293883E+01</totfact>
</mgrwt>
</event>
<event>
 4    2  0.2930016E-007  0.6905340E+03  0.7818608E-02  0.1003900E+00
          2   -1    0    0  501    0  0.00000000000E+00  0.00000000000E+00  0.49150734797E+03  0.49150734798E+03  0.25500000000E-02 0. -1.
         -2   -1    0    0    0  501 -0.00000000000E+00 -0.00000000000E+00 -0.15765457597E+04  0.15765457597E+04  0.25500000000E-02 0.  1.
    8880023    1    1    2    0    0 -0.17234117133E+03 -0.11543594616E+03  0.23013003661E+03  0.72787153881E+03  0.65864270000E+03 0. -1.
    8880022    1    1    2    0    0  0.17234117133E+03  0.11543594616E+03 -0.13151684484E+04  0.13401815689E+04  0.15294330000E+03 0.  0.
<mgrwt>
<rscale>  0 0.53972805E+03</rscale>
<asrwt>0</asrwt>
<pdfrwt beam="1">  1        2 0.75616516E-01 0.69053396E+03</pdfrwt>
<pdfrwt beam="2">  1       -2 0.24254550E+00 0.69053396E+03</pdfrwt>
<totfact> 0.46479530E+00</totfact>
</mgrwt>
</event>
<event>
 4    2  0.2930016E-007  0.8194996E+03  0.7818608E-02  0.9670119E-01
          2   -1    0    0  501    0  0.00000000000E+00  0.00000000000E+00  0.11677402553E+04  0.11677402553E+04  0.25500000000E-02 0. -1.
         -2   -1    0    0    0  501 -0.00000000000E+00 -0.00000000000E+00 -0.56707513162E+03  0.56707513163E+03  0.25500000000E-02 0.  1.
    8880023    1    1    2    0    0  0.44879289724E+03 -0.19066790191E+03  0.83734106809E+03  0.11716311638E+04  0.65864270000E+03 0.  0.
    8880022    1    1    2    0    0 -0.44879289724E+03  0.19066790191E+03 -0.23667594445E+03  0.56318422308E+03  0.15294330000E+03 0.  0.
<mgrwt>
<rscale>  0 0.72824091E+03</rscale>
<asrwt>0</asrwt>
<pdfrwt beam="1">  1        2 0.17965235E+00 0.81949955E+03</pdfrwt>
<pdfrwt beam="2">  1       -2 0.87242328E-01 0.81949955E+03</pdfrwt>
<totfact> 0.22738169E+01</totfact>
</mgrwt>
</event>
<event>
 4    2  0.2930016E-007  0.6615680E+03  0.7818608E-02  0.1022605E+00
         -2   -1    0    0    0  501 -0.00000000000E+00  0.00000000000E+00  0.36368007460E+03  0.36368007461E+03  0.25500000000E-02 0.  1.
          2   -1    0    0  501    0  0.00000000000E+00 -0.00000000000E+00 -0.95202545999E+03  0.95202545999E+03  0.25500000000E-02 0. -1.
    8880023    1    1    2    0    0  0.16779089064E+02  0.59836734331E+02 -0.80586309405E+03  0.10426348859E+04  0.65864270000E+03 0. -1.
    8880022    1    1    2    0    0 -0.16779089064E+02 -0.59836734331E+02  0.21751770866E+03  0.27307064873E+03  0.15294330000E+03 0.  0.
<mgrwt>
<rscale>  0 0.46758319E+03</rscale>
<asrwt>0</asrwt>
<pdfrwt beam="1">  1        2 0.14646545E+00 0.66156797E+03</pdfrwt>
<pdfrwt beam="2">  1       -2 0.55950781E-01 0.66156797E+03</pdfrwt>
<totfact> 0.82906307E+01</totfact>
</mgrwt>
</event>
<event>
 4    2  0.2930016E-007  0.7001708E+03  0.7818608E-02  0.9996493E-01
         -2   -1    0    0    0  501 -0.00000000000E+00  0.00000000000E+00  0.29795318441E+03  0.29795318442E+03  0.25500000000E-02 0.  1.
          2   -1    0    0  501    0  0.00000000000E+00 -0.00000000000E+00 -0.11571660371E+04  0.11571660372E+04  0.25500000000E-02 0. -1.
    8880023    1    1    2    0    0 -0.50248247648E+00  0.23754729339E+03 -0.92976610411E+03  0.11639176018E+04  0.65864270000E+03 0. -1.
    8880022    1    1    2    0    0  0.50248247648E+00 -0.23754729339E+03  0.70553251366E+02  0.29120161981E+03  0.15294330000E+03 0.  0.
<mgrwt>
<rscale>  0 0.55804265E+03</rscale>
<asrwt>0</asrwt>
<pdfrwt beam="1">  1        2 0.17802554E+00 0.70017082E+03</pdfrwt>
<pdfrwt beam="2">  1       -2 0.45838952E-01 0.70017082E+03</pdfrwt>
<totfact> 0.92463578E+01</totfact>
</mgrwt>
</event>
<event>
 4    2  0.2930016E-007  0.8538196E+03  0.7818608E-02  0.9604653E-01
          2   -1    0    0  501    0  0.00000000000E+00  0.00000000000E+00  0.16564813647E+04  0.16564813647E+04  0.25500000000E-02 0. -1.
         -2   -1    0    0    0  501 -0.00000000000E+00 -0.00000000000E+00 -0.67406061956E+03  0.67406061956E+03  0.25500000000E-02 0.  1.
    8880023    1    1    2    0    0 -0.20262610040E+03  0.50412334372E+03  0.13921133372E+04  0.16330913729E+04  0.65864270000E+03 0.  0.
    8880022    1    1    2    0    0  0.20262610040E+03 -0.50412334372E+03 -0.40969259210E+03  0.69745061136E+03  0.15294330000E+03 0.  0.
<mgrwt>
<rscale>  0 0.76988966E+03</rscale>
<asrwt>0</asrwt>
<pdfrwt beam="1">  1        2 0.25484328E+00 0.85381959E+03</pdfrwt>
<pdfrwt beam="2">  1       -2 0.10370164E+00 0.85381959E+03</pdfrwt>
<totfact> 0.79602201E+00</totfact>
</mgrwt>
</event>
<event>
 4    2  0.2930016E-007  0.9889538E+03  0.7818608E-02  0.9396154E-01
         -2   -1    0    0    0  501 -0.00000000000E+00  0.00000000000E+00  0.10513180062E+04  0.10513180062E+04  0.25500000000E-02 0.  1.
          2   -1    0    0  501    0  0.00000000000E+00 -0.00000000000E+00 -0.10872217398E+04  0.10872217398E+04  0.25500000000E-02 0. -1.
    8880023    1    1    2    0    0  0.72112713530E+03 -0.15554755009E+03 -0.63560954278E+03  0.11755973302E+04  0.65864270000E+03 0.  0.
    8880022    1    1    2    0    0 -0.72112713530E+03  0.15554755009E+03  0.59970580922E+03  0.96294241584E+03  0.15294330000E+03 0.  0.
<mgrwt>
<rscale>  0 0.92392848E+03</rscale>
<asrwt>0</asrwt>
<pdfrwt beam="1">  1        2 0.16726488E+00 0.98895379E+03</pdfrwt>
<pdfrwt beam="2">  1       -2 0.16174123E+00 0.98895379E+03</pdfrwt>
<totfact> 0.53837015E+00</totfact>
</mgrwt>
</event>
<event>
 4    2  0.2930016E-007  0.1066854E+04  0.7818608E-02  0.9298889E-01
          2   -1    0    0  501    0  0.00000000000E+00  0.00000000000E+00  0.87444466449E+03  0.87444466449E+03  0.25500000000E-02 0. -1.
         -2   -1    0    0    0  501 -0.00000000000E+00 -0.00000000000E+00 -0.23467986909E+04  0.23467986909E+04  0.25500000000E-02 0.  1.
    8880023    1    1    2    0    0  0.18308694141E+03 -0.81905252014E+03  0.41916780456E+03  0.11462459219E+04  0.65864270000E+03 0.  0.
    8880022    1    1    2    0    0 -0.18308694141E+03  0.81905252014E+03 -0.18915218309E+04  0.20749974334E+04  0.15294330000E+03 0.  0.
<mgrwt>
<rscale>  0 0.10088517E+04</rscale>
<asrwt>0</asrwt>
<pdfrwt beam="1">  1        2 0.13452995E+00 0.10668543E+04</pdfrwt>
<pdfrwt beam="2">  1       -2 0.36104595E+00 0.10668543E+04</pdfrwt>
<totfact> 0.40546193E-01</totfact>
</mgrwt>
</event>
<event>
 4    2  0.2930016E-007  0.1388155E+04  0.7818608E-02  0.8992942E-01
          2   -1    0    0  501    0  0.00000000000E+00  0.00000000000E+00  0.40417571535E+04  0.40417571535E+04  0.25500000000E-02 0. -1.
         -2   -1    0    0    0  501 -0.00000000000E+00 -0.00000000000E+00 -0.73757187811E+03  0.73757187812E+03  0.25500000000E-02 0.  1.
    8880023    1    1    2    0    0 -0.32102525545E+03 -0.11790280714E+04  0.32642975391E+04  0.35471979135E+04  0.65864270000E+03 0. -1.
    8880022    1    1    2    0    0  0.32102525545E+03  0.11790280714E+04  0.39887736301E+02  0.12321311181E+04  0.15294330000E+03 0.  0.
<mgrwt>
<rscale>  0 0.13472116E+04</rscale>
<asrwt>0</asrwt>
<pdfrwt beam="1">  1        2 0.62180878E+00 0.13881551E+04</pdfrwt>
<pdfrwt beam="2">  1       -2 0.11347260E+00 0.13881551E+04</pdfrwt>
<totfact> 0.18950721E-01</totfact>
</mgrwt>
</event>
<event>
 4    2  0.2930016E-007  0.8914415E+03  0.7818608E-02  0.9539913E-01
         -2   -1    0    0    0  501 -0.00000000000E+00  0.00000000000E+00  0.50126294405E+03  0.50126294405E+03  0.25500000000E-02 0.  1.
          2   -1    0    0  501    0  0.00000000000E+00 -0.00000000000E+00 -0.21435460532E+04  0.21435460532E+04  0.25500000000E-02 0. -1.
    8880023    1    1    2    0    0  0.46440739433E+03 -0.38102949029E+03 -0.17969593751E+04  0.20059239523E+04  0.65864270000E+03 0.  0.
    8880022    1    1    2    0    0 -0.46440739433E+03  0.38102949029E+03  0.15467626596E+03  0.63888504494E+03  0.15294330000E+03 0.  0.
<mgrwt>
<rscale>  0 0.81404098E+03</rscale>
<asrwt>0</asrwt>
<pdfrwt beam="1">  1        2 0.32977631E+00 0.89144148E+03</pdfrwt>
<pdfrwt beam="2">  1       -2 0.77117377E-01 0.89144148E+03</pdfrwt>
<totfact> 0.84879922E+00</totfact>
</mgrwt>
</event>
<event>
 4    2  0.2930016E-007  0.1379560E+04  0.7818608E-02  0.8999730E-01
         -2   -1    0    0    0  501 -0.00000000000E+00  0.00000000000E+00  0.12615106135E+04  0.12615106135E+04  0.25500000000E-02 0.  1.
          2   -1    0    0  501    0  0.00000000000E+00 -0.00000000000E+00 -0.16485005449E+04  0.16485005449E+04  0.25500000000E-02 0. -1.
    8880023    1    1    2    0    0  0.11760783805E+04 -0.29362590928E+03 -0.83045514501E+03  0.16102305691E+04  0.65864270000E+03 0. -1.
    8880022    1    1    2    0    0 -0.11760783805E+04  0.29362590928E+03  0.44346521354E+03  0.12997805893E+04  0.15294330000E+03 0.  0.
<mgrwt>
<rscale>  0 0.13383034E+04</rscale>
<asrwt>0</asrwt>
<pdfrwt beam="1">  1        2 0.25361547E+00 0.13795603E+04</pdfrwt>
<pdfrwt beam="2">  1       -2 0.19407855E+00 0.13795603E+04</pdfrwt>
<totfact> 0.14520409E+00</totfact>
</mgrwt>
</event>
<event>
 4    2  0.2930016E-007  0.6668631E+03  0.7818608E-02  0.1018019E+00
         -2   -1    0    0    0  501 -0.00000000000E+00  0.00000000000E+00  0.10248167374E+04  0.10248167374E+04  0.25500000000E-02 0.  1.
          2   -1    0    0  501    0  0.00000000000E+00 -0.00000000000E+00 -0.43646514120E+03  0.43646514121E+03  0.25500000000E-02 0. -1.
    8880023    1    1    2    0    0  0.80157435962E+02  0.66865478365E+02 -0.16378922256E+03  0.68668283976E+03  0.65864270000E+03 0. -1.
    8880022    1    1    2    0    0 -0.80157435962E+02 -0.66865478365E+02  0.75214081879E+03  0.77459903889E+03  0.15294330000E+03 0.  0.
<mgrwt>
<rscale>  0 0.48408327E+03</rscale>
<asrwt>0</asrwt>
<pdfrwt beam="1">  1        2 0.67148484E-01 0.66686311E+03</pdfrwt>
<pdfrwt beam="2">  1       -2 0.15766411E+00 0.66686311E+03</pdfrwt>
<totfact> 0.19286726E+01</totfact>
</mgrwt>
</event>
<event>
 4    2  0.2930016E-007  0.9110528E+03  0.7818608E-02  0.9508516E-01
         -2   -1    0    0    0  501 -0.00000000000E+00  0.00000000000E+00  0.60781358136E+03  0.60781358137E+03  0.25500000000E-02 0.  1.
          2   -1    0    0  501    0  0.00000000000E+00 -0.00000000000E+00 -0.13811467421E+04  0.13811467421E+04  0.25500000000E-02 0. -1.
    8880023    1    1    2    0    0 -0.68425935801E+02 -0.62571950105E+03 -0.95130363459E+03  0.13171923983E+04  0.65864270000E+03 0.  0.
    8880022    1    1    2    0    0  0.68425935801E+02  0.62571950105E+03  0.17797047387E+03  0.67176792516E+03  0.15294330000E+03 0.  0.
<mgrwt>
<rscale>  0 0.83658856E+03</rscale>
<asrwt>0</asrwt>
<pdfrwt beam="1">  1        2 0.21248411E+00 0.91105280E+03</pdfrwt>
<pdfrwt beam="2">  1       -2 0.93509782E-01 0.91105280E+03</pdfrwt>
<totfact> 0.14403201E+01</totfact>
</mgrwt>
</event>
<event>
 4    2  0.2930016E-007  0.1231860E+04  0.7818608E-02  0.9126758E-01
          2   -1    0    0  501    0  0.00000000000E+00  0.00000000000E+00  0.22753977487E+04  0.22753977487E+04  0.25500000000E-02 0. -1.
         -2   -1    0    0    0  501 -0.00000000000E+00 -0.00000000000E+00 -0.91182957538E+03  0.91182957539E+03  0.25500000000E-02 0.  1.
    8880023    1    1    2    0    0 -0.42185906533E+03  0.95168444102E+03  0.16848030934E+04  0.20871128422E+04  0.65864270000E+03 0.  0.
    8880022    1    1    2    0    0  0.42185906533E+03 -0.95168444102E+03 -0.32123492011E+03  0.11001144819E+04  0.15294330000E+03 0.  0.
<mgrwt>
<rscale>  0 0.11842472E+04</rscale>
<asrwt>0</asrwt>
<pdfrwt beam="1">  1        2 0.35006119E+00 0.12318598E+04</pdfrwt>
<pdfrwt beam="2">  1       -2 0.14028147E+00 0.12318598E+04</pdfrwt>
<totfact> 0.16268168E+00</totfact>
</mgrwt>
</event>
<event>
 4    2  0.2930016E-007  0.7051225E+03  0.7818608E-02  0.9976580E-01
          2   -1    0    0  501    0  0.00000000000E+00  0.00000000000E+00  0.14310805980E+04  0.14310805980E+04  0.25500000000E-02 0. -1.
         -2   -1    0    0    0  501 -0.00000000000E+00 -0.00000000000E+00 -0.22610952765E+03  0.22610952767E+03  0.25500000000E-02 0.  1.
    8880023    1    1    2    0    0 -0.19994277894E+03 -0.15300440662E+03  0.11623982941E+04  0.13595467861E+04  0.65864270000E+03 0. -1.
    8880022    1    1    2    0    0  0.19994277894E+03  0.15300440662E+03  0.42572776278E+02  0.29764333957E+03  0.15294330000E+03 0.  0.
<mgrwt>
<rscale>  0 0.56689198E+03</rscale>
<asrwt>0</asrwt>
<pdfrwt beam="1">  1        2 0.22016624E+00 0.70512245E+03</pdfrwt>
<pdfrwt beam="2">  1       -2 0.34786082E-01 0.70512245E+03</pdfrwt>
<totfact> 0.10992413E+02</totfact>
</mgrwt>
</event>
<event>
 4    2  0.2930016E-007  0.7999222E+03  0.7818608E-02  0.9710964E-01
         -2   -1    0    0    0  501 -0.00000000000E+00  0.00000000000E+00  0.60148910257E+03  0.60148910258E+03  0.25500000000E-02 0.  1.
          2   -1    0    0  501    0  0.00000000000E+00 -0.00000000000E+00 -0.21577700233E+04  0.21577700233E+04  0.25500000000E-02 0. -1.
    8880023    1    1    2    0    0 -0.41639677291E+03  0.18077355810E+03 -0.19700643587E+04  0.21262711811E+04  0.65864270000E+03 0. -1.
    8880022    1    1    2    0    0  0.41639677291E+03 -0.18077355810E+03  0.41378343793E+03  0.63298794484E+03  0.15294330000E+03 0.  0.
<mgrwt>
<rscale>  0 0.70367721E+03</rscale>
<asrwt>0</asrwt>
<pdfrwt beam="1">  1        2 0.33196462E+00 0.79992222E+03</pdfrwt>
<pdfrwt beam="2">  1       -2 0.92536786E-01 0.79992222E+03</pdfrwt>
<totfact> 0.55752633E+00</totfact>
</mgrwt>
</event>
<event>
 4    2  0.2930016E-007  0.7690483E+03  0.7818608E-02  0.9782222E-01
          2   -1    0    0  501    0  0.00000000000E+00  0.00000000000E+00  0.30267929859E+04  0.30267929859E+04  0.25500000000E-02 0. -1.
         -2   -1    0    0    0  501 -0.00000000000E+00 -0.00000000000E+00 -0.42388661554E+03  0.42388661555E+03  0.25500000000E-02 0.  1.
    8880023    1    1    2    0    0 -0.25052111969E+03  0.30800033585E+03  0.28545772110E+04  0.29563569301E+04  0.65864270000E+03 0. -1.
    8880022    1    1    2    0    0  0.25052111969E+03 -0.30800033585E+03 -0.25167084069E+03  0.49432267131E+03  0.15294330000E+03 0.  0.
<mgrwt>
<rscale>  0 0.66325423E+03</rscale>
<asrwt>0</asrwt>
<pdfrwt beam="1">  1        2 0.46566044E+00 0.76904827E+03</pdfrwt>
<pdfrwt beam="2">  1       -2 0.65213328E-01 0.76904827E+03</pdfrwt>
<totfact> 0.38617884E+00</totfact>
</mgrwt>
</event>
<event>
 4    2  0.2930016E-007  0.1164499E+04  0.7818608E-02  0.9192428E-01
         -2   -1    0    0    0  501 -0.00000000000E+00  0.00000000000E+00  0.11311485831E+04  0.11311485831E+04  0.25500000000E-02 0.  1.
          2   -1    0    0  501    0  0.00000000000E+00 -0.00000000000E+00 -0.18220899210E+04  0.18220899210E+04  0.25500000000E-02 0. -1.
    8880023    1    1    2    0    0  0.73376977840E+03 -0.61954058256E+03 -0.13466996078E+04  0.17803535213E+04  0.65864270000E+03 0. -1.
    8880022    1    1    2    0    0 -0.73376977840E+03  0.61954058256E+03  0.65575826991E+03  0.11728849827E+04  0.15294330000E+03 0.  0.
<mgrwt>
<rscale>  0 0.11131923E+04</rscale>
<asrwt>0</asrwt>
<pdfrwt beam="1">  1        2 0.28032153E+00 0.11644994E+04</pdfrwt>
<pdfrwt beam="2">  1       -2 0.17402286E+00 0.11644994E+04</pdfrwt>
<totfact> 0.16327085E+00</totfact>
</mgrwt>
</event>
<event>
 4    2  0.2930016E-007  0.6897618E+03  0.7818608E-02  0.1004266E+00
          2   -1    0    0  501    0  0.00000000000E+00  0.00000000000E+00  0.22283030146E+04  0.22283030146E+04  0.25500000000E-02 0. -1.
         -2   -1    0    0    0  501 -0.00000000000E+00 -0.00000000000E+00 -0.31383507231E+03  0.31383507232E+03  0.25500000000E-02 0.  1.
    8880023    1    1    2    0    0 -0.19844591770E+03  0.50797282764E+02  0.21102631142E+04  0.22201310240E+04  0.65864270000E+03 0. -1.
    8880022    1    1    2    0    0  0.19844591770E+03 -0.50797282764E+02 -0.19579517195E+03  0.32200706290E+03  0.15294330000E+03 0.  0.
<mgrwt>
<rscale>  0 0.53818598E+03</rscale>
<asrwt>0</asrwt>
<pdfrwt beam="1">  1        2 0.34281584E+00 0.68976181E+03</pdfrwt>
<pdfrwt beam="2">  1       -2 0.48282319E-01 0.68976181E+03</pdfrwt>
<totfact> 0.21206355E+01</totfact>
</mgrwt>
</event>
<event>
 4    2  0.2930016E-007  0.7600794E+03  0.7818608E-02  0.9804902E-01
          2   -1    0    0  501    0  0.00000000000E+00  0.00000000000E+00  0.53380374780E+03  0.53380374780E+03  0.25500000000E-02 0. -1.
         -2   -1    0    0    0  501 -0.00000000000E+00 -0.00000000000E+00 -0.11662445218E+04  0.11662445218E+04  0.25500000000E-02 0.  1.
    8880023    1    1    2    0    0 -0.35732927027E+03  0.12738252169E+03  0.18827895267E+03  0.78305152098E+03  0.65864270000E+03 0. -1.
    8880022    1    1    2    0    0  0.35732927027E+03 -0.12738252169E+03 -0.82071972662E+03  0.91699674858E+03  0.15294330000E+03 0.  0.
<mgrwt>
<rscale>  0 0.65100140E+03</rscale>
<asrwt>0</asrwt>
<pdfrwt beam="1">  1        2 0.82123654E-01 0.76007942E+03</pdfrwt>
<pdfrwt beam="2">  1       -2 0.17942223E+00 0.76007942E+03</pdfrwt>
<totfact> 0.10601336E+01</totfact>
</mgrwt>
</event>
<event>
 4    2  0.2930016E-007  0.8069158E+03  0.7818608E-02  0.9696037E-01
          2   -1    0    0  501    0  0.00000000000E+00  0.00000000000E+00  0.11223974809E+04  0.11223974809E+04  0.25500000000E-02 0. -1.
         -2   -1    0    0    0  501 -0.00000000000E+00 -0.00000000000E+00 -0.37512783344E+03  0.37512783345E+03  0.25500000000E-02 0.  1.
    8880023    1    1    2    0    0 -0.43248212412E+03  0.17396011481E+03  0.45090629619E+03  0.92435361385E+03  0.65864270000E+03 0.  1.
    8880022    1    1    2    0    0  0.43248212412E+03 -0.17396011481E+03  0.29636335122E+03  0.57317170045E+03  0.15294330000E+03 0. -1.
<mgrwt>
<rscale>  0 0.71253213E+03</rscale>
<asrwt>0</asrwt>
<pdfrwt beam="1">  1        2 0.17267653E+00 0.80691580E+03</pdfrwt>
<pdfrwt beam="2">  1       -2 0.57711975E-01 0.80691580E+03</pdfrwt>
<totfact> 0.60011381E+01</totfact>
</mgrwt>
</event>
<event>
 4    2  0.2930016E-007  0.8147940E+03  0.7818608E-02  0.9679676E-01
          2   -1    0    0  501    0  0.00000000000E+00  0.00000000000E+00  0.20116977328E+04  0.20116977328E+04  0.25500000000E-02 0. -1.
         -2   -1    0    0    0  501 -0.00000000000E+00 -0.00000000000E+00 -0.23678031964E+03  0.23678031966E+03  0.25500000000E-02 0.  1.
    8880023    1    1    2    0    0  0.39362699525E+03  0.27411110871E+03  0.14033994293E+04  0.16227813395E+04  0.65864270000E+03 0. -1.
    8880022    1    1    2    0    0 -0.39362699525E+03 -0.27411110871E+03  0.37151798384E+03  0.62569671298E+03  0.15294330000E+03 0.  0.
<mgrwt>
<rscale>  0 0.72239855E+03</rscale>
<asrwt>0</asrwt>
<pdfrwt beam="1">  1        2 0.30949196E+00 0.81479403E+03</pdfrwt>
<pdfrwt beam="2">  1       -2 0.36427741E-01 0.81479403E+03</pdfrwt>
<totfact> 0.47747738E+01</totfact>
</mgrwt>
</event>
<event>
 4    2  0.2930016E-007  0.7036432E+03  0.7818608E-02  0.9982410E-01
         -2   -1    0    0    0  501 -0.00000000000E+00  0.00000000000E+00  0.22845255508E+03  0.22845255510E+03  0.25500000000E-02 0.  1.
          2   -1    0    0  501    0  0.00000000000E+00 -0.00000000000E+00 -0.27438414037E+04  0.27438414037E+04  0.25500000000E-02 0. -1.
    8880023    1    1    2    0    0  0.12679071868E+03 -0.21266812161E+03 -0.25799593829E+04  0.26741922593E+04  0.65864270000E+03 0. -1.
    8880022    1    1    2    0    0 -0.12679071868E+03  0.21266812161E+03  0.64570534296E+02  0.29810169944E+03  0.15294330000E+03 0.  0.
<mgrwt>
<rscale>  0 0.56428277E+03</rscale>
<asrwt>0</asrwt>
<pdfrwt beam="1">  1        2 0.42212942E+00 0.70364325E+03</pdfrwt>
<pdfrwt beam="2">  1       -2 0.35146549E-01 0.70364325E+03</pdfrwt>
<totfact> 0.20138052E+01</totfact>
</mgrwt>
</event>
<event>
 4    2  0.2930016E-007  0.8362771E+03  0.7818608E-02  0.9637240E-01
          2   -1    0    0  501    0  0.00000000000E+00  0.00000000000E+00  0.24427840791E+04  0.24427840791E+04  0.25500000000E-02 0. -1.
         -2   -1    0    0    0  501 -0.00000000000E+00 -0.00000000000E+00 -0.22254090872E+03  0.22254090874E+03  0.25500000000E-02 0.  1.
    8880023    1    1    2    0    0 -0.35106167655E+03 -0.37723317250E+03  0.17938679829E+04  0.19792225023E+04  0.65864270000E+03 0. -1.
    8880022    1    1    2    0    0  0.35106167655E+03  0.37723317250E+03  0.42637518744E+03  0.68610248553E+03  0.15294330000E+03 0.  0.
<mgrwt>
<rscale>  0 0.74879643E+03</rscale>
<asrwt>0</asrwt>
<pdfrwt beam="1">  1        2 0.37581294E+00 0.83627709E+03</pdfrwt>
<pdfrwt beam="2">  1       -2 0.34237063E-01 0.83627709E+03</pdfrwt>
<totfact> 0.30913008E+01</totfact>
</mgrwt>
</event>
<event>
 4    2  0.2930016E-007  0.1060450E+04  0.7818608E-02  0.9306423E-01
          2   -1    0    0  501    0  0.00000000000E+00  0.00000000000E+00  0.15344394215E+04  0.15344394215E+04  0.25500000000E-02 0. -1.
         -2   -1    0    0    0  501 -0.00000000000E+00 -0.00000000000E+00 -0.13174670811E+04  0.13174670811E+04  0.25500000000E-02 0.  1.
    8880023    1    1    2    0    0  0.70058061441E+02  0.82815213110E+03 -0.94141437505E+03  0.14180321985E+04  0.65864270000E+03 0.  1.
    8880022    1    1    2    0    0 -0.70058061441E+02 -0.82815213110E+03  0.11583867155E+04  0.14338743041E+04  0.15294330000E+03 0.  0.
<mgrwt>
<rscale>  0 0.10019366E+04</rscale>
<asrwt>0</asrwt>
<pdfrwt beam="1">  1        2 0.23606760E+00 0.10604500E+04</pdfrwt>
<pdfrwt beam="2">  1       -2 0.20268724E+00 0.10604500E+04</pdfrwt>
<totfact> 0.15288279E+00</totfact>
</mgrwt>
</event>
<event>
 4    2  0.2930016E-007  0.6714664E+03  0.7818608E-02  0.1014633E+00
          2   -1    0    0  501    0  0.00000000000E+00  0.00000000000E+00  0.20476984856E+04  0.20476984856E+04  0.25500000000E-02 0. -1.
         -2   -1    0    0    0  501 -0.00000000000E+00 -0.00000000000E+00 -0.24749313842E+03  0.24749313844E+03  0.25500000000E-02 0.  1.
    8880023    1    1    2    0    0 -0.59910514007E+01 -0.13046460121E+03  0.19382449210E+04  0.20512582687E+04  0.65864270000E+03 0. -1.
    8880022    1    1    2    0    0  0.59910514007E+01  0.13046460121E+03 -0.13803957385E+03  0.24393335531E+03  0.15294330000E+03 0.  0.
<mgrwt>
<rscale>  0 0.49674224E+03</rscale>
<asrwt>0</asrwt>
<pdfrwt beam="1">  1        2 0.31503053E+00 0.67146639E+03</pdfrwt>
<pdfrwt beam="2">  1       -2 0.38075868E-01 0.67146639E+03</pdfrwt>
<totfact> 0.42662746E+01</totfact>
</mgrwt>
</event>
<event>
 4    2  0.2930016E-007  0.1024880E+04  0.7818608E-02  0.9349707E-01
         -2   -1    0    0    0  501 -0.00000000000E+00  0.00000000000E+00  0.19809985003E+04  0.19809985003E+04  0.25500000000E-02 0.  1.
          2   -1    0    0  501    0  0.00000000000E+00 -0.00000000000E+00 -0.12434854241E+04  0.12434854241E+04  0.25500000000E-02 0. -1.
    8880023    1    1    2    0    0 -0.81268760295E+02  0.78100262876E+03 -0.92432105801E+03  0.13801265674E+04  0.65864270000E+03 0. -1.
    8880022    1    1    2    0    0  0.81268760295E+02 -0.78100262876E+03  0.16618341342E+04  0.18443573570E+04  0.15294330000E+03 0.  0.
<mgrwt>
<rscale>  0 0.96332787E+03</rscale>
<asrwt>0</asrwt>
<pdfrwt beam="1">  1        2 0.19130545E+00 0.10248804E+04</pdfrwt>
<pdfrwt beam="2">  1       -2 0.30476900E+00 0.10248804E+04</pdfrwt>
<totfact> 0.53075680E-01</totfact>
</mgrwt>
</event>
<event>
 4    2  0.2930016E-007  0.6815586E+03  0.7818608E-02  0.1008455E+00
         -2   -1    0    0    0  501 -0.00000000000E+00  0.00000000000E+00  0.25332957696E+03  0.25332957697E+03  0.25500000000E-02 0.  1.
          2   -1    0    0  501    0  0.00000000000E+00 -0.00000000000E+00 -0.17749110664E+04  0.17749110664E+04  0.25500000000E-02 0. -1.
    8880023    1    1    2    0    0 -0.15236156823E+03  0.86590062090E+02 -0.16335957238E+04  0.17700726204E+04  0.65864270000E+03 0.  0.
    8880022    1    1    2    0    0  0.15236156823E+03 -0.86590062090E+02  0.11201423444E+03  0.25816802292E+03  0.15294330000E+03 0.  1.
<mgrwt>
<rscale>  0 0.52093148E+03</rscale>
<asrwt>0</asrwt>
<pdfrwt beam="1">  1        2 0.27306323E+00 0.68155858E+03</pdfrwt>
<pdfrwt beam="2">  1       -2 0.38973782E-01 0.68155858E+03</pdfrwt>
<totfact> 0.57300982E+01</totfact>
</mgrwt>
</event>
<event>
 4    2  0.2930016E-007  0.7726517E+03  0.7818608E-02  0.9773390E-01
          2   -1    0    0  501    0  0.00000000000E+00  0.00000000000E+00  0.26299709414E+04  0.26299709414E+04  0.25500000000E-02 0. -1.
         -2   -1    0    0    0  501 -0.00000000000E+00 -0.00000000000E+00 -0.71618551068E+03  0.71618551068E+03  0.25500000000E-02 0.  1.
    8880023    1    1    2    0    0  0.11849559079E+03 -0.38618554539E+03  0.25007492150E+04  0.26173913202E+04  0.65864270000E+03 0. -1.
    8880022    1    1    2    0    0 -0.11849559079E+03  0.38618554539E+03 -0.58696378423E+03  0.72876513193E+03  0.15294330000E+03 0.  0.
<mgrwt>
<rscale>  0 0.66810340E+03</rscale>
<asrwt>0</asrwt>
<pdfrwt beam="1">  1        2 0.40461092E+00 0.77265172E+03</pdfrwt>
<pdfrwt beam="2">  1       -2 0.11018239E+00 0.77265172E+03</pdfrwt>
<totfact> 0.20080107E+00</totfact>
</mgrwt>
</event>
<event>
 4    2  0.2930016E-007  0.6767470E+03  0.7818608E-02  0.1011227E+00
          2   -1    0    0  501    0  0.00000000000E+00  0.00000000000E+00  0.85453485537E+03  0.85453485537E+03  0.25500000000E-02 0. -1.
         -2   -1    0    0    0  501 -0.00000000000E+00 -0.00000000000E+00 -0.33248675773E+03  0.33248675774E+03  0.25500000000E-02 0.  1.
    8880023    1    1    2    0    0 -0.10069720533E+03 -0.11847490835E+03  0.64649195223E+03  0.93591574494E+03  0.65864270000E+03 0.  0.
    8880022    1    1    2    0    0  0.10069720533E+03  0.11847490835E+03 -0.12444385459E+03  0.25110586817E+03  0.15294330000E+03 0.  0.
<mgrwt>
<rscale>  0 0.50989877E+03</rscale>
<asrwt>0</asrwt>
<pdfrwt beam="1">  1        2 0.13146690E+00 0.67674695E+03</pdfrwt>
<pdfrwt beam="2">  1       -2 0.51151809E-01 0.67674695E+03</pdfrwt>
<totfact> 0.11576209E+02</totfact>
</mgrwt>
</event>
<event>
 4    2  0.2930016E-007  0.1956756E+04  0.7818608E-02  0.8640447E-01
         -2   -1    0    0    0  501 -0.00000000000E+00  0.00000000000E+00  0.18737458656E+04  0.18737458656E+04  0.25500000000E-02 0.  1.
          2   -1    0    0  501    0  0.00000000000E+00 -0.00000000000E+00 -0.23309115474E+04  0.23309115474E+04  0.25500000000E-02 0. -1.
    8880023    1    1    2    0    0  0.12795160552E+04  0.13258662906E+04  0.63506407401E+03  0.20572309886E+04  0.65864270000E+03 0.  0.
    8880022    1    1    2    0    0 -0.12795160552E+04 -0.13258662906E+04 -0.10922297558E+04  0.21474264244E+04  0.15294330000E+03 0.  0.
<mgrwt>
<rscale>  0 0.19292189E+04</rscale>
<asrwt>0</asrwt>
<pdfrwt beam="1">  1        2 0.35860178E+00 0.19567557E+04</pdfrwt>
<pdfrwt beam="2">  1       -2 0.28826859E+00 0.19567557E+04</pdfrwt>
<totfact> 0.14561336E-01</totfact>
</mgrwt>
</event>
<event>
 4    2  0.2930016E-007  0.7283462E+03  0.7818608E-02  0.9895295E-01
         -2   -1    0    0    0  501 -0.00000000000E+00  0.00000000000E+00  0.69299344442E+03  0.69299344443E+03  0.25500000000E-02 0.  1.
          2   -1    0    0  501    0  0.00000000000E+00 -0.00000000000E+00 -0.75917305023E+03  0.75917305023E+03  0.25500000000E-02 0. -1.
    8880023    1    1    2    0    0  0.90894593898E+02  0.29734855972E+03 -0.50996157914E+03  0.88912823127E+03  0.65864270000E+03 0. -1.
    8880022    1    1    2    0    0 -0.90894593898E+02 -0.29734855972E+03  0.44378197334E+03  0.56303826339E+03  0.15294330000E+03 0.  0.
<mgrwt>
<rscale>  0 0.60489856E+03</rscale>
<asrwt>0</asrwt>
<pdfrwt beam="1">  1        2 0.11679585E+00 0.72834621E+03</pdfrwt>
<pdfrwt beam="2">  1       -2 0.10661438E+00 0.72834621E+03</pdfrwt>
<totfact> 0.26572134E+01</totfact>
</mgrwt>
</event>
<event>
 4    2  0.2930016E-007  0.7789228E+03  0.7818608E-02  0.9758373E-01
          2   -1    0    0  501    0  0.00000000000E+00  0.00000000000E+00  0.51171169979E+03  0.51171169980E+03  0.25500000000E-02 0. -1.
         -2   -1    0    0    0  501 -0.00000000000E+00 -0.00000000000E+00 -0.11167724681E+04  0.11167724681E+04  0.25500000000E-02 0.  1.
    8880023    1    1    2    0    0 -0.38642758755E+03 -0.15357165035E+03  0.11064071965E+03  0.78674144884E+03  0.65864270000E+03 0. -1.
    8880022    1    1    2    0    0  0.38642758755E+03  0.15357165035E+03 -0.71570148793E+03  0.84174271904E+03  0.15294330000E+03 0.  0.
<mgrwt>
<rscale>  0 0.67645118E+03</rscale>
<asrwt>0</asrwt>
<pdfrwt beam="1">  1        2 0.78724878E-01 0.77892281E+03</pdfrwt>
<pdfrwt beam="2">  1       -2 0.17181115E+00 0.77892281E+03</pdfrwt>
<totfact> 0.12561658E+01</totfact>
</mgrwt>
</event>
<event>
 4    2  0.2930016E-007  0.7803342E+03  0.7818608E-02  0.9755052E-01
          2   -1    0    0  501    0  0.00000000000E+00  0.00000000000E+00  0.10195766262E+04  0.10195766262E+04  0.25500000000E-02 0. -1.
         -2   -1    0    0    0  501 -0.00000000000E+00 -0.00000000000E+00 -0.49983574980E+03  0.49983574981E+03  0.25500000000E-02 0.  1.
    8880023    1    1    2    0    0 -0.31291371154E+03  0.27784228083E+03  0.69079229050E+03  0.10421686614E+04  0.65864270000E+03 0. -1.
    8880022    1    1    2    0    0  0.31291371154E+03 -0.27784228083E+03 -0.17105141410E+03  0.47724371464E+03  0.15294330000E+03 0.  0.
<mgrwt>
<rscale>  0 0.67831493E+03</rscale>
<asrwt>0</asrwt>
<pdfrwt beam="1">  1        2 0.15685794E+00 0.78033424E+03</pdfrwt>
<pdfrwt beam="2">  1       -2 0.76897808E-01 0.78033424E+03</pdfrwt>
<totfact> 0.37453943E+01</totfact>
</mgrwt>
</event>
<event>
 4    2  0.3202383E-007  0.8493878E+03  0.7818608E-02  0.9612727E-01
         -2   -1    0    0    0  501 -0.00000000000E+00  0.00000000000E+00  0.97800252962E+03  0.97800252963E+03  0.25500000000E-02 0.  1.
          2   -1    0    0  501    0  0.00000000000E+00 -0.00000000000E+00 -0.14958305470E+04  0.14958305470E+04  0.25500000000E-02 0. -1.
    8880023    1    1    2    0    0 -0.26624181441E+03 -0.46557991200E+03 -0.12758635790E+04  0.15327385416E+04  0.65864270000E+03 0. -1.
    8880022    1    1    2    0    0  0.26624181441E+03  0.46557991200E+03  0.75803556166E+03  0.94109453508E+03  0.15294330000E+03 0.  0.
<mgrwt>
<rscale>  0 0.76459544E+03</rscale>
<asrwt>0</asrwt>
<pdfrwt beam="1">  1        2 0.23012777E+00 0.84938776E+03</pdfrwt>
<pdfrwt beam="2">  1       -2 0.15046193E+00 0.84938776E+03</pdfrwt>
<totfact> 0.38372434E+00</totfact>
</mgrwt>
</event>
<event>
 4    2  0.2930016E-007  0.7162308E+03  0.7818608E-02  0.9935552E-01
          2   -1    0    0  501    0  0.00000000000E+00  0.00000000000E+00  0.71393373213E+03  0.71393373214E+03  0.25500000000E-02 0. -1.
         -2   -1    0    0    0  501 -0.00000000000E+00 -0.00000000000E+00 -0.43988364495E+03  0.43988364495E+03  0.25500000000E-02 0.  1.
    8880023    1    1    2    0    0  0.26411113756E+03  0.97065452269E+02 -0.23565272556E+02  0.71661839450E+03  0.65864270000E+03 0.  1.
    8880022    1    1    2    0    0 -0.26411113756E+03 -0.97065452269E+02  0.29761535974E+03  0.43719898259E+03  0.15294330000E+03 0.  0.
<mgrwt>
<rscale>  0 0.58568792E+03</rscale>
<asrwt>0</asrwt>
<pdfrwt beam="1">  1        2 0.10983596E+00 0.71623083E+03</pdfrwt>
<pdfrwt beam="2">  1       -2 0.67674408E-01 0.71623083E+03</pdfrwt>
<totfact> 0.81127240E+01</totfact>
</mgrwt>
</event>
<event>
 4    2  0.2930016E-007  0.8626604E+03  0.7818608E-02  0.9588848E-01
          2   -1    0    0  501    0  0.00000000000E+00  0.00000000000E+00  0.13494600614E+04  0.13494600614E+04  0.25500000000E-02 0. -1.
         -2   -1    0    0    0  501 -0.00000000000E+00 -0.00000000000E+00 -0.46076601830E+03  0.46076601831E+03  0.25500000000E-02 0.  1.
    8880023    1    1    2    0    0 -0.50118367934E+03 -0.24328519978E+03  0.88018476286E+03  0.12324399344E+04  0.65864270000E+03 0.  0.
    8880022    1    1    2    0    0  0.50118367934E+03  0.24328519978E+03  0.85092802447E+01  0.57778614532E+03  0.15294330000E+03 0.  0.
<mgrwt>
<rscale>  0 0.78038678E+03</rscale>
<asrwt>0</asrwt>
<pdfrwt beam="1">  1        2 0.20760923E+00 0.86266041E+03</pdfrwt>
<pdfrwt beam="2">  1       -2 0.70887082E-01 0.86266041E+03</pdfrwt>
<totfact> 0.28237982E+01</totfact>
</mgrwt>
</event>
<event>
 4    2  0.2930016E-007  0.7206194E+03  0.7818608E-02  0.9920496E-01
         -2   -1    0    0    0  501 -0.00000000000E+00  0.00000000000E+00  0.19357237581E+03  0.19357237583E+03  0.25500000000E-02 0.  1.
          2   -1    0    0  501    0  0.00000000000E+00 -0.00000000000E+00 -0.32216438535E+04  0.32216438535E+04  0.25500000000E-02 0. -1.
    8880023    1    1    2    0    0 -0.15232698297E+03 -0.24955668472E+03 -0.29985646226E+04  0.30839393721E+04  0.65864270000E+03 0. -1.
    8880022    1    1    2    0    0  0.15232698297E+03  0.24955668472E+03 -0.29506855097E+02  0.33127685724E+03  0.15294330000E+03 0.  0.
<mgrwt>
<rscale>  0 0.59278174E+03</rscale>
<asrwt>0</asrwt>
<pdfrwt beam="1">  1        2 0.49563748E+00 0.72061936E+03</pdfrwt>
<pdfrwt beam="2">  1       -2 0.29780368E-01 0.72061936E+03</pdfrwt>
<totfact> 0.14008550E+01</totfact>
</mgrwt>
</event>
<event>
 4    2  0.2930016E-007  0.6590699E+03  0.7818608E-02  0.1025130E+00
         -2   -1    0    0    0  501 -0.00000000000E+00  0.00000000000E+00  0.61278153399E+03  0.61278153399E+03  0.25500000000E-02 0.  1.
          2   -1    0    0  501    0  0.00000000000E+00 -0.00000000000E+00 -0.35018908156E+03  0.35018908157E+03  0.25500000000E-02 0. -1.
    8880023    1    1    2    0    0 -0.22516994031E+02 -0.74739231497E+01  0.10573190676E+01  0.65907070845E+03  0.65864270000E+03 0. -1.
    8880022    1    1    2    0    0  0.22516994031E+02  0.74739231497E+01  0.26153513336E+03  0.30389990711E+03  0.15294330000E+03 0.  0.
<mgrwt>
<rscale>  0 0.45879855E+03</rscale>
<asrwt>0</asrwt>
<pdfrwt beam="1">  1        2 0.53875244E-01 0.65906986E+03</pdfrwt>
<pdfrwt beam="2">  1       -2 0.94274082E-01 0.65906986E+03</pdfrwt>
<totfact> 0.88949803E+01</totfact>
</mgrwt>
</event>
<event>
 4    2  0.2930016E-007  0.9059424E+03  0.7818608E-02  0.9516559E-01
          2   -1    0    0  501    0  0.00000000000E+00  0.00000000000E+00  0.33047562219E+04  0.33047562219E+04  0.25500000000E-02 0. -1.
         -2   -1    0    0    0  501 -0.00000000000E+00 -0.00000000000E+00 -0.19208331415E+03  0.19208331417E+03  0.25500000000E-02 0.  1.
    8880023    1    1    2    0    0 -0.57524346585E+03 -0.23667796464E+03  0.22234048788E+04  0.24008875370E+04  0.65864270000E+03 0.  1.
    8880022    1    1    2    0    0  0.57524346585E+03  0.23667796464E+03  0.88926802891E+03  0.10959519990E+04  0.15294330000E+03 0.  0.
<mgrwt>
<rscale>  0 0.83073955E+03</rscale>
<asrwt>0</asrwt>
<pdfrwt beam="1">  1        2 0.50842407E+00 0.90594244E+03</pdfrwt>
<pdfrwt beam="2">  1       -2 0.29551277E-01 0.90594244E+03</pdfrwt>
<totfact> 0.12176694E+01</totfact>
</mgrwt>
</event>
<event>
 4    2  0.2930016E-007  0.7972221E+03  0.7818608E-02  0.9716835E-01
         -2   -1    0    0    0  501 -0.00000000000E+00  0.00000000000E+00  0.11946691525E+04  0.11946691525E+04  0.25500000000E-02 0.  1.
          2   -1    0    0  501    0  0.00000000000E+00 -0.00000000000E+00 -0.85575753397E+03  0.85575753397E+03  0.25500000000E-02 0. -1.
    8880023    1    1    2    0    0  0.36149916482E+03 -0.26659191195E+03 -0.60043487123E+03  0.99804064774E+03  0.65864270000E+03 0.  0.
    8880022    1    1    2    0    0 -0.36149916482E+03  0.26659191195E+03  0.93934648972E+03  0.10523860387E+04  0.15294330000E+03 0.  0.
<mgrwt>
<rscale>  0 0.70023237E+03</rscale>
<asrwt>0</asrwt>
<pdfrwt beam="1">  1        2 0.13165501E+00 0.79722211E+03</pdfrwt>
<pdfrwt beam="2">  1       -2 0.18379525E+00 0.79722211E+03</pdfrwt>
<totfact> 0.54451759E+00</totfact>
</mgrwt>
</event>
<event>
 4    2  0.2930016E-007  0.8703727E+03  0.7818608E-02  0.9575372E-01
         -2   -1    0    0    0  501 -0.00000000000E+00  0.00000000000E+00  0.66197813682E+03  0.66197813683E+03  0.25500000000E-02 0.  1.
          2   -1    0    0  501    0  0.00000000000E+00 -0.00000000000E+00 -0.96081371660E+03  0.96081371660E+03  0.25500000000E-02 0. -1.
    8880023    1    1    2    0    0  0.55309295815E+03  0.13351661088E+03 -0.49565386235E+03  0.10016094365E+04  0.65864270000E+03 0.  0.
    8880022    1    1    2    0    0 -0.55309295815E+03 -0.13351661088E+03  0.19681828258E+03  0.62118241694E+03  0.15294330000E+03 0.  0.
<mgrwt>
<rscale>  0 0.78947886E+03</rscale>
<asrwt>0</asrwt>
<pdfrwt beam="1">  1        2 0.14781749E+00 0.87037274E+03</pdfrwt>
<pdfrwt beam="2">  1       -2 0.10184279E+00 0.87037274E+03</pdfrwt>
<totfact> 0.21218586E+01</totfact>
</mgrwt>
</event>
<event>
 4    2  0.2930016E-007  0.6658221E+03  0.7818608E-02  0.1018853E+00
         -2   -1    0    0    0  501 -0.00000000000E+00  0.00000000000E+00  0.12311147006E+04  0.12311147006E+04  0.25500000000E-02 0.  1.
          2   -1    0    0  501    0  0.00000000000E+00 -0.00000000000E+00 -0.38942069238E+03  0.38942069238E+03  0.25500000000E-02 0. -1.
    8880023    1    1    2    0    0 -0.61341304042E+02  0.75803412349E+02 -0.89526496221E+02  0.67181404622E+03  0.65864270000E+03 0. -1.
    8880022    1    1    2    0    0  0.61341304042E+02 -0.75803412349E+02  0.93122050443E+03  0.94872134676E+03  0.15294330000E+03 0.  0.
<mgrwt>
<rscale>  0 0.48102660E+03</rscale>
<asrwt>0</asrwt>
<pdfrwt beam="1">  1        2 0.59910876E-01 0.66582214E+03</pdfrwt>
<pdfrwt beam="2">  1       -2 0.18940226E+00 0.66582214E+03</pdfrwt>
<totfact> 0.13150571E+01</totfact>
</mgrwt>
</event>
<event>
 4    2  0.2930016E-007  0.1077950E+04  0.7818608E-02  0.9286012E-01
          2   -1    0    0  501    0  0.00000000000E+00  0.00000000000E+00  0.98326862817E+03  0.98326862817E+03  0.25500000000E-02 0. -1.
         -2   -1    0    0    0  501 -0.00000000000E+00 -0.00000000000E+00 -0.11039188695E+04  0.11039188695E+04  0.25500000000E-02 0.  1.
    8880023    1    1    2    0    0 -0.16565475125E+03 -0.83709333565E+03  0.30659027080E+03  0.11207027035E+04  0.65864270000E+03 0. -1.
    8880022    1    1    2    0    0  0.16565475125E+03  0.83709333565E+03 -0.42724051215E+03  0.96648479421E+03  0.15294330000E+03 0.  0.
<mgrwt>
<rscale>  0 0.10208088E+04</rscale>
<asrwt>0</asrwt>
<pdfrwt beam="1">  1        2 0.15127210E+00 0.10779503E+04</pdfrwt>
<pdfrwt beam="2">  1       -2 0.16983367E+00 0.10779503E+04</pdfrwt>
<totfact> 0.54297614E+00</totfact>
</mgrwt>
</event>
<event>
 4    2  0.2930016E-007  0.7871406E+03  0.7818608E-02  0.9739323E-01
         -2   -1    0    0    0  501 -0.00000000000E+00  0.00000000000E+00  0.12058435872E+04  0.12058435872E+04  0.25500000000E-02 0.  1.
          2   -1    0    0  501    0  0.00000000000E+00 -0.00000000000E+00 -0.11012944056E+04  0.11012944056E+04  0.25500000000E-02 0. -1.
    8880023    1    1    2    0    0 -0.23781913157E+02  0.43036554223E+03 -0.90463999941E+03  0.11991512891E+04  0.65864270000E+03 0. -1.
    8880022    1    1    2    0    0  0.23781913157E+02 -0.43036554223E+03  0.10091891810E+04  0.11079867037E+04  0.15294330000E+03 0.  0.
<mgrwt>
<rscale>  0 0.68722998E+03</rscale>
<asrwt>0</asrwt>
<pdfrwt beam="1">  1        2 0.16942991E+00 0.78714058E+03</pdfrwt>
<pdfrwt beam="2">  1       -2 0.18551440E+00 0.78714058E+03</pdfrwt>
<totfact> 0.36794144E+00</totfact>
</mgrwt>
</event>
<event>
 4    2  0.2930016E-007  0.7395290E+03  0.7818608E-02  0.9861321E-01
         -2   -1    0    0    0  501 -0.00000000000E+00  0.00000000000E+00  0.10061873107E+04  0.10061873107E+04  0.25500000000E-02 0.  1.
          2   -1    0    0  501    0  0.00000000000E+00 -0.00000000000E+00 -0.48932465159E+03  0.48932465159E+03  0.25500000000E-02 0. -1.
    8880023    1    1    2    0    0 -0.24245053575E+03  0.23304648182E+03 -0.12972816914E+03  0.75082123645E+03  0.65864270000E+03 0. -1.
    8880022    1    1    2    0    0  0.24245053575E+03 -0.23304648182E+03  0.64659082824E+03  0.74469072584E+03  0.15294330000E+03 0.  0.
<mgrwt>
<rscale>  0 0.62173004E+03</rscale>
<asrwt>0</asrwt>
<pdfrwt beam="1">  1        2 0.75280717E-01 0.73952899E+03</pdfrwt>
<pdfrwt beam="2">  1       -2 0.15479805E+00 0.73952899E+03</pdfrwt>
<totfact> 0.17654646E+01</totfact>
</mgrwt>
</event>
<event>
 4    2  0.2930016E-007  0.8382818E+03  0.7818608E-02  0.9633429E-01
          2   -1    0    0  501    0  0.00000000000E+00  0.00000000000E+00  0.15434396872E+04  0.15434396872E+04  0.25500000000E-02 0. -1.
         -2   -1    0    0    0  501 -0.00000000000E+00 -0.00000000000E+00 -0.43236567498E+03  0.43236567499E+03  0.25500000000E-02 0.  1.
    8880023    1    1    2    0    0  0.19136598614E+03  0.48195974343E+03  0.11619457678E+04  0.14327715479E+04  0.65864270000E+03 0.  0.
    8880022    1    1    2    0    0 -0.19136598614E+03 -0.48195974343E+03 -0.50871755560E+02  0.54303381429E+03  0.15294330000E+03 0.  0.
<mgrwt>
<rscale>  0 0.75122617E+03</rscale>
<asrwt>0</asrwt>
<pdfrwt beam="1">  1        2 0.23745226E+00 0.83828178E+03</pdfrwt>
<pdfrwt beam="2">  1       -2 0.66517796E-01 0.83828178E+03</pdfrwt>
<totfact> 0.25274755E+01</totfact>
</mgrwt>
</event>
<event>
 4    2  0.2930016E-007  0.7336722E+03  0.7818608E-02  0.9878778E-01
          2   -1    0    0  501    0  0.00000000000E+00  0.00000000000E+00  0.89538873513E+03  0.89538873514E+03  0.25500000000E-02 0. -1.
         -2   -1    0    0    0  501 -0.00000000000E+00 -0.00000000000E+00 -0.33658728760E+03  0.33658728761E+03  0.25500000000E-02 0.  1.
    8880023    1    1    2    0    0 -0.30327812543E+03 -0.11174573603E+03  0.43842123775E+03  0.85468597676E+03  0.65864270000E+03 0.  0.
    8880022    1    1    2    0    0  0.30327812543E+03  0.11174573603E+03  0.12038020977E+03  0.37729004599E+03  0.15294330000E+03 0. -1.
<mgrwt>
<rscale>  0 0.61300902E+03</rscale>
<asrwt>0</asrwt>
<pdfrwt beam="1">  1        2 0.13775211E+00 0.73367223E+03</pdfrwt>
<pdfrwt beam="2">  1       -2 0.51782660E-01 0.73367223E+03</pdfrwt>
<totfact> 0.10545469E+02</totfact>
</mgrwt>
</event>
<event>
 4    2  0.2930016E-007  0.1061024E+04  0.7818608E-02  0.9305745E-01
          2   -1    0    0  501    0  0.00000000000E+00  0.00000000000E+00  0.12703080792E+04  0.12703080792E+04  0.25500000000E-02 0. -1.
         -2   -1    0    0    0  501 -0.00000000000E+00 -0.00000000000E+00 -0.15766182579E+04  0.15766182579E+04  0.25500000000E-02 0.  1.
    8880023    1    1    2    0    0  0.32251645166E+03  0.76677544797E+03  0.88791311866E+03  0.13835322048E+04  0.65864270000E+03 0.  0.
    8880022    1    1    2    0    0 -0.32251645166E+03 -0.76677544797E+03 -0.11942232974E+04  0.14633941323E+04  0.15294330000E+03 0.  0.
<mgrwt>
<rscale>  0 0.10025567E+04</rscale>
<asrwt>0</asrwt>
<pdfrwt beam="1">  1        2 0.19543201E+00 0.10610239E+04</pdfrwt>
<pdfrwt beam="2">  1       -2 0.24255666E+00 0.10610239E+04</pdfrwt>
<totfact> 0.12144965E+00</totfact>
</mgrwt>
</event>
<event>
 4    2  0.5289490E-007  0.7369862E+03  0.7818608E-02  0.9868814E-01
          2   -1    0    0  501    0  0.00000000000E+00  0.00000000000E+00  0.10742694514E+04  0.10742694514E+04  0.25500000000E-02 0. -1.
         -2   -1    0    0    0  501 -0.00000000000E+00 -0.00000000000E+00 -0.13189916777E+04  0.13189916777E+04  0.25500000000E-02 0.  1.
    8880023    1    1    2    0    0  0.26488013381E+02 -0.32960110061E+03  0.91659655078E+03  0.11761368728E+04  0.65864270000E+03 0.  0.
    8880022    1    1    2    0    0 -0.26488013381E+02  0.32960110061E+03 -0.11613187771E+04  0.12171242564E+04  0.15294330000E+03 0.  0.
<mgrwt>
<rscale>  0 0.61796764E+03</rscale>
<asrwt>0</asrwt>
<pdfrwt beam="1">  1        2 0.16527222E+00 0.73698623E+03</pdfrwt>
<pdfrwt beam="2">  1       -2 0.20292180E+00 0.73698623E+03</pdfrwt>
<totfact> 0.29562829E+00</totfact>
</mgrwt>
</event>
<event>
 4    2  0.2930016E-007  0.8567673E+03  0.7818608E-02  0.9599340E-01
          2   -1    0    0  501    0  0.00000000000E+00  0.00000000000E+00  0.61621022225E+03  0.61621022225E+03  0.25500000000E-02 0. -1.
         -2   -1    0    0    0  501 -0.00000000000E+00 -0.00000000000E+00 -0.11255676145E+04  0.11255676145E+04  0.25500000000E-02 0.  1.
    8880023    1    1    2    0    0  0.38872978114E+02  0.54656097060E+03  0.15121058966E+03  0.87000853542E+03  0.65864270000E+03 0.  0.
    8880022    1    1    2    0    0 -0.38872978114E+02 -0.54656097060E+03 -0.66056798189E+03  0.87176930132E+03  0.15294330000E+03 0.  0.
<mgrwt>
<rscale>  0 0.77339888E+03</rscale>
<asrwt>0</asrwt>
<pdfrwt beam="1">  1        2 0.94801573E-01 0.85676730E+03</pdfrwt>
<pdfrwt beam="2">  1       -2 0.17316425E+00 0.85676730E+03</pdfrwt>
<totfact> 0.97743785E+00</totfact>
</mgrwt>
</event>
<event>
 4    2  0.2930016E-007  0.8489700E+03  0.7818608E-02  0.9613493E-01
          2   -1    0    0  501    0  0.00000000000E+00  0.00000000000E+00  0.18276551104E+04  0.18276551104E+04  0.25500000000E-02 0. -1.
         -2   -1    0    0    0  501 -0.00000000000E+00 -0.00000000000E+00 -0.42904168739E+03  0.42904168740E+03  0.25500000000E-02 0.  1.
    8880023    1    1    2    0    0 -0.53354217438E+03 -0.47671025339E+02  0.14675019012E+04  0.16953795489E+04  0.65864270000E+03 0.  0.
    8880022    1    1    2    0    0  0.53354217438E+03  0.47671025339E+02 -0.68888478176E+02  0.56131724893E+03  0.15294330000E+03 0.  0.
<mgrwt>
<rscale>  0 0.76409518E+03</rscale>
<asrwt>0</asrwt>
<pdfrwt beam="1">  1        2 0.28117771E+00 0.84896996E+03</pdfrwt>
<pdfrwt beam="2">  1       -2 0.66006412E-01 0.84896996E+03</pdfrwt>
<totfact> 0.17902879E+01</totfact>
</mgrwt>
</event>
<event>
 4    2  0.2930016E-007  0.6993593E+03  0.7818608E-02  0.9999869E-01
          2   -1    0    0  501    0  0.00000000000E+00  0.00000000000E+00  0.52913224262E+03  0.52913224263E+03  0.25500000000E-02 0. -1.
         -2   -1    0    0    0  501 -0.00000000000E+00 -0.00000000000E+00 -0.48248418646E+03  0.48248418646E+03  0.25500000000E-02 0.  1.
    8880023    1    1    2    0    0 -0.19303661455E+03  0.13427634768E+03  0.14524858951E+03  0.71428329892E+03  0.65864270000E+03 0. -1.
    8880022    1    1    2    0    0  0.19303661455E+03 -0.13427634768E+03 -0.98600533347E+02  0.29733313017E+03  0.15294330000E+03 0.  1.
<mgrwt>
<rscale>  0 0.55655966E+03</rscale>
<asrwt>0</asrwt>
<pdfrwt beam="1">  1        2 0.81404960E-01 0.69935933E+03</pdfrwt>
<pdfrwt beam="2">  1       -2 0.74228337E-01 0.69935933E+03</pdfrwt>
<totfact> 0.95486518E+01</totfact>
</mgrwt>
</event>
<event>
 4    2  0.2930016E-007  0.7228367E+03  0.7818608E-02  0.9913102E-01
         -2   -1    0    0    0  501 -0.00000000000E+00  0.00000000000E+00  0.15221791724E+03  0.15221791727E+03  0.25500000000E-02 0.  1.
          2   -1    0    0  501    0  0.00000000000E+00 -0.00000000000E+00 -0.27886642648E+04  0.27886642648E+04  0.25500000000E-02 0. -1.
    8880023    1    1    2    0    0  0.16177954804E+03  0.25002001792E+03 -0.24568461661E+04  0.25609736276E+04  0.65864270000E+03 0.  0.
    8880022    1    1    2    0    0 -0.16177954804E+03 -0.25002001792E+03 -0.17960018151E+03  0.37990855444E+03  0.15294330000E+03 0.  0.
<mgrwt>
<rscale>  0 0.59630490E+03</rscale>
<asrwt>0</asrwt>
<pdfrwt beam="1">  1        2 0.42902523E+00 0.72283666E+03</pdfrwt>
<pdfrwt beam="2">  1       -2 0.23418143E-01 0.72283666E+03</pdfrwt>
<totfact> 0.39926370E+01</totfact>
</mgrwt>
</event>
<event>
 4    2  0.2930016E-007  0.6981004E+03  0.7818608E-02  0.1000517E+00
          2   -1    0    0  501    0  0.00000000000E+00  0.00000000000E+00  0.14861857337E+04  0.14861857337E+04  0.25500000000E-02 0. -1.
         -2   -1    0    0    0  501 -0.00000000000E+00 -0.00000000000E+00 -0.33367129843E+03  0.33367129843E+03  0.25500000000E-02 0.  1.
    8880023    1    1    2    0    0 -0.70247875513E+02 -0.22045216187E+03  0.13218691604E+04  0.14948853478E+04  0.65864270000E+03 0. -1.
    8880022    1    1    2    0    0  0.70247875513E+02  0.22045216187E+03 -0.16935472510E+03  0.32497168433E+03  0.15294330000E+03 0.  0.
<mgrwt>
<rscale>  0 0.55423921E+03</rscale>
<asrwt>0</asrwt>
<pdfrwt beam="1">  1        2 0.22864395E+00 0.69810037E+03</pdfrwt>
<pdfrwt beam="2">  1       -2 0.51334047E-01 0.69810037E+03</pdfrwt>
<totfact> 0.47615564E+01</totfact>
</mgrwt>
</event>
<event>
 4    2  0.2930016E-007  0.7781724E+03  0.7818608E-02  0.9760148E-01
          2   -1    0    0  501    0  0.00000000000E+00  0.00000000000E+00  0.10669737904E+04  0.10669737904E+04  0.25500000000E-02 0. -1.
         -2   -1    0    0    0  501 -0.00000000000E+00 -0.00000000000E+00 -0.41846978134E+03  0.41846978134E+03  0.25500000000E-02 0.  1.
    8880023    1    1    2    0    0  0.36205064631E+03 -0.20164671783E+03  0.69228154187E+03  0.10415402099E+04  0.65864270000E+03 0.  0.
    8880022    1    1    2    0    0 -0.36205064631E+03  0.20164671783E+03 -0.43777532795E+02  0.44390336189E+03  0.15294330000E+03 0.  0.
<mgrwt>
<rscale>  0 0.67545809E+03</rscale>
<asrwt>0</asrwt>
<pdfrwt beam="1">  1        2 0.16414981E+00 0.77817239E+03</pdfrwt>
<pdfrwt beam="2">  1       -2 0.64379967E-01 0.77817239E+03</pdfrwt>
<totfact> 0.51597122E+01</totfact>
</mgrwt>
</event>
<event>
 4    2  0.2930016E-007  0.6784149E+03  0.7818608E-02  0.1010235E+00
         -2   -1    0    0    0  501 -0.00000000000E+00  0.00000000000E+00  0.67394161222E+03  0.67394161222E+03  0.25500000000E-02 0.  1.
          2   -1    0    0  501    0  0.00000000000E+00 -0.00000000000E+00 -0.65822744056E+03  0.65822744057E+03  0.25500000000E-02 0. -1.
    8880023    1    1    2    0    0  0.69895614352E+02 -0.14680320942E+03 -0.45111945135E+03  0.81471193980E+03  0.65864270000E+03 0. -1.
    8880022    1    1    2    0    0 -0.69895614352E+02  0.14680320942E+03  0.46683362300E+03  0.51745711299E+03  0.15294330000E+03 0.  0.
<mgrwt>
<rscale>  0 0.51381404E+03</rscale>
<asrwt>0</asrwt>
<pdfrwt beam="1">  1        2 0.10126576E+00 0.67841491E+03</pdfrwt>
<pdfrwt beam="2">  1       -2 0.10368332E+00 0.67841491E+03</pdfrwt>
<totfact> 0.34183403E+01</totfact>
</mgrwt>
</event>
<event>
 4    2  0.2930016E-007  0.9054922E+03  0.7818608E-02  0.9517272E-01
         -2   -1    0    0    0  501 -0.00000000000E+00  0.00000000000E+00  0.82860115876E+03  0.82860115877E+03  0.25500000000E-02 0.  1.
          2   -1    0    0  501    0  0.00000000000E+00 -0.00000000000E+00 -0.91743873525E+03  0.91743873525E+03  0.25500000000E-02 0. -1.
    8880023    1    1    2    0    0  0.26184010716E+03  0.56351196821E+03 -0.45009671878E+03  0.10111890242E+04  0.65864270000E+03 0. -1.
    8880022    1    1    2    0    0 -0.26184010716E+03 -0.56351196821E+03  0.36125914229E+03  0.73485086987E+03  0.15294330000E+03 0.  0.
<mgrwt>
<rscale>  0 0.83022340E+03</rscale>
<asrwt>0</asrwt>
<pdfrwt beam="1">  1        2 0.14114442E+00 0.90549223E+03</pdfrwt>
<pdfrwt beam="2">  1       -2 0.12747710E+00 0.90549223E+03</pdfrwt>
<totfact> 0.13030499E+01</totfact>
</mgrwt>
</event>
<event>
 4    2  0.2930016E-007  0.6839053E+03  0.7818608E-02  0.1007196E+00
          2   -1    0    0  501    0  0.00000000000E+00  0.00000000000E+00  0.24501622998E+04  0.24501622998E+04  0.25500000000E-02 0. -1.
         -2   -1    0    0    0  501 -0.00000000000E+00 -0.00000000000E+00 -0.25656908830E+03  0.25656908832E+03  0.25500000000E-02 0.  1.
    8880023    1    1    2    0    0 -0.15966664764E+03 -0.91775677531E+02  0.23319955228E+04  0.24302118298E+04  0.65864270000E+03 0. -1.
    8880022    1    1    2    0    0  0.15966664764E+03  0.91775677531E+02 -0.13840231125E+03  0.27651955831E+03  0.15294330000E+03 0.  0.
<mgrwt>
<rscale>  0 0.52604602E+03</rscale>
<asrwt>0</asrwt>
<pdfrwt beam="1">  1        2 0.37694804E+00 0.68390527E+03</pdfrwt>
<pdfrwt beam="2">  1       -2 0.39472168E-01 0.68390527E+03</pdfrwt>
<totfact> 0.23809652E+01</totfact>
</mgrwt>
</event>
<event>
 4    2  0.2930016E-007  0.8936529E+03  0.7818608E-02  0.9536299E-01
         -2   -1    0    0    0  501 -0.00000000000E+00  0.00000000000E+00  0.59572638566E+03  0.59572638567E+03  0.25500000000E-02 0.  1.
          2   -1    0    0  501    0  0.00000000000E+00 -0.00000000000E+00 -0.21355691367E+04  0.21355691367E+04  0.25500000000E-02 0. -1.
    8880023    1    1    2    0    0  0.99164204527E+02  0.59579505034E+03  0.17159029511E+03  0.90997731681E+03  0.65864270000E+03 0.  0.
    8880022    1    1    2    0    0 -0.99164204527E+02 -0.59579505034E+03 -0.17114330462E+04  0.18213182056E+04  0.15294330000E+03 0.  0.
<mgrwt>
<rscale>  0 0.81659772E+03</rscale>
<asrwt>0</asrwt>
<pdfrwt beam="1">  1        2 0.32854909E+00 0.89365289E+03</pdfrwt>
<pdfrwt beam="2">  1       -2 0.91650214E-01 0.89365289E+03</pdfrwt>
<totfact> 0.57840120E+00</totfact>
</mgrwt>
</event>
<event>
 4    2  0.2930016E-007  0.7808416E+03  0.7818608E-02  0.9753864E-01
          2   -1    0    0  501    0  0.00000000000E+00  0.00000000000E+00  0.90191081865E+03  0.90191081865E+03  0.25500000000E-02 0. -1.
         -2   -1    0    0    0  501 -0.00000000000E+00 -0.00000000000E+00 -0.13918452461E+04  0.13918452461E+04  0.25500000000E-02 0.  1.
    8880023    1    1    2    0    0 -0.27115432062E+03 -0.31996686430E+03 -0.12138182518E+04  0.14432838994E+04  0.65864270000E+03 0.  0.
    8880022    1    1    2    0    0  0.27115432062E+03  0.31996686430E+03  0.72388382431E+03  0.85047216530E+03  0.15294330000E+03 0.  0.
<mgrwt>
<rscale>  0 0.67898363E+03</rscale>
<asrwt>0</asrwt>
<pdfrwt beam="1">  1        2 0.13875551E+00 0.78084164E+03</pdfrwt>
<pdfrwt beam="2">  1       -2 0.21413004E+00 0.78084164E+03</pdfrwt>
<totfact> 0.32148246E+00</totfact>
</mgrwt>
</event>
<event>
 4    2  0.2930016E-007  0.7892005E+03  0.7818608E-02  0.9734652E-01
          2   -1    0    0  501    0  0.00000000000E+00  0.00000000000E+00  0.15551134927E+04  0.15551134927E+04  0.25500000000E-02 0. -1.
         -2   -1    0    0    0  501 -0.00000000000E+00 -0.00000000000E+00 -0.86178488800E+03  0.86178488800E+03  0.25500000000E-02 0.  1.
    8880023    1    1    2    0    0  0.41133971074E+03  0.14080791737E+03  0.13800972236E+04  0.15898131274E+04  0.65864270000E+03 0.  0.
    8880022    1    1    2    0    0 -0.41133971074E+03 -0.14080791737E+03 -0.68676861893E+03  0.82708525328E+03  0.15294330000E+03 0.  0.
<mgrwt>
<rscale>  0 0.68990557E+03</rscale>
<asrwt>0</asrwt>
<pdfrwt beam="1">  1        2 0.23924823E+00 0.78920050E+03</pdfrwt>
<pdfrwt beam="2">  1       -2 0.13258229E+00 0.78920050E+03</pdfrwt>
<totfact> 0.49835360E+00</totfact>
</mgrwt>
</event>
<event>
 4    2  0.2930016E-007  0.7020100E+03  0.7818608E-02  0.9988963E-01
          2   -1    0    0  501    0  0.00000000000E+00  0.00000000000E+00  0.35263380377E+04  0.35263380377E+04  0.25500000000E-02 0. -1.
         -2   -1    0    0    0  501 -0.00000000000E+00 -0.00000000000E+00 -0.24784855042E+03  0.24784855043E+03  0.25500000000E-02 0.  1.
    8880023    1    1    2    0    0 -0.11106075958E+03  0.21604024414E+03  0.33932032141E+04  0.34650607697E+04  0.65864270000E+03 0. -1.
    8880022    1    1    2    0    0  0.11106075958E+03 -0.21604024414E+03 -0.11471372690E+03  0.30912581833E+03  0.15294330000E+03 0.  0.
<mgrwt>
<rscale>  0 0.56136856E+03</rscale>
<asrwt>0</asrwt>
<pdfrwt beam="1">  1        2 0.54251354E+00 0.70201003E+03</pdfrwt>
<pdfrwt beam="2">  1       -2 0.38130546E-01 0.70201003E+03</pdfrwt>
<totfact> 0.55410664E+00</totfact>
</mgrwt>
</event>
<event>
 4    2  0.2930016E-007  0.7606239E+03  0.7818608E-02  0.9803495E-01
          2   -1    0    0  501    0  0.00000000000E+00  0.00000000000E+00  0.37701538895E+04  0.37701538895E+04  0.25500000000E-02 0. -1.
         -2   -1    0    0    0  501 -0.00000000000E+00 -0.00000000000E+00 -0.13068729861E+03  0.13068729864E+03  0.25500000000E-02 0.  1.
    8880023    1    1    2    0    0  0.25179088277E+03 -0.28520147944E+03  0.11562731575E+04  0.13840218039E+04  0.65864270000E+03 0.  1.
    8880022    1    1    2    0    0 -0.25179088277E+03  0.28520147944E+03  0.24831934333E+04  0.25168193842E+04  0.15294330000E+03 0.  0.
<mgrwt>
<rscale>  0 0.65175323E+03</rscale>
<asrwt>0</asrwt>
<pdfrwt beam="1">  1        2 0.58002366E+00 0.76062391E+03</pdfrwt>
<pdfrwt beam="2">  1       -2 0.20105739E-01 0.76062391E+03</pdfrwt>
<totfact> 0.11900223E+01</totfact>
</mgrwt>
</event>
<event>
 4    2  0.2930016E-007  0.6705434E+03  0.7818608E-02  0.1015276E+00
          2   -1    0    0  501    0  0.00000000000E+00  0.00000000000E+00  0.32771661185E+04  0.32771661185E+04  0.25500000000E-02 0. -1.
         -2   -1    0    0    0  501 -0.00000000000E+00 -0.00000000000E+00 -0.12335848333E+03  0.12335848336E+03  0.25500000000E-02 0.  1.
    8880023    1    1    2    0    0  0.99902839577E+02  0.76404373259E+02  0.31300743354E+04  0.32010925880E+04  0.65864270000E+03 0. -1.
    8880022    1    1    2    0    0 -0.99902839577E+02 -0.76404373259E+02  0.23733299752E+02  0.19943201383E+03  0.15294330000E+03 0.  0.
<mgrwt>
<rscale>  0 0.49430450E+03</rscale>
<asrwt>0</asrwt>
<pdfrwt beam="1">  1        2 0.50417943E+00 0.67054337E+03</pdfrwt>
<pdfrwt beam="2">  1       -2 0.18978227E-01 0.67054337E+03</pdfrwt>
<totfact> 0.29189567E+01</totfact>
</mgrwt>
</event>
<event>
 4    2  0.2930016E-007  0.9361235E+03  0.7818608E-02  0.9470367E-01
          2   -1    0    0  501    0  0.00000000000E+00  0.00000000000E+00  0.42119811446E+04  0.42119811446E+04  0.25500000000E-02 0. -1.
         -2   -1    0    0    0  501 -0.00000000000E+00 -0.00000000000E+00 -0.30015203260E+03  0.30015203261E+03  0.25500000000E-02 0.  1.
    8880023    1    1    2    0    0 -0.23479466089E+03  0.62240534145E+03  0.36707491884E+04  0.37882353085E+04  0.65864270000E+03 0.  0.
    8880022    1    1    2    0    0  0.23479466089E+03 -0.62240534145E+03  0.24107992364E+03  0.72389786880E+03  0.15294330000E+03 0.  0.
<mgrwt>
<rscale>  0 0.86504249E+03</rscale>
<asrwt>0</asrwt>
<pdfrwt beam="1">  1        2 0.64799706E+00 0.93612347E+03</pdfrwt>
<pdfrwt beam="2">  1       -2 0.46177239E-01 0.93612347E+03</pdfrwt>
<totfact> 0.10869011E+00</totfact>
</mgrwt>
</event>
<event>
 4    2  0.2930016E-007  0.8324326E+03  0.7818608E-02  0.9644618E-01
         -2   -1    0    0    0  501 -0.00000000000E+00  0.00000000000E+00  0.27574469068E+03  0.27574469069E+03  0.25500000000E-02 0.  1.
          2   -1    0    0  501    0  0.00000000000E+00 -0.00000000000E+00 -0.20675041175E+04  0.20675041175E+04  0.25500000000E-02 0. -1.
    8880023    1    1    2    0    0 -0.30704329526E+03  0.40602749208E+03 -0.15498549681E+04  0.17592596562E+04  0.65864270000E+03 0. -1.
    8880022    1    1    2    0    0  0.30704329526E+03 -0.40602749208E+03 -0.24190445872E+03  0.58398915200E+03  0.15294330000E+03 0.  0.
<mgrwt>
<rscale>  0 0.74412183E+03</rscale>
<asrwt>0</asrwt>
<pdfrwt beam="1">  1        2 0.31807755E+00 0.83243265E+03</pdfrwt>
<pdfrwt beam="2">  1       -2 0.42422261E-01 0.83243265E+03</pdfrwt>
<totfact> 0.33011020E+01</totfact>
</mgrwt>
</event>
<event>
 4    2  0.2930016E-007  0.6731158E+03  0.7818608E-02  0.1013521E+00
         -2   -1    0    0    0  501 -0.00000000000E+00  0.00000000000E+00  0.86926929741E+03  0.86926929741E+03  0.25500000000E-02 0.  1.
          2   -1    0    0  501    0  0.00000000000E+00 -0.00000000000E+00 -0.32930568900E+03  0.32930568901E+03  0.25500000000E-02 0. -1.
    8880023    1    1    2    0    0 -0.13457894999E+03  0.34104775750E+02  0.59679099452E+02  0.67575619175E+03  0.65864270000E+03 0. -1.
    8880022    1    1    2    0    0  0.13457894999E+03 -0.34104775750E+02  0.48028450895E+03  0.52281879468E+03  0.15294330000E+03 0.  0.
<mgrwt>
<rscale>  0 0.50098869E+03</rscale>
<asrwt>0</asrwt>
<pdfrwt beam="1">  1        2 0.50662414E-01 0.67311577E+03</pdfrwt>
<pdfrwt beam="2">  1       -2 0.13373374E+00 0.67311577E+03</pdfrwt>
<totfact> 0.40640924E+01</totfact>
</mgrwt>
</event>
<event>
 4    2  0.2930016E-007  0.8634052E+03  0.7818608E-02  0.9587535E-01
         -2   -1    0    0    0  501 -0.00000000000E+00  0.00000000000E+00  0.21895512324E+03  0.21895512326E+03  0.25500000000E-02 0.  1.
          2   -1    0    0  501    0  0.00000000000E+00 -0.00000000000E+00 -0.28305980174E+04  0.28305980174E+04  0.25500000000E-02 0. -1.
    8880023    1    1    2    0    0 -0.38710915160E+03 -0.40224979936E+03 -0.92033648336E+03  0.12619381305E+04  0.65864270000E+03 0.  1.
    8880022    1    1    2    0    0  0.38710915160E+03  0.40224979936E+03 -0.16913064108E+04  0.17876150102E+04  0.15294330000E+03 0.  0.
<mgrwt>
<rscale>  0 0.78126743E+03</rscale>
<asrwt>0</asrwt>
<pdfrwt beam="1">  1        2 0.43547659E+00 0.86340524E+03</pdfrwt>
<pdfrwt beam="2">  1       -2 0.33685406E-01 0.86340524E+03</pdfrwt>
<totfact> 0.18929531E+01</totfact>
</mgrwt>
</event>
<event>
 4    2  0.2930016E-007  0.8335431E+03  0.7818608E-02  0.9642477E-01
         -2   -1    0    0    0  501 -0.00000000000E+00  0.00000000000E+00  0.77164203551E+03  0.77164203551E+03  0.25500000000E-02 0.  1.
          2   -1    0    0  501    0  0.00000000000E+00 -0.00000000000E+00 -0.12921444390E+04  0.12921444390E+04  0.25500000000E-02 0. -1.
    8880023    1    1    2    0    0 -0.92720271718E+02  0.50238125012E+03 -0.10308318367E+04  0.13256728296E+04  0.65864270000E+03 0.  0.
    8880022    1    1    2    0    0  0.92720271718E+02 -0.50238125012E+03  0.51032943328E+03  0.73811364488E+03  0.15294330000E+03 0.  0.
<mgrwt>
<rscale>  0 0.74547419E+03</rscale>
<asrwt>0</asrwt>
<pdfrwt beam="1">  1        2 0.19879145E+00 0.83354315E+03</pdfrwt>
<pdfrwt beam="2">  1       -2 0.11871416E+00 0.83354315E+03</pdfrwt>
<totfact> 0.92102081E+00</totfact>
</mgrwt>
</event>
<event>
 4    2  0.2930016E-007  0.7097308E+03  0.7818608E-02  0.9959002E-01
         -2   -1    0    0    0  501 -0.00000000000E+00  0.00000000000E+00  0.59388821010E+03  0.59388821010E+03  0.25500000000E-02 0.  1.
          2   -1    0    0  501    0  0.00000000000E+00 -0.00000000000E+00 -0.11694680895E+04  0.11694680895E+04  0.25500000000E-02 0. -1.
    8880023    1    1    2    0    0  0.23714906884E+03  0.11690961647E+03 -0.10086981170E+04  0.12333651676E+04  0.65864270000E+03 0.  0.
    8880022    1    1    2    0    0 -0.23714906884E+03 -0.11690961647E+03  0.43311823755E+03  0.52999113199E+03  0.15294330000E+03 0.  0.
<mgrwt>
<rscale>  0 0.57485055E+03</rscale>
<asrwt>0</asrwt>
<pdfrwt beam="1">  1        2 0.17991817E+00 0.70973076E+03</pdfrwt>
<pdfrwt beam="2">  1       -2 0.91367417E-01 0.70973076E+03</pdfrwt>
<totfact> 0.20635048E+01</totfact>
</mgrwt>
</event>
<event>
 4    2  0.2930016E-007  0.9262876E+03  0.7818608E-02  0.9485085E-01
         -2   -1    0    0    0  501 -0.00000000000E+00  0.00000000000E+00  0.14091070134E+04  0.14091070134E+04  0.25500000000E-02 0.  1.
          2   -1    0    0  501    0  0.00000000000E+00 -0.00000000000E+00 -0.12598742089E+04  0.12598742089E+04  0.25500000000E-02 0. -1.
    8880023    1    1    2    0    0 -0.13304993543E+03 -0.63757057918E+03 -0.98501054144E+03  0.13521296172E+04  0.65864270000E+03 0.  0.
    8880022    1    1    2    0    0  0.13304993543E+03  0.63757057918E+03  0.11342433460E+04  0.13168516051E+04  0.15294330000E+03 0.  0.
<mgrwt>
<rscale>  0 0.85392447E+03</rscale>
<asrwt>0</asrwt>
<pdfrwt beam="1">  1        2 0.19382680E+00 0.92628761E+03</pdfrwt>
<pdfrwt beam="2">  1       -2 0.21678569E+00 0.92628761E+03</pdfrwt>
<totfact> 0.18140581E+00</totfact>
</mgrwt>
</event>
<event>
 4    2  0.2930016E-007  0.8001157E+03  0.7818608E-02  0.9710546E-01
         -2   -1    0    0    0  501 -0.00000000000E+00  0.00000000000E+00  0.61760370771E+03  0.61760370772E+03  0.25500000000E-02 0.  1.
          2   -1    0    0  501    0  0.00000000000E+00 -0.00000000000E+00 -0.13718011210E+04  0.13718011210E+04  0.25500000000E-02 0. -1.
    8880023    1    1    2    0    0  0.21864962769E+03  0.39820513719E+03 -0.11270119507E+04  0.13821509087E+04  0.65864270000E+03 0.  0.
    8880022    1    1    2    0    0 -0.21864962769E+03 -0.39820513719E+03  0.37281453750E+03  0.60725392000E+03  0.15294330000E+03 0.  1.
<mgrwt>
<rscale>  0 0.70392353E+03</rscale>
<asrwt>0</asrwt>
<pdfrwt beam="1">  1        2 0.21104633E+00 0.80011574E+03</pdfrwt>
<pdfrwt beam="2">  1       -2 0.95015955E-01 0.80011574E+03</pdfrwt>
<totfact> 0.14217019E+01</totfact>
</mgrwt>
</event>
<event>
 4    2  0.2930016E-007  0.6891332E+03  0.7818608E-02  0.1004567E+00
         -2   -1    0    0    0  501 -0.00000000000E+00  0.00000000000E+00  0.16807222699E+03  0.16807222701E+03  0.25500000000E-02 0.  1.
          2   -1    0    0  501    0  0.00000000000E+00 -0.00000000000E+00 -0.14509305531E+04  0.14509305531E+04  0.25500000000E-02 0. -1.
    8880023    1    1    2    0    0 -0.92086047709E+02 -0.18059474656E+03 -0.11271502585E+04  0.13211253590E+04  0.65864270000E+03 0.  0.
    8880022    1    1    2    0    0  0.92086047709E+02  0.18059474656E+03 -0.15570806757E+03  0.29787742108E+03  0.15294330000E+03 0.  0.
<mgrwt>
<rscale>  0 0.53692114E+03</rscale>
<asrwt>0</asrwt>
<pdfrwt beam="1">  1        2 0.22322008E+00 0.68913316E+03</pdfrwt>
<pdfrwt beam="2">  1       -2 0.25857267E-01 0.68913316E+03</pdfrwt>
<totfact> 0.18598506E+02</totfact>
</mgrwt>
</event>
<event>
 4    2  0.2930016E-007  0.7500415E+03  0.7818608E-02  0.9831607E-01
          2   -1    0    0  501    0  0.00000000000E+00  0.00000000000E+00  0.19473675941E+04  0.19473675941E+04  0.25500000000E-02 0. -1.
         -2   -1    0    0    0  501 -0.00000000000E+00 -0.00000000000E+00 -0.34622011408E+03  0.34622011409E+03  0.25500000000E-02 0.  1.
    8880023    1    1    2    0    0  0.20900804743E+03  0.29166369875E+03  0.17277261614E+04  0.18835073592E+04  0.65864270000E+03 0.  0.
    8880022    1    1    2    0    0 -0.20900804743E+03 -0.29166369875E+03 -0.12657868136E+03  0.41008034901E+03  0.15294330000E+03 0.  1.
<mgrwt>
<rscale>  0 0.63693591E+03</rscale>
<asrwt>0</asrwt>
<pdfrwt beam="1">  1        2 0.29959501E+00 0.75004152E+03</pdfrwt>
<pdfrwt beam="2">  1       -2 0.53264634E-01 0.75004152E+03</pdfrwt>
<totfact> 0.24514262E+01</totfact>
</mgrwt>
</event>
<event>
 4    2  0.2930016E-007  0.8676044E+03  0.7818608E-02  0.9580177E-01
          2   -1    0    0  501    0  0.00000000000E+00  0.00000000000E+00  0.19676080279E+04  0.19676080279E+04  0.25500000000E-02 0. -1.
         -2   -1    0    0    0  501 -0.00000000000E+00 -0.00000000000E+00 -0.37746501661E+03  0.37746501661E+03  0.25500000000E-02 0.  1.
    8880023    1    1    2    0    0 -0.53657354045E+03 -0.17611350173E+03  0.15274335639E+04  0.17566418611E+04  0.65864270000E+03 0. -1.
    8880022    1    1    2    0    0  0.53657354045E+03  0.17611350173E+03  0.62709447402E+02  0.58843118341E+03  0.15294330000E+03 0.  0.
<mgrwt>
<rscale>  0 0.78622190E+03</rscale>
<asrwt>0</asrwt>
<pdfrwt beam="1">  1        2 0.30270893E+00 0.86760437E+03</pdfrwt>
<pdfrwt beam="2">  1       -2 0.58071540E-01 0.86760437E+03</pdfrwt>
<totfact> 0.19670887E+01</totfact>
</mgrwt>
</event>
<event>
 4    2  0.2930016E-007  0.7047905E+03  0.7818608E-02  0.9977880E-01
          2   -1    0    0  501    0  0.00000000000E+00  0.00000000000E+00  0.76855426428E+03  0.76855426428E+03  0.25500000000E-02 0. -1.
         -2   -1    0    0    0  501 -0.00000000000E+00 -0.00000000000E+00 -0.40977124794E+03  0.40977124795E+03  0.25500000000E-02 0.  1.
    8880023    1    1    2    0    0 -0.24396305859E+03 -0.58322171447E+02  0.48813269426E+03  0.85732326640E+03  0.65864270000E+03 0.  1.
    8880022    1    1    2    0    0  0.24396305859E+03  0.58322171447E+02 -0.12934967792E+03  0.32100224583E+03  0.15294330000E+03 0.  0.
<mgrwt>
<rscale>  0 0.56630887E+03</rscale>
<asrwt>0</asrwt>
<pdfrwt beam="1">  1        2 0.11823912E+00 0.70479050E+03</pdfrwt>
<pdfrwt beam="2">  1       -2 0.63041730E-01 0.70479050E+03</pdfrwt>
<totfact> 0.86009237E+01</totfact>
</mgrwt>
</event>
<event>
 4    2  0.2930016E-007  0.8818490E+03  0.7818608E-02  0.9555821E-01
          2   -1    0    0  501    0  0.00000000000E+00  0.00000000000E+00  0.13844365979E+04  0.13844365979E+04  0.25500000000E-02 0. -1.
         -2   -1    0    0    0  501 -0.00000000000E+00 -0.00000000000E+00 -0.73435799474E+03  0.73435799475E+03  0.25500000000E-02 0.  1.
    8880023    1    1    2    0    0  0.50939986049E+03  0.29044655186E+03  0.10662338856E+04  0.13836590340E+04  0.65864270000E+03 0. -1.
    8880022    1    1    2    0    0 -0.50939986049E+03 -0.29044655186E+03 -0.41615528248E+03  0.73513555859E+03  0.15294330000E+03 0.  0.
<mgrwt>
<rscale>  0 0.80290520E+03</rscale>
<asrwt>0</asrwt>
<pdfrwt beam="1">  1        2 0.21299024E+00 0.88184898E+03</pdfrwt>
<pdfrwt beam="2">  1       -2 0.11297815E+00 0.88184898E+03</pdfrwt>
<totfact> 0.91524295E+00</totfact>
</mgrwt>
</event>
<event>
 4    2  0.2930016E-007  0.1061957E+04  0.7818608E-02  0.9304644E-01
          2   -1    0    0  501    0  0.00000000000E+00  0.00000000000E+00  0.15759209047E+04  0.15759209047E+04  0.25500000000E-02 0. -1.
         -2   -1    0    0    0  501 -0.00000000000E+00 -0.00000000000E+00 -0.60257056990E+03  0.60257056990E+03  0.25500000000E-02 0.  1.
    8880023    1    1    2    0    0  0.79045336190E+03 -0.26291850307E+03  0.32094645936E+03  0.11093960035E+04  0.65864270000E+03 0.  0.
    8880022    1    1    2    0    0 -0.79045336190E+03  0.26291850307E+03  0.65240387548E+03  0.10690954711E+04  0.15294330000E+03 0.  0.
<mgrwt>
<rscale>  0 0.10035648E+04</rscale>
<asrwt>0</asrwt>
<pdfrwt beam="1">  1        2 0.24244937E+00 0.10619571E+04</pdfrwt>
<pdfrwt beam="2">  1       -2 0.92703163E-01 0.10619571E+04</pdfrwt>
<totfact> 0.11245019E+01</totfact>
</mgrwt>
</event>
<event>
 4    2  0.2930016E-007  0.1001225E+04  0.7818608E-02  0.9379956E-01
         -2   -1    0    0    0  501 -0.00000000000E+00  0.00000000000E+00  0.96111499422E+03  0.96111499422E+03  0.25500000000E-02 0.  1.
          2   -1    0    0  501    0  0.00000000000E+00 -0.00000000000E+00 -0.13102565050E+04  0.13102565050E+04  0.25500000000E-02 0. -1.
    8880023    1    1    2    0    0 -0.65283229505E+03 -0.37742773413E+03 -0.88291863040E+03  0.13349146842E+04  0.65864270000E+03 0. -1.
    8880022    1    1    2    0    0  0.65283229505E+03  0.37742773413E+03  0.53377711962E+03  0.93645681502E+03  0.15294330000E+03 0.  1.
<mgrwt>
<rscale>  0 0.93743702E+03</rscale>
<asrwt>0</asrwt>
<pdfrwt beam="1">  1        2 0.20157792E+00 0.10012252E+04</pdfrwt>
<pdfrwt beam="2">  1       -2 0.14786385E+00 0.10012252E+04</pdfrwt>
<totfact> 0.50320297E+00</totfact>
</mgrwt>
</event>
<event>
 4    2  0.2930016E-007  0.8164011E+03  0.7818608E-02  0.9676395E-01
          2   -1    0    0  501    0  0.00000000000E+00  0.00000000000E+00  0.10723767863E+04  0.10723767863E+04  0.25500000000E-02 0. -1.
         -2   -1    0    0    0  501 -0.00000000000E+00 -0.00000000000E+00 -0.12520349164E+04  0.12520349164E+04  0.25500000000E-02 0.  1.
    8880023    1    1    2    0    0 -0.48232894088E+03 -0.77066974895E+01  0.84910571883E+03  0.11779182180E+04  0.65864270000E+03 0. -1.
    8880022    1    1    2    0    0  0.48232894088E+03  0.77066974895E+01 -0.10287638490E+04  0.11464934847E+04  0.15294330000E+03 0.  0.
<mgrwt>
<rscale>  0 0.72439802E+03</rscale>
<asrwt>0</asrwt>
<pdfrwt beam="1">  1        2 0.16498104E+00 0.81640113E+03</pdfrwt>
<pdfrwt beam="2">  1       -2 0.19262076E+00 0.81640113E+03</pdfrwt>
<totfact> 0.34222702E+00</totfact>
</mgrwt>
</event>
<event>
 4    2  0.2930016E-007  0.7402903E+03  0.7818608E-02  0.9859102E-01
         -2   -1    0    0    0  501 -0.00000000000E+00  0.00000000000E+00  0.53437500971E+03  0.53437500972E+03  0.25500000000E-02 0.  1.
          2   -1    0    0  501    0  0.00000000000E+00 -0.00000000000E+00 -0.11720764524E+04  0.11720764524E+04  0.25500000000E-02 0. -1.
    8880023    1    1    2    0    0 -0.22172402448E+03 -0.25506452167E+03 -0.96190104398E+03  0.12137888111E+04  0.65864270000E+03 0. -1.
    8880022    1    1    2    0    0  0.22172402448E+03  0.25506452167E+03  0.32419960128E+03  0.49266265104E+03  0.15294330000E+03 0.  0.
<mgrwt>
<rscale>  0 0.62284963E+03</rscale>
<asrwt>0</asrwt>
<pdfrwt beam="1">  1        2 0.18031945E+00 0.74029025E+03</pdfrwt>
<pdfrwt beam="2">  1       -2 0.82211540E-01 0.74029025E+03</pdfrwt>
<totfact> 0.26087240E+01</totfact>
</mgrwt>
</event>
<event>
 4    2  0.2930016E-007  0.1180078E+04  0.7818608E-02  0.9176736E-01
          2   -1    0    0  501    0  0.00000000000E+00  0.00000000000E+00  0.21877899757E+04  0.21877899757E+04  0.25500000000E-02 0. -1.
         -2   -1    0    0    0  501 -0.00000000000E+00 -0.00000000000E+00 -0.63873495307E+03  0.63873495307E+03  0.25500000000E-02 0.  1.
    8880023    1    1    2    0    0 -0.92933210447E+03  0.30840716435E+03  0.13890531869E+04  0.18226497474E+04  0.65864270000E+03 0.  0.
    8880022    1    1    2    0    0  0.92933210447E+03 -0.30840716435E+03  0.16000183580E+03  0.10038751814E+04  0.15294330000E+03 0.  0.
<mgrwt>
<rscale>  0 0.11296814E+04</rscale>
<asrwt>0</asrwt>
<pdfrwt beam="1">  1        2 0.33658308E+00 0.11800777E+04</pdfrwt>
<pdfrwt beam="2">  1       -2 0.98266915E-01 0.11800777E+04</pdfrwt>
<totfact> 0.44374825E+00</totfact>
</mgrwt>
</event>
<event>
 4    2  0.2930016E-007  0.7359339E+03  0.7818608E-02  0.9871954E-01
          2   -1    0    0  501    0  0.00000000000E+00  0.00000000000E+00  0.13202355394E+04  0.13202355394E+04  0.25500000000E-02 0. -1.
         -2   -1    0    0    0  501 -0.00000000000E+00 -0.00000000000E+00 -0.45508219518E+03  0.45508219518E+03  0.25500000000E-02 0.  1.
    8880023    1    1    2    0    0  0.27260614966E+03 -0.18295996513E+03  0.11145298655E+04  0.13355805813E+04  0.65864270000E+03 0.  0.
    8880022    1    1    2    0    0 -0.27260614966E+03  0.18295996513E+03 -0.24937652125E+03  0.43973715336E+03  0.15294330000E+03 0.  0.
<mgrwt>
<rscale>  0 0.61639995E+03</rscale>
<asrwt>0</asrwt>
<pdfrwt beam="1">  1        2 0.20311316E+00 0.73593387E+03</pdfrwt>
<pdfrwt beam="2">  1       -2 0.70012645E-01 0.73593387E+03</pdfrwt>
<totfact> 0.30551654E+01</totfact>
</mgrwt>
</event>
<event>
 4    2  0.2930016E-007  0.8167584E+03  0.7818608E-02  0.9675668E-01
         -2   -1    0    0    0  501 -0.00000000000E+00  0.00000000000E+00  0.27276516842E+03  0.27276516844E+03  0.25500000000E-02 0.  1.
          2   -1    0    0  501    0  0.00000000000E+00 -0.00000000000E+00 -0.20122562153E+04  0.20122562153E+04  0.25500000000E-02 0. -1.
    8880023    1    1    2    0    0  0.48063118635E+03  0.47725295995E+02 -0.52984799660E+03  0.97356722774E+03  0.65864270000E+03 0.  0.
    8880022    1    1    2    0    0 -0.48063118635E+03 -0.47725295995E+02 -0.12096430502E+04  0.13114541560E+04  0.15294330000E+03 0.  0.
<mgrwt>
<rscale>  0 0.72484190E+03</rscale>
<asrwt>0</asrwt>
<pdfrwt beam="1">  1        2 0.30957787E+00 0.81675838E+03</pdfrwt>
<pdfrwt beam="2">  1       -2 0.41963873E-01 0.81675838E+03</pdfrwt>
<totfact> 0.36228653E+01</totfact>
</mgrwt>
</event>
<event>
 4    2  0.3180272E-007  0.8792691E+03  0.7818608E-02  0.9560166E-01
          2   -1    0    0  501    0  0.00000000000E+00  0.00000000000E+00  0.22972391518E+04  0.22972391518E+04  0.25500000000E-02 0. -1.
         -2   -1    0    0    0  501 -0.00000000000E+00 -0.00000000000E+00 -0.12970838221E+04  0.12970838222E+04  0.25500000000E-02 0.  1.
    8880023    1    1    2    0    0 -0.57776188986E+03 -0.74128680729E+02  0.21353370534E+04  0.23092809272E+04  0.65864270000E+03 0. -1.
    8880022    1    1    2    0    0  0.57776188986E+03  0.74128680729E+02 -0.11351817238E+04  0.12850420467E+04  0.15294330000E+03 0.  0.
<mgrwt>
<rscale>  0 0.79989709E+03</rscale>
<asrwt>0</asrwt>
<pdfrwt beam="1">  1        2 0.35342141E+00 0.87926905E+03</pdfrwt>
<pdfrwt beam="2">  1       -2 0.19955136E+00 0.87926905E+03</pdfrwt>
<totfact> 0.62419594E-01</totfact>
</mgrwt>
</event>
<event>
 4    2  0.2930016E-007  0.6911449E+03  0.7818608E-02  0.1003613E+00
         -2   -1    0    0    0  501 -0.00000000000E+00  0.00000000000E+00  0.45839518986E+03  0.45839518987E+03  0.25500000000E-02 0.  1.
          2   -1    0    0  501    0  0.00000000000E+00 -0.00000000000E+00 -0.10192294174E+04  0.10192294174E+04  0.25500000000E-02 0. -1.
    8880023    1    1    2    0    0  0.19727679790E+02 -0.20852320500E+03 -0.84582407168E+03  0.10922910211E+04  0.65864270000E+03 0. -1.
    8880022    1    1    2    0    0 -0.19727679790E+02  0.20852320500E+03  0.28498984410E+03  0.38533358617E+03  0.15294330000E+03 0.  0.
<mgrwt>
<rscale>  0 0.54093948E+03</rscale>
<asrwt>0</asrwt>
<pdfrwt beam="1">  1        2 0.15680452E+00 0.69114493E+03</pdfrwt>
<pdfrwt beam="2">  1       -2 0.70522337E-01 0.69114493E+03</pdfrwt>
<totfact> 0.45737957E+01</totfact>
</mgrwt>
</event>
<event>
 4    2  0.2930016E-007  0.7326162E+03  0.7818608E-02  0.9882002E-01
          2   -1    0    0  501    0  0.00000000000E+00  0.00000000000E+00  0.25717885891E+04  0.25717885891E+04  0.25500000000E-02 0. -1.
         -2   -1    0    0    0  501 -0.00000000000E+00 -0.00000000000E+00 -0.31561618644E+03  0.31561618645E+03  0.25500000000E-02 0.  1.
    8880023    1    1    2    0    0  0.13365670832E+03  0.29163716230E+03  0.23959897252E+04  0.25054926302E+04  0.65864270000E+03 0. -1.
    8880022    1    1    2    0    0 -0.13365670832E+03 -0.29163716230E+03 -0.13981732255E+03  0.38191214541E+03  0.15294330000E+03 0.  0.
<mgrwt>
<rscale>  0 0.61141525E+03</rscale>
<asrwt>0</asrwt>
<pdfrwt beam="1">  1        2 0.39565978E+00 0.73261624E+03</pdfrwt>
<pdfrwt beam="2">  1       -2 0.48556336E-01 0.73261624E+03</pdfrwt>
<totfact> 0.13366276E+01</totfact>
</mgrwt>
</event>
<event>
 4    2  0.2930016E-007  0.7286438E+03  0.7818608E-02  0.9894355E-01
          2   -1    0    0  501    0  0.00000000000E+00  0.00000000000E+00  0.13759685273E+04  0.13759685273E+04  0.25500000000E-02 0. -1.
         -2   -1    0    0    0  501 -0.00000000000E+00 -0.00000000000E+00 -0.38846334507E+03  0.38846334507E+03  0.25500000000E-02 0.  1.
    8880023    1    1    2    0    0  0.22989832275E+03  0.21037655033E+03  0.11653466440E+04  0.13743924253E+04  0.65864270000E+03 0.  0.
    8880022    1    1    2    0    0 -0.22989832275E+03 -0.21037655033E+03 -0.17784146179E+03  0.39003944708E+03  0.15294330000E+03 0.  0.
<mgrwt>
<rscale>  0 0.60535656E+03</rscale>
<asrwt>0</asrwt>
<pdfrwt beam="1">  1        2 0.21168747E+00 0.72864377E+03</pdfrwt>
<pdfrwt beam="2">  1       -2 0.59763591E-01 0.72864377E+03</pdfrwt>
<totfact> 0.39908128E+01</totfact>
</mgrwt>
</event>
<event>
 4    2  0.2930016E-007  0.1088805E+04  0.7818608E-02  0.9273624E-01
         -2   -1    0    0    0  501 -0.00000000000E+00  0.00000000000E+00  0.10651672584E+04  0.10651672584E+04  0.25500000000E-02 0.  1.
          2   -1    0    0  501    0  0.00000000000E+00 -0.00000000000E+00 -0.19615873638E+04  0.19615873638E+04  0.25500000000E-02 0. -1.
    8880023    1    1    2    0    0  0.84116648006E+03 -0.21005794483E+03 -0.15753426368E+04  0.19149934770E+04  0.65864270000E+03 0.  0.
    8880022    1    1    2    0    0 -0.84116648006E+03  0.21005794483E+03  0.67892253142E+03  0.11117611452E+04  0.15294330000E+03 0.  1.
<mgrwt>
<rscale>  0 0.10324775E+04</rscale>
<asrwt>0</asrwt>
<pdfrwt beam="1">  1        2 0.30178267E+00 0.10888047E+04</pdfrwt>
<pdfrwt beam="2">  1       -2 0.16387189E+00 0.10888047E+04</pdfrwt>
<totfact> 0.16315510E+00</totfact>
</mgrwt>
</event>
<event>
 4    2  0.2930016E-007  0.6606485E+03  0.7818608E-02  0.1023502E+00
         -2   -1    0    0    0  501 -0.00000000000E+00  0.00000000000E+00  0.53372542584E+03  0.53372542584E+03  0.25500000000E-02 0.  1.
          2   -1    0    0  501    0  0.00000000000E+00 -0.00000000000E+00 -0.15213519452E+04  0.15213519452E+04  0.25500000000E-02 0. -1.
    8880023    1    1    2    0    0 -0.42352907745E+02 -0.29197357795E+02 -0.14348485325E+04  0.15796350123E+04  0.65864270000E+03 0. -1.
    8880022    1    1    2    0    0  0.42352907745E+02  0.29197357795E+02  0.44722201312E+03  0.47544235879E+03  0.15294330000E+03 0.  0.
<mgrwt>
<rscale>  0 0.46443892E+03</rscale>
<asrwt>0</asrwt>
<pdfrwt beam="1">  1        2 0.23405414E+00 0.66064852E+03</pdfrwt>
<pdfrwt beam="2">  1       -2 0.82111604E-01 0.66064852E+03</pdfrwt>
<totfact> 0.16687603E+01</totfact>
</mgrwt>
</event>
<event>
 4    2  0.3496781E-007  0.8630562E+03  0.7818608E-02  0.9588150E-01
         -2   -1    0    0    0  501 -0.00000000000E+00  0.00000000000E+00  0.12032466333E+04  0.12032466333E+04  0.25500000000E-02 0.  1.
          2   -1    0    0  501    0  0.00000000000E+00 -0.00000000000E+00 -0.18719061440E+04  0.18719061440E+04  0.25500000000E-02 0. -1.
    8880023    1    1    2    0    0 -0.33925125538E+03  0.44267864167E+03 -0.16921727458E+04  0.18995564224E+04  0.65864270000E+03 0. -1.
    8880022    1    1    2    0    0  0.33925125538E+03 -0.44267864167E+03  0.10235132351E+04  0.11755963548E+04  0.15294330000E+03 0.  0.
<mgrwt>
<rscale>  0 0.78085481E+03</rscale>
<asrwt>0</asrwt>
<pdfrwt beam="1">  1        2 0.28798556E+00 0.86305620E+03</pdfrwt>
<pdfrwt beam="2">  1       -2 0.18511487E+00 0.86305620E+03</pdfrwt>
<totfact> 0.13395210E+00</totfact>
</mgrwt>
</event>
<event>
 4    2  0.2930016E-007  0.8191469E+03  0.7818608E-02  0.9670830E-01
         -2   -1    0    0    0  501 -0.00000000000E+00  0.00000000000E+00  0.67687773720E+03  0.67687773720E+03  0.25500000000E-02 0.  1.
          2   -1    0    0  501    0  0.00000000000E+00 -0.00000000000E+00 -0.16151924377E+04  0.16151924377E+04  0.25500000000E-02 0. -1.
    8880023    1    1    2    0    0  0.10335178256E+03 -0.47593048260E+03 -0.13880564084E+04  0.16117388791E+04  0.65864270000E+03 0.  0.
    8880022    1    1    2    0    0 -0.10335178256E+03  0.47593048260E+03  0.44974170789E+03  0.68033129581E+03  0.15294330000E+03 0.  0.
<mgrwt>
<rscale>  0 0.72780429E+03</rscale>
<asrwt>0</asrwt>
<pdfrwt beam="1">  1        2 0.24849114E+00 0.81914689E+03</pdfrwt>
<pdfrwt beam="2">  1       -2 0.10413504E+00 0.81914689E+03</pdfrwt>
<totfact> 0.83426065E+00</totfact>
</mgrwt>
</event>
<event>
 4    2  0.2930016E-007  0.9153101E+03  0.7818608E-02  0.9501888E-01
          2   -1    0    0  501    0  0.00000000000E+00  0.00000000000E+00  0.22529706585E+04  0.22529706585E+04  0.25500000000E-02 0. -1.
         -2   -1    0    0    0  501 -0.00000000000E+00 -0.00000000000E+00 -0.43451332313E+03  0.43451332314E+03  0.25500000000E-02 0.  1.
    8880023    1    1    2    0    0 -0.27271444890E+03  0.57411602910E+03  0.18161253086E+04  0.20337413130E+04  0.65864270000E+03 0.  0.
    8880022    1    1    2    0    0  0.27271444890E+03 -0.57411602910E+03  0.23320268524E+01  0.65374266870E+03  0.15294330000E+03 0.  0.
<mgrwt>
<rscale>  0 0.84144786E+03</rscale>
<asrwt>0</asrwt>
<pdfrwt beam="1">  1        2 0.34661087E+00 0.91531011E+03</pdfrwt>
<pdfrwt beam="2">  1       -2 0.66848203E-01 0.91531011E+03</pdfrwt>
<totfact> 0.10078689E+01</totfact>
</mgrwt>
</event>
<event>
 4    2  0.2930016E-007  0.7538602E+03  0.7818608E-02  0.9821270E-01
          2   -1    0    0  501    0  0.00000000000E+00  0.00000000000E+00  0.95566003589E+03  0.95566003590E+03  0.25500000000E-02 0. -1.
         -2   -1    0    0    0  501 -0.00000000000E+00 -0.00000000000E+00 -0.66508553827E+03  0.66508553828E+03  0.25500000000E-02 0.  1.
    8880023    1    1    2    0    0 -0.18644920314E+03 -0.31580336382E+03  0.71524185416E+03  0.10391709129E+04  0.65864270000E+03 0.  0.
    8880022    1    1    2    0    0  0.18644920314E+03  0.31580336382E+03 -0.42466735653E+03  0.58157466130E+03  0.15294330000E+03 0.  0.
<mgrwt>
<rscale>  0 0.64233463E+03</rscale>
<asrwt>0</asrwt>
<pdfrwt beam="1">  1        2 0.14702462E+00 0.75386025E+03</pdfrwt>
<pdfrwt beam="2">  1       -2 0.10232085E+00 0.75386025E+03</pdfrwt>
<totfact> 0.21379036E+01</totfact>
</mgrwt>
</event>
<event>
 4    2  0.2930016E-007  0.8348014E+03  0.7818608E-02  0.9640062E-01
         -2   -1    0    0    0  501 -0.00000000000E+00  0.00000000000E+00  0.46792429979E+03  0.46792429980E+03  0.25500000000E-02 0.  1.
          2   -1    0    0  501    0  0.00000000000E+00 -0.00000000000E+00 -0.11535669221E+04  0.11535669221E+04  0.25500000000E-02 0. -1.
    8880023    1    1    2    0    0 -0.50989964870E+03  0.55547805108E+02 -0.69490180616E+03  0.10861776728E+04  0.65864270000E+03 0. -1.
    8880022    1    1    2    0    0  0.50989964870E+03 -0.55547805108E+02  0.92591838160E+01  0.53531354915E+03  0.15294330000E+03 0.  0.
<mgrwt>
<rscale>  0 0.74700447E+03</rscale>
<asrwt>0</asrwt>
<pdfrwt beam="1">  1        2 0.17747183E+00 0.83480142E+03</pdfrwt>
<pdfrwt beam="2">  1       -2 0.71988354E-01 0.83480142E+03</pdfrwt>
<totfact> 0.35659487E+01</totfact>
</mgrwt>
</event>
<event>
 4    2  0.2930016E-007  0.7801905E+03  0.7818608E-02  0.9755390E-01
         -2   -1    0    0    0  501 -0.00000000000E+00  0.00000000000E+00  0.15427305169E+03  0.15427305171E+03  0.25500000000E-02 0.  1.
          2   -1    0    0  501    0  0.00000000000E+00 -0.00000000000E+00 -0.24510946239E+04  0.24510946239E+04  0.25500000000E-02 0. -1.
    8880023    1    1    2    0    0  0.17965076269E+03  0.37764082408E+03 -0.15657505235E+04  0.17493632832E+04  0.65864270000E+03 0. -1.
    8880022    1    1    2    0    0 -0.17965076269E+03 -0.37764082408E+03 -0.73107104875E+03  0.85600439244E+03  0.15294330000E+03 0.  1.
<mgrwt>
<rscale>  0 0.67812535E+03</rscale>
<asrwt>0</asrwt>
<pdfrwt beam="1">  1        2 0.37709145E+00 0.78019049E+03</pdfrwt>
<pdfrwt beam="2">  1       -2 0.23734317E-01 0.78019049E+03</pdfrwt>
<totfact> 0.60526517E+01</totfact>
</mgrwt>
</event>
<event>
 4    2  0.3697033E-007  0.7832915E+03  0.7818608E-02  0.9748161E-01
          2   -1    0    0  501    0  0.00000000000E+00  0.00000000000E+00  0.28422772723E+04  0.28422772723E+04  0.25500000000E-02 0. -1.
         -2   -1    0    0    0  501 -0.00000000000E+00 -0.00000000000E+00 -0.52601804550E+03  0.52601804550E+03  0.25500000000E-02 0.  1.
    8880023    1    1    2    0    0  0.42004655299E+03  0.57413274512E+02  0.26781134402E+04  0.27903113080E+04  0.65864270000E+03 0. -1.
    8880022    1    1    2    0    0 -0.42004655299E+03 -0.57413274512E+02 -0.36185421342E+03  0.57798400977E+03  0.15294330000E+03 0.  0.
<mgrwt>
<rscale>  0 0.68220286E+03</rscale>
<asrwt>0</asrwt>
<pdfrwt beam="1">  1        2 0.43727342E+00 0.78329151E+03</pdfrwt>
<pdfrwt beam="2">  1       -2 0.80925854E-01 0.78329151E+03</pdfrwt>
<totfact> 0.30961600E+00</totfact>
</mgrwt>
</event>
<event>
 4    2  0.2930016E-007  0.7916410E+03  0.7818608E-02  0.9729170E-01
         -2   -1    0    0    0  501 -0.00000000000E+00  0.00000000000E+00  0.25058740085E+03  0.25058740087E+03  0.25500000000E-02 0.  1.
          2   -1    0    0  501    0  0.00000000000E+00 -0.00000000000E+00 -0.42056911458E+04  0.42056911458E+04  0.25500000000E-02 0. -1.
    8880023    1    1    2    0    0  0.44886508834E+02 -0.43688722726E+03 -0.39096664938E+04  0.39890083413E+04  0.65864270000E+03 0. -1.
    8880022    1    1    2    0    0 -0.44886508834E+02  0.43688722726E+03 -0.45437251160E+02  0.46727020537E+03  0.15294330000E+03 0.  0.
<mgrwt>
<rscale>  0 0.69306261E+03</rscale>
<asrwt>0</asrwt>
<pdfrwt beam="1">  1        2 0.64702935E+00 0.79164099E+03</pdfrwt>
<pdfrwt beam="2">  1       -2 0.38551911E-01 0.79164099E+03</pdfrwt>
<totfact> 0.16211614E+00</totfact>
</mgrwt>
</event>
<event>
 4    2  0.2930016E-007  0.1017271E+04  0.7818608E-02  0.9359303E-01
          2   -1    0    0  501    0  0.00000000000E+00  0.00000000000E+00  0.17543732792E+04  0.17543732792E+04  0.25500000000E-02 0. -1.
         -2   -1    0    0    0  501 -0.00000000000E+00 -0.00000000000E+00 -0.13362561270E+04  0.13362561270E+04  0.25500000000E-02 0.  1.
    8880023    1    1    2    0    0 -0.44678128725E+03 -0.63357433570E+03  0.14621837193E+04  0.17812415313E+04  0.65864270000E+03 0.  0.
    8880022    1    1    2    0    0  0.44678128725E+03  0.63357433570E+03 -0.10440665671E+04  0.13093878749E+04  0.15294330000E+03 0.  0.
<mgrwt>
<rscale>  0 0.95501946E+03</rscale>
<asrwt>0</asrwt>
<pdfrwt beam="1">  1        2 0.26990358E+00 0.10172709E+04</pdfrwt>
<pdfrwt beam="2">  1       -2 0.20557787E+00 0.10172709E+04</pdfrwt>
<totfact> 0.11115660E+00</totfact>
</mgrwt>
</event>
<event>
 4    2  0.2930016E-007  0.6912646E+03  0.7818608E-02  0.1003557E+00
          2   -1    0    0  501    0  0.00000000000E+00  0.00000000000E+00  0.91632337403E+03  0.91632337403E+03  0.25500000000E-02 0. -1.
         -2   -1    0    0    0  501 -0.00000000000E+00 -0.00000000000E+00 -0.35439267199E+03  0.35439267200E+03  0.25500000000E-02 0.  1.
    8880023    1    1    2    0    0  0.20977312673E+03  0.56398058041E+01  0.69387833315E+03  0.97944572059E+03  0.65864270000E+03 0. -1.
    8880022    1    1    2    0    0 -0.20977312673E+03 -0.56398058041E+01 -0.13194763111E+03  0.29127032543E+03  0.15294330000E+03 0.  0.
<mgrwt>
<rscale>  0 0.54117592E+03</rscale>
<asrwt>0</asrwt>
<pdfrwt beam="1">  1        2 0.14097282E+00 0.69126462E+03</pdfrwt>
<pdfrwt beam="2">  1       -2 0.54521950E-01 0.69126462E+03</pdfrwt>
<totfact> 0.92111583E+01</totfact>
</mgrwt>
</event>
<event>
 4    2  0.2930016E-007  0.8972851E+03  0.7818608E-02  0.9530404E-01
          2   -1    0    0  501    0  0.00000000000E+00  0.00000000000E+00  0.30615548431E+04  0.30615548431E+04  0.25500000000E-02 0. -1.
         -2   -1    0    0    0  501 -0.00000000000E+00 -0.00000000000E+00 -0.38832735620E+03  0.38832735621E+03  0.25500000000E-02 0.  1.
    8880023    1    1    2    0    0  0.24063129219E+03  0.55982763715E+03  0.26751547704E+04  0.28216260656E+04  0.65864270000E+03 0.  0.
    8880022    1    1    2    0    0 -0.24063129219E+03 -0.55982763715E+03 -0.19272835261E+01  0.62825613370E+03  0.15294330000E+03 0.  0.
<mgrwt>
<rscale>  0 0.82078900E+03</rscale>
<asrwt>0</asrwt>
<pdfrwt beam="1">  1        2 0.47100844E+00 0.89728513E+03</pdfrwt>
<pdfrwt beam="2">  1       -2 0.59742670E-01 0.89728513E+03</pdfrwt>
<totfact> 0.43303439E+00</totfact>
</mgrwt>
</event>
<event>
 4    2  0.2930016E-007  0.1195236E+04  0.7818608E-02  0.9161767E-01
         -2   -1    0    0    0  501 -0.00000000000E+00  0.00000000000E+00  0.57175947475E+03  0.57175947476E+03  0.25500000000E-02 0.  1.
          2   -1    0    0  501    0  0.00000000000E+00 -0.00000000000E+00 -0.54985522052E+04  0.54985522052E+04  0.25500000000E-02 0. -1.
    8880023    1    1    2    0    0  0.43294912473E+03 -0.89851808750E+03 -0.49180739653E+04  0.50612292413E+04  0.65864270000E+03 0.  0.
    8880022    1    1    2    0    0 -0.43294912473E+03  0.89851808750E+03 -0.87187651330E+01  0.10090824387E+04  0.15294330000E+03 0.  0.
<mgrwt>
<rscale>  0 0.11456922E+04</rscale>
<asrwt>0</asrwt>
<pdfrwt beam="1">  1        2 0.84593107E+00 0.11952363E+04</pdfrwt>
<pdfrwt beam="2">  1       -2 0.87963000E-01 0.11952363E+04</pdfrwt>
<totfact> 0.72955877E-03</totfact>
</mgrwt>
</event>
<event>
 4    2  0.2930016E-007  0.7156856E+03  0.7818608E-02  0.9937464E-01
         -2   -1    0    0    0  501 -0.00000000000E+00  0.00000000000E+00  0.18486229660E+03  0.18486229662E+03  0.25500000000E-02 0.  1.
          2   -1    0    0  501    0  0.00000000000E+00 -0.00000000000E+00 -0.22153714697E+04  0.22153714697E+04  0.25500000000E-02 0. -1.
    8880023    1    1    2    0    0  0.17169429971E+03 -0.22117125545E+03 -0.19412000793E+04  0.20689281310E+04  0.65864270000E+03 0. -1.
    8880022    1    1    2    0    0 -0.17169429971E+03  0.22117125545E+03 -0.89309093775E+02  0.33130563538E+03  0.15294330000E+03 0.  0.
<mgrwt>
<rscale>  0 0.58479467E+03</rscale>
<asrwt>0</asrwt>
<pdfrwt beam="1">  1        2 0.34082636E+00 0.71568559E+03</pdfrwt>
<pdfrwt beam="2">  1       -2 0.28440355E-01 0.71568559E+03</pdfrwt>
<totfact> 0.59460731E+01</totfact>
</mgrwt>
</event>
<event>
 4    2  0.2930016E-007  0.8212053E+03  0.7818608E-02  0.9666693E-01
         -2   -1    0    0    0  501 -0.00000000000E+00  0.00000000000E+00  0.27121243470E+03  0.27121243471E+03  0.25500000000E-02 0.  1.
          2   -1    0    0  501    0  0.00000000000E+00 -0.00000000000E+00 -0.17868480067E+04  0.17868480067E+04  0.25500000000E-02 0. -1.
    8880023    1    1    2    0    0  0.31670880508E+03 -0.37451759618E+03 -0.12032549948E+04  0.14567775005E+04  0.65864270000E+03 0.  0.
    8880022    1    1    2    0    0 -0.31670880508E+03  0.37451759618E+03 -0.31238057719E+03  0.60128294095E+03  0.15294330000E+03 0.  0.
<mgrwt>
<rscale>  0 0.73034989E+03</rscale>
<asrwt>0</asrwt>
<pdfrwt beam="1">  1        2 0.27489969E+00 0.82120527E+03</pdfrwt>
<pdfrwt beam="2">  1       -2 0.41724991E-01 0.82120527E+03</pdfrwt>
<totfact> 0.48637686E+01</totfact>
</mgrwt>
</event>
<event>
 4    2  0.2930016E-007  0.7031875E+03  0.7818608E-02  0.9984226E-01
          2   -1    0    0  501    0  0.00000000000E+00  0.00000000000E+00  0.58708407539E+03  0.58708407539E+03  0.25500000000E-02 0. -1.
         -2   -1    0    0    0  501 -0.00000000000E+00 -0.00000000000E+00 -0.50110806059E+03  0.50110806060E+03  0.25500000000E-02 0.  1.
    8880023    1    1    2    0    0 -0.23060355181E+03 -0.86513027156E+02  0.26039123321E+03  0.74985085355E+03  0.65864270000E+03 0.  1.
    8880022    1    1    2    0    0  0.23060355181E+03  0.86513027156E+02 -0.17441521841E+03  0.33834128244E+03  0.15294330000E+03 0.  0.
<mgrwt>
<rscale>  0 0.56347321E+03</rscale>
<asrwt>0</asrwt>
<pdfrwt beam="1">  1        2 0.90320628E-01 0.70318753E+03</pdfrwt>
<pdfrwt beam="2">  1       -2 0.77093547E-01 0.70318753E+03</pdfrwt>
<totfact> 0.77603999E+01</totfact>
</mgrwt>
</event>
<event>
 4    2  0.2930016E-007  0.7321814E+03  0.7818608E-02  0.9883337E-01
         -2   -1    0    0    0  501 -0.00000000000E+00  0.00000000000E+00  0.92271107887E+03  0.92271107887E+03  0.25500000000E-02 0.  1.
          2   -1    0    0  501    0  0.00000000000E+00 -0.00000000000E+00 -0.10374866468E+04  0.10374866468E+04  0.25500000000E-02 0. -1.
    8880023    1    1    2    0    0 -0.26832730223E+03  0.17401090653E+03 -0.86329509462E+03  0.11319752486E+04  0.65864270000E+03 0.  0.
    8880022    1    1    2    0    0  0.26832730223E+03 -0.17401090653E+03  0.74851952669E+03  0.82822247710E+03  0.15294330000E+03 0.  0.
<mgrwt>
<rscale>  0 0.61075690E+03</rscale>
<asrwt>0</asrwt>
<pdfrwt beam="1">  1        2 0.15961333E+00 0.73218136E+03</pdfrwt>
<pdfrwt beam="2">  1       -2 0.14195555E+00 0.73218136E+03</pdfrwt>
<totfact> 0.84286113E+00</totfact>
</mgrwt>
</event>
<event>
 4    2  0.2930016E-007  0.7021754E+03  0.7818608E-02  0.9988294E-01
         -2   -1    0    0    0  501 -0.00000000000E+00  0.00000000000E+00  0.38843588448E+03  0.38843588448E+03  0.25500000000E-02 0.  1.
          2   -1    0    0  501    0  0.00000000000E+00 -0.00000000000E+00 -0.77834435188E+03  0.77834435188E+03  0.25500000000E-02 0. -1.
    8880023    1    1    2    0    0 -0.14986272323E+03 -0.19178422021E+03 -0.49673617826E+03  0.86011456213E+03  0.65864270000E+03 0. -1.
    8880022    1    1    2    0    0  0.14986272323E+03  0.19178422021E+03  0.10682771085E+03  0.30666567424E+03  0.15294330000E+03 0.  0.
<mgrwt>
<rscale>  0 0.56166519E+03</rscale>
<asrwt>0</asrwt>
<pdfrwt beam="1">  1        2 0.11974528E+00 0.70217536E+03</pdfrwt>
<pdfrwt beam="2">  1       -2 0.59759367E-01 0.70217536E+03</pdfrwt>
<totfact> 0.94772317E+01</totfact>
</mgrwt>
</event>
<event>
 4    2  0.2930016E-007  0.7409815E+03  0.7818608E-02  0.9857097E-01
         -2   -1    0    0    0  501 -0.00000000000E+00  0.00000000000E+00  0.10918242918E+03  0.10918242921E+03  0.25500000000E-02 0.  1.
          2   -1    0    0  501    0  0.00000000000E+00 -0.00000000000E+00 -0.28941815237E+04  0.28941815237E+04  0.25500000000E-02 0. -1.
    8880023    1    1    2    0    0  0.32175435885E+01 -0.33945993995E+03 -0.16471542308E+04  0.18061480199E+04  0.65864270000E+03 0.  0.
    8880022    1    1    2    0    0 -0.32175435885E+01  0.33945993995E+03 -0.11378448637E+04  0.11972159330E+04  0.15294330000E+03 0.  0.
<mgrwt>
<rscale>  0 0.62386363E+03</rscale>
<asrwt>0</asrwt>
<pdfrwt beam="1">  1        2 0.44525864E+00 0.74098152E+03</pdfrwt>
<pdfrwt beam="2">  1       -2 0.16797299E-01 0.74098152E+03</pdfrwt>
<totfact> 0.61612332E+01</totfact>
</mgrwt>
</event>
<event>
 4    2  0.2930016E-007  0.9538923E+03  0.7818608E-02  0.9444536E-01
         -2   -1    0    0    0  501 -0.00000000000E+00  0.00000000000E+00  0.68019196776E+03  0.68019196777E+03  0.25500000000E-02 0.  1.
          2   -1    0    0  501    0  0.00000000000E+00 -0.00000000000E+00 -0.21074797163E+04  0.21074797163E+04  0.25500000000E-02 0. -1.
    8880023    1    1    2    0    0  0.59662884580E+03 -0.34660406375E+03 -0.17635563099E+04  0.20050040950E+04  0.65864270000E+03 0.  0.
    8880022    1    1    2    0    0 -0.59662884580E+03  0.34660406375E+03  0.33626856132E+03  0.78266758907E+03  0.15294330000E+03 0.  0.
<mgrwt>
<rscale>  0 0.88499452E+03</rscale>
<asrwt>0</asrwt>
<pdfrwt beam="1">  1        2 0.32422765E+00 0.95389232E+03</pdfrwt>
<pdfrwt beam="2">  1       -2 0.10464492E+00 0.95389232E+03</pdfrwt>
<totfact> 0.43457588E+00</totfact>
</mgrwt>
</event>
<event>
 4    2  0.2930016E-007  0.6922607E+03  0.7818608E-02  0.1003096E+00
         -2   -1    0    0    0  501 -0.00000000000E+00  0.00000000000E+00  0.69533007643E+03  0.69533007644E+03  0.25500000000E-02 0.  1.
          2   -1    0    0  501    0  0.00000000000E+00 -0.00000000000E+00 -0.17552951415E+04  0.17552951415E+04  0.25500000000E-02 0. -1.
    8880023    1    1    2    0    0  0.13119478117E+03  0.16793633380E+03 -0.16584764694E+04  0.17971558331E+04  0.65864270000E+03 0. -1.
    8880022    1    1    2    0    0 -0.13119478117E+03 -0.16793633380E+03  0.59851140430E+03  0.65346938483E+03  0.15294330000E+03 0.  0.
<mgrwt>
<rscale>  0 0.54313253E+03</rscale>
<asrwt>0</asrwt>
<pdfrwt beam="1">  1        2 0.27004540E+00 0.69226071E+03</pdfrwt>
<pdfrwt beam="2">  1       -2 0.10697386E+00 0.69226071E+03</pdfrwt>
<totfact> 0.66764691E+00</totfact>
</mgrwt>
</event>
<event>
 4    2  0.2930016E-007  0.7153301E+03  0.7818608E-02  0.9938716E-01
         -2   -1    0    0    0  501 -0.00000000000E+00  0.00000000000E+00  0.96495459719E+03  0.96495459720E+03  0.25500000000E-02 0.  1.
          2   -1    0    0  501    0  0.00000000000E+00 -0.00000000000E+00 -0.93555367326E+03  0.93555367326E+03  0.25500000000E-02 0. -1.
    8880023    1    1    2    0    0 -0.18632045002E+03 -0.20777788034E+03 -0.76342748026E+03  0.10461924687E+04  0.65864270000E+03 0. -1.
    8880022    1    1    2    0    0  0.18632045002E+03  0.20777788034E+03  0.79282840419E+03  0.85431580178E+03  0.15294330000E+03 0.  0.
<mgrwt>
<rscale>  0 0.58421082E+03</rscale>
<asrwt>0</asrwt>
<pdfrwt beam="1">  1        2 0.14393133E+00 0.71533011E+03</pdfrwt>
<pdfrwt beam="2">  1       -2 0.14845455E+00 0.71533011E+03</pdfrwt>
<totfact> 0.87342991E+00</totfact>
</mgrwt>
</event>
<event>
 4    2  0.2930016E-007  0.1153985E+04  0.7818608E-02  0.9203204E-01
          2   -1    0    0  501    0  0.00000000000E+00  0.00000000000E+00  0.41734650384E+04  0.41734650384E+04  0.25500000000E-02 0. -1.
         -2   -1    0    0    0  501 -0.00000000000E+00 -0.00000000000E+00 -0.31892252108E+03  0.31892252109E+03  0.25500000000E-02 0.  1.
    8880023    1    1    2    0    0 -0.76599572410E+03  0.55778210388E+03  0.29732377424E+04  0.31893295853E+04  0.65864270000E+03 0.  0.
    8880022    1    1    2    0    0  0.76599572410E+03 -0.55778210388E+03  0.88130477494E+03  0.13030579742E+04  0.15294330000E+03 0.  0.
<mgrwt>
<rscale>  0 0.11020414E+04</rscale>
<asrwt>0</asrwt>
<pdfrwt beam="1">  1        2 0.64207152E+00 0.11539846E+04</pdfrwt>
<pdfrwt beam="2">  1       -2 0.49065005E-01 0.11539846E+04</pdfrwt>
<totfact> 0.99685831E-01</totfact>
</mgrwt>
</event>
<event>
 4    2  0.2930016E-007  0.1116101E+04  0.7818608E-02  0.9243338E-01
          2   -1    0    0  501    0  0.00000000000E+00  0.00000000000E+00  0.22296523259E+04  0.22296523259E+04  0.25500000000E-02 0. -1.
         -2   -1    0    0    0  501 -0.00000000000E+00 -0.00000000000E+00 -0.52802904488E+03  0.52802904488E+03  0.25500000000E-02 0.  1.
    8880023    1    1    2    0    0 -0.81198626155E+03 -0.39057689923E+03  0.43974927254E+03  0.11996089497E+04  0.65864270000E+03 0.  0.
    8880022    1    1    2    0    0  0.81198626155E+03  0.39057689923E+03  0.12618740085E+04  0.15580724211E+04  0.15294330000E+03 0.  0.
<mgrwt>
<rscale>  0 0.10617094E+04</rscale>
<asrwt>0</asrwt>
<pdfrwt beam="1">  1        2 0.34302344E+00 0.11161013E+04</pdfrwt>
<pdfrwt beam="2">  1       -2 0.81235236E-01 0.11161013E+04</pdfrwt>
<totfact> 0.65823502E+00</totfact>
</mgrwt>
</event>
<event>
 4    2  0.2930016E-007  0.7980101E+03  0.7818608E-02  0.9715115E-01
          2   -1    0    0  501    0  0.00000000000E+00  0.00000000000E+00  0.11339864644E+04  0.11339864644E+04  0.25500000000E-02 0. -1.
         -2   -1    0    0    0  501 -0.00000000000E+00 -0.00000000000E+00 -0.54333529857E+03  0.54333529858E+03  0.25500000000E-02 0.  1.
    8880023    1    1    2    0    0 -0.37523812787E+03  0.24941173989E+03  0.82424537830E+03  0.11472578257E+04  0.65864270000E+03 0. -1.
    8880022    1    1    2    0    0  0.37523812787E+03 -0.24941173989E+03 -0.23359421243E+03  0.53006393737E+03  0.15294330000E+03 0.  0.
<mgrwt>
<rscale>  0 0.70123922E+03</rscale>
<asrwt>0</asrwt>
<pdfrwt beam="1">  1        2 0.17445945E+00 0.79801007E+03</pdfrwt>
<pdfrwt beam="2">  1       -2 0.83590047E-01 0.79801007E+03</pdfrwt>
<totfact> 0.26326787E+01</totfact>
</mgrwt>
</event>
<event>
 4    2  0.2930016E-007  0.1157443E+04  0.7818608E-02  0.9199644E-01
         -2   -1    0    0    0  501 -0.00000000000E+00  0.00000000000E+00  0.79854783426E+03  0.79854783427E+03  0.25500000000E-02 0.  1.
          2   -1    0    0  501    0  0.00000000000E+00 -0.00000000000E+00 -0.20230875537E+04  0.20230875537E+04  0.25500000000E-02 0. -1.
    8880023    1    1    2    0    0  0.89816529169E+03  0.31490125734E+03 -0.14262204877E+04  0.18367849027E+04  0.65864270000E+03 0. -1.
    8880022    1    1    2    0    0 -0.89816529169E+03 -0.31490125734E+03  0.20168076823E+03  0.98485048528E+03  0.15294330000E+03 0.  0.
<mgrwt>
<rscale>  0 0.11057108E+04</rscale>
<asrwt>0</asrwt>
<pdfrwt beam="1">  1        2 0.31124424E+00 0.11574428E+04</pdfrwt>
<pdfrwt beam="2">  1       -2 0.12285351E+00 0.11574428E+04</pdfrwt>
<totfact> 0.31852311E+00</totfact>
</mgrwt>
</event>
<event>
 4    2  0.2930016E-007  0.6586805E+03  0.7818608E-02  0.1025551E+00
          2   -1    0    0  501    0  0.00000000000E+00  0.00000000000E+00  0.78588148845E+03  0.78588148845E+03  0.25500000000E-02 0. -1.
         -2   -1    0    0    0  501 -0.00000000000E+00 -0.00000000000E+00 -0.24074955164E+03  0.24074955166E+03  0.25500000000E-02 0.  1.
    8880023    1    1    2    0    0  0.46946332562E+01 -0.52699974843E+01  0.57055133883E+03  0.87142919905E+03  0.65864270000E+03 0. -1.
    8880022    1    1    2    0    0 -0.46946332562E+01  0.52699974843E+01 -0.25419402018E+02  0.15520184106E+03  0.15294330000E+03 0.  0.
<mgrwt>
<rscale>  0 0.45735582E+03</rscale>
<asrwt>0</asrwt>
<pdfrwt beam="1">  1        2 0.12090484E+00 0.65868051E+03</pdfrwt>
<pdfrwt beam="2">  1       -2 0.37038392E-01 0.65868051E+03</pdfrwt>
<totfact> 0.24546520E+02</totfact>
</mgrwt>
</event>
<event>
 4    2  0.2930016E-007  0.7062984E+03  0.7818608E-02  0.9972012E-01
          2   -1    0    0  501    0  0.00000000000E+00  0.00000000000E+00  0.63741668287E+03  0.63741668287E+03  0.25500000000E-02 0. -1.
         -2   -1    0    0    0  501 -0.00000000000E+00 -0.00000000000E+00 -0.47300934852E+03  0.47300934853E+03  0.25500000000E-02 0.  1.
    8880023    1    1    2    0    0  0.25307552175E+03 -0.31623732306E+02  0.31929985098E+03  0.77511926905E+03  0.65864270000E+03 0. -1.
    8880022    1    1    2    0    0 -0.25307552175E+03  0.31623732306E+02 -0.15489251663E+03  0.33530676235E+03  0.15294330000E+03 0.  1.
<mgrwt>
<rscale>  0 0.56894675E+03</rscale>
<asrwt>0</asrwt>
<pdfrwt beam="1">  1        2 0.98064105E-01 0.70629844E+03</pdfrwt>
<pdfrwt beam="2">  1       -2 0.72770669E-01 0.70629844E+03</pdfrwt>
<totfact> 0.79799720E+01</totfact>
</mgrwt>
</event>
<event>
 4    2  0.2930016E-007  0.1368957E+04  0.7818608E-02  0.9008187E-01
          2   -1    0    0  501    0  0.00000000000E+00  0.00000000000E+00  0.19188487355E+04  0.19188487355E+04  0.25500000000E-02 0. -1.
         -2   -1    0    0    0  501 -0.00000000000E+00 -0.00000000000E+00 -0.98491041032E+03  0.98491041033E+03  0.25500000000E-02 0.  1.
    8880023    1    1    2    0    0  0.45955598576E+03  0.11086212864E+04  0.99509380476E+03  0.16924109274E+04  0.65864270000E+03 0.  0.
    8880022    1    1    2    0    0 -0.45955598576E+03 -0.11086212864E+04 -0.61155479566E+02  0.12113482184E+04  0.15294330000E+03 0.  0.
<mgrwt>
<rscale>  0 0.13273060E+04</rscale>
<asrwt>0</asrwt>
<pdfrwt beam="1">  1        2 0.29520750E+00 0.13689569E+04</pdfrwt>
<pdfrwt beam="2">  1       -2 0.15152468E+00 0.13689569E+04</pdfrwt>
<totfact> 0.20670460E+00</totfact>
</mgrwt>
</event>
<event>
 4    2  0.2930016E-007  0.7063213E+03  0.7818608E-02  0.9971924E-01
          2   -1    0    0  501    0  0.00000000000E+00  0.00000000000E+00  0.82928704999E+03  0.82928704999E+03  0.25500000000E-02 0. -1.
         -2   -1    0    0    0  501 -0.00000000000E+00 -0.00000000000E+00 -0.34359108522E+03  0.34359108523E+03  0.25500000000E-02 0.  1.
    8880023    1    1    2    0    0  0.86574347421E+02 -0.23996747784E+03  0.51479691272E+03  0.87401691955E+03  0.65864270000E+03 0. -1.
    8880022    1    1    2    0    0 -0.86574347421E+02  0.23996747784E+03 -0.29100947950E+02  0.29886121568E+03  0.15294330000E+03 0.  0.
<mgrwt>
<rscale>  0 0.56898645E+03</rscale>
<asrwt>0</asrwt>
<pdfrwt beam="1">  1        2 0.12758262E+00 0.70632125E+03</pdfrwt>
<pdfrwt beam="2">  1       -2 0.52860167E-01 0.70632125E+03</pdfrwt>
<totfact> 0.11246350E+02</totfact>
</mgrwt>
</event>
<event>
 4    2  0.2930016E-007  0.6635148E+03  0.7818608E-02  0.1020813E+00
          2   -1    0    0  501    0  0.00000000000E+00  0.00000000000E+00  0.15348149088E+04  0.15348149088E+04  0.25500000000E-02 0. -1.
         -2   -1    0    0    0  501 -0.00000000000E+00 -0.00000000000E+00 -0.19077752860E+03  0.19077752861E+03  0.25500000000E-02 0.  1.
    8880023    1    1    2    0    0  0.46128261629E+02 -0.65680166789E+02  0.13956312543E+04  0.15453279604E+04  0.65864270000E+03 0. -1.
    8880022    1    1    2    0    0 -0.46128261629E+02  0.65680166789E+02 -0.51593874092E+02  0.18026447706E+03  0.15294330000E+03 0.  0.
<mgrwt>
<rscale>  0 0.47394258E+03</rscale>
<asrwt>0</asrwt>
<pdfrwt beam="1">  1        2 0.23612537E+00 0.66351481E+03</pdfrwt>
<pdfrwt beam="2">  1       -2 0.29350389E-01 0.66351481E+03</pdfrwt>
<totfact> 0.13281969E+02</totfact>
</mgrwt>
</event>
<event>
 4    2  0.2930016E-007  0.7700887E+03  0.7818608E-02  0.9779656E-01
          2   -1    0    0  501    0  0.00000000000E+00  0.00000000000E+00  0.21066757208E+04  0.21066757208E+04  0.25500000000E-02 0. -1.
         -2   -1    0    0    0  501 -0.00000000000E+00 -0.00000000000E+00 -0.46893738887E+03  0.46893738888E+03  0.25500000000E-02 0.  1.
    8880023    1    1    2    0    0 -0.22197894568E+03  0.33158978018E+03  0.19164725601E+04  0.20654064284E+04  0.65864270000E+03 0. -1.
    8880022    1    1    2    0    0  0.22197894568E+03 -0.33158978018E+03 -0.27873422816E+03  0.51020668127E+03  0.15294330000E+03 0.  0.
<mgrwt>
<rscale>  0 0.66465847E+03</rscale>
<asrwt>0</asrwt>
<pdfrwt beam="1">  1        2 0.32410397E+00 0.77008872E+03</pdfrwt>
<pdfrwt beam="2">  1       -2 0.72144211E-01 0.77008872E+03</pdfrwt>
<totfact> 0.10488507E+01</totfact>
</mgrwt>
</event>
<event>
 4    2  0.2930016E-007  0.7064107E+03  0.7818608E-02  0.9971579E-01
         -2   -1    0    0    0  501 -0.00000000000E+00  0.00000000000E+00  0.34049536152E+03  0.34049536153E+03  0.25500000000E-02 0.  1.
          2   -1    0    0  501    0  0.00000000000E+00 -0.00000000000E+00 -0.76166475757E+03  0.76166475758E+03  0.25500000000E-02 0. -1.
    8880023    1    1    2    0    0  0.25331646678E+03 -0.32195818690E+02 -0.37862517982E+03  0.80148177530E+03  0.65864270000E+03 0.  0.
    8880022    1    1    2    0    0 -0.25331646678E+03  0.32195818690E+02 -0.42544216235E+02  0.30067834381E+03  0.15294330000E+03 0.  0.
<mgrwt>
<rscale>  0 0.56914193E+03</rscale>
<asrwt>0</asrwt>
<pdfrwt beam="1">  1        2 0.11717919E+00 0.70641065E+03</pdfrwt>
<pdfrwt beam="2">  1       -2 0.52383902E-01 0.70641065E+03</pdfrwt>
<totfact> 0.12818379E+02</totfact>
</mgrwt>
</event>
<event>
 4    2  0.2930016E-007  0.9520224E+03  0.7818608E-02  0.9447210E-01
          2   -1    0    0  501    0  0.00000000000E+00  0.00000000000E+00  0.20889789717E+04  0.20889789717E+04  0.25500000000E-02 0. -1.
         -2   -1    0    0    0  501 -0.00000000000E+00 -0.00000000000E+00 -0.52094671151E+03  0.52094671152E+03  0.25500000000E-02 0.  1.
    8880023    1    1    2    0    0  0.16108915226E+03  0.66827141029E+03  0.16459093656E+04  0.19014111178E+04  0.65864270000E+03 0.  0.
    8880022    1    1    2    0    0 -0.16108915226E+03 -0.66827141029E+03 -0.77877105474E+02  0.70851456538E+03  0.15294330000E+03 0.  0.
<mgrwt>
<rscale>  0 0.88290240E+03</rscale>
<asrwt>0</asrwt>
<pdfrwt beam="1">  1        2 0.32138138E+00 0.95202237E+03</pdfrwt>
<pdfrwt beam="2">  1       -2 0.80145648E-01 0.95202237E+03</pdfrwt>
<totfact> 0.82796638E+00</totfact>
</mgrwt>
</event>
<event>
 4    2  0.2930016E-007  0.8412720E+03  0.7818608E-02  0.9627786E-01
          2   -1    0    0  501    0  0.00000000000E+00  0.00000000000E+00  0.22387854840E+04  0.22387854840E+04  0.25500000000E-02 0. -1.
         -2   -1    0    0    0  501 -0.00000000000E+00 -0.00000000000E+00 -0.34593037623E+03  0.34593037623E+03  0.25500000000E-02 0.  1.
    8880023    1    1    2    0    0  0.52140146351E+03  0.45484394198E+02  0.28710918908E+03  0.88891518661E+03  0.65864270000E+03 0.  1.
    8880022    1    1    2    0    0 -0.52140146351E+03 -0.45484394198E+02  0.16057459187E+04  0.16958006736E+04  0.15294330000E+03 0.  0.
<mgrwt>
<rscale>  0 0.75484072E+03</rscale>
<asrwt>0</asrwt>
<pdfrwt beam="1">  1        2 0.34442854E+00 0.84127197E+03</pdfrwt>
<pdfrwt beam="2">  1       -2 0.53220057E-01 0.84127197E+03</pdfrwt>
<totfact> 0.16783119E+01</totfact>
</mgrwt>
</event>
<event>
 4    2  0.2930016E-007  0.8216288E+03  0.7818608E-02  0.9665845E-01
          2   -1    0    0  501    0  0.00000000000E+00  0.00000000000E+00  0.36273263948E+04  0.36273263948E+04  0.25500000000E-02 0. -1.
         -2   -1    0    0    0  501 -0.00000000000E+00 -0.00000000000E+00 -0.14443469228E+03  0.14443469231E+03  0.25500000000E-02 0.  1.
    8880023    1    1    2    0    0  0.40660713243E+02  0.48950014957E+03  0.27919370567E+04  0.29103241100E+04  0.65864270000E+03 0. -1.
    8880022    1    1    2    0    0 -0.40660713243E+02 -0.48950014957E+03  0.69095464576E+03  0.86143697711E+03  0.15294330000E+03 0.  0.
<mgrwt>
<rscale>  0 0.73087285E+03</rscale>
<asrwt>0</asrwt>
<pdfrwt beam="1">  1        2 0.55805012E+00 0.82162881E+03</pdfrwt>
<pdfrwt beam="2">  1       -2 0.22220726E-01 0.82162881E+03</pdfrwt>
<totfact> 0.12502724E+01</totfact>
</mgrwt>
</event>
<event>
 4    2  0.2930016E-007  0.7423977E+03  0.7818608E-02  0.9853017E-01
          2   -1    0    0  501    0  0.00000000000E+00  0.00000000000E+00  0.29380592840E+04  0.29380592840E+04  0.25500000000E-02 0. -1.
         -2   -1    0    0    0  501 -0.00000000000E+00 -0.00000000000E+00 -0.19443373550E+03  0.19443373551E+03  0.25500000000E-02 0.  1.
    8880023    1    1    2    0    0  0.22493156483E+03 -0.25836016033E+03  0.26412850515E+04  0.27436364757E+04  0.65864270000E+03 0. -1.
    8880022    1    1    2    0    0 -0.22493156483E+03  0.25836016033E+03  0.10234049698E+03  0.38885654378E+03  0.15294330000E+03 0.  0.
<mgrwt>
<rscale>  0 0.62593331E+03</rscale>
<asrwt>0</asrwt>
<pdfrwt beam="1">  1        2 0.45200910E+00 0.74239773E+03</pdfrwt>
<pdfrwt beam="2">  1       -2 0.29912884E-01 0.74239773E+03</pdfrwt>
<totfact> 0.20764425E+01</totfact>
</mgrwt>
</event>
<event>
 4    2  0.2930016E-007  0.1026069E+04  0.7818608E-02  0.9348219E-01
          2   -1    0    0  501    0  0.00000000000E+00  0.00000000000E+00  0.65685335316E+03  0.65685335317E+03  0.25500000000E-02 0. -1.
         -2   -1    0    0    0  501 -0.00000000000E+00 -0.00000000000E+00 -0.13622597675E+04  0.13622597675E+04  0.25500000000E-02 0.  1.
    8880023    1    1    2    0    0  0.60650836926E+03  0.50115342331E+03 -0.65229786107E+03  0.12158576650E+04  0.65864270000E+03 0.  0.
    8880022    1    1    2    0    0 -0.60650836926E+03 -0.50115342331E+03 -0.53108553293E+02  0.80325545571E+03  0.15294330000E+03 0.  0.
<mgrwt>
<rscale>  0 0.96462382E+03</rscale>
<asrwt>0</asrwt>
<pdfrwt beam="1">  1        2 0.10105436E+00 0.10260689E+04</pdfrwt>
<pdfrwt beam="2">  1       -2 0.20957842E+00 0.10260689E+04</pdfrwt>
<totfact> 0.50730940E+00</totfact>
</mgrwt>
</event>
<event>
 4    2  0.2930016E-007  0.6610356E+03  0.7818608E-02  0.1023120E+00
          2   -1    0    0  501    0  0.00000000000E+00  0.00000000000E+00  0.31160152811E+04  0.31160152811E+04  0.25500000000E-02 0. -1.
         -2   -1    0    0    0  501 -0.00000000000E+00 -0.00000000000E+00 -0.24530495739E+03  0.24530495740E+03  0.25500000000E-02 0.  1.
    8880023    1    1    2    0    0 -0.50863442249E+02  0.23889416705E+02  0.30489741429E+04  0.31198095012E+04  0.65864270000E+03 0. -1.
    8880022    1    1    2    0    0  0.50863442249E+02 -0.23889416705E+02 -0.17826381913E+03  0.24151073727E+03  0.15294330000E+03 0.  0.
<mgrwt>
<rscale>  0 0.46577433E+03</rscale>
<asrwt>0</asrwt>
<pdfrwt beam="1">  1        2 0.47938697E+00 0.66103555E+03</pdfrwt>
<pdfrwt beam="2">  1       -2 0.37739224E-01 0.66103555E+03</pdfrwt>
<totfact> 0.10566340E+01</totfact>
</mgrwt>
</event>
<event>
 4    2  0.2930016E-007  0.8588129E+03  0.7818608E-02  0.9595679E-01
          2   -1    0    0  501    0  0.00000000000E+00  0.00000000000E+00  0.41930228448E+03  0.41930228449E+03  0.25500000000E-02 0. -1.
         -2   -1    0    0    0  501 -0.00000000000E+00 -0.00000000000E+00 -0.23374686518E+04  0.23374686518E+04  0.25500000000E-02 0.  1.
    8880023    1    1    2    0    0  0.50292695555E+03  0.22541942386E+03 -0.11672425932E+03  0.86670883129E+03  0.65864270000E+03 0. -1.
    8880022    1    1    2    0    0 -0.50292695555E+03 -0.22541942386E+03 -0.18014421080E+04  0.18900621050E+04  0.15294330000E+03 0.  0.
<mgrwt>
<rscale>  0 0.77582866E+03</rscale>
<asrwt>0</asrwt>
<pdfrwt beam="1">  1        2 0.64508045E-01 0.85881293E+03</pdfrwt>
<pdfrwt beam="2">  1       -2 0.35961055E+00 0.85881293E+03</pdfrwt>
<totfact> 0.10573283E+00</totfact>
</mgrwt>
</event>
<event>
 4    2  0.2930016E-007  0.8099949E+03  0.7818608E-02  0.9689588E-01
          2   -1    0    0  501    0  0.00000000000E+00  0.00000000000E+00  0.16910377248E+04  0.16910377248E+04  0.25500000000E-02 0. -1.
         -2   -1    0    0    0  501 -0.00000000000E+00 -0.00000000000E+00 -0.33771538815E+03  0.33771538816E+03  0.25500000000E-02 0.  1.
    8880023    1    1    2    0    0  0.16102886770E+03 -0.44311535674E+03  0.12980303591E+04  0.15300243576E+04  0.65864270000E+03 0.  0.
    8880022    1    1    2    0    0 -0.16102886770E+03  0.44311535674E+03  0.55291977592E+02  0.49872875535E+03  0.15294330000E+03 0.  0.
<mgrwt>
<rscale>  0 0.71640140E+03</rscale>
<asrwt>0</asrwt>
<pdfrwt beam="1">  1        2 0.26015966E+00 0.80999489E+03</pdfrwt>
<pdfrwt beam="2">  1       -2 0.51956212E-01 0.80999489E+03</pdfrwt>
<totfact> 0.35362985E+01</totfact>
</mgrwt>
</event>
<event>
 4    2  0.2930016E-007  0.8138074E+03  0.7818608E-02  0.9681700E-01
         -2   -1    0    0    0  501 -0.00000000000E+00  0.00000000000E+00  0.26504260174E+03  0.26504260175E+03  0.25500000000E-02 0.  1.
          2   -1    0    0  501    0  0.00000000000E+00 -0.00000000000E+00 -0.17121717354E+04  0.17121717354E+04  0.25500000000E-02 0. -1.
    8880023    1    1    2    0    0 -0.87164983383E+02 -0.46997292248E+03 -0.68001419186E+03  0.10605195847E+04  0.65864270000E+03 0.  0.
    8880022    1    1    2    0    0  0.87164983383E+02  0.46997292248E+03 -0.76711494183E+03  0.91669475245E+03  0.15294330000E+03 0.  0.
<mgrwt>
<rscale>  0 0.72116888E+03</rscale>
<asrwt>0</asrwt>
<pdfrwt beam="1">  1        2 0.26341103E+00 0.81380740E+03</pdfrwt>
<pdfrwt beam="2">  1       -2 0.40775786E-01 0.81380740E+03</pdfrwt>
<totfact> 0.55954609E+01</totfact>
</mgrwt>
</event>
<event>
 4    2  0.2930016E-007  0.6844011E+03  0.7818608E-02  0.1006936E+00
          2   -1    0    0  501    0  0.00000000000E+00  0.00000000000E+00  0.11008987982E+04  0.11008987982E+04  0.25500000000E-02 0. -1.
         -2   -1    0    0    0  501 -0.00000000000E+00 -0.00000000000E+00 -0.44118589042E+03  0.44118589043E+03  0.25500000000E-02 0.  1.
    8880023    1    1    2    0    0  0.17467216963E+03 -0.63908801264E+02  0.94623920643E+03  0.11678071518E+04  0.65864270000E+03 0. -1.
    8880022    1    1    2    0    0 -0.17467216963E+03  0.63908801264E+02 -0.28652629868E+03  0.37427753682E+03  0.15294330000E+03 0.  0.
<mgrwt>
<rscale>  0 0.52710698E+03</rscale>
<asrwt>0</asrwt>
<pdfrwt beam="1">  1        2 0.16936904E+00 0.68440113E+03</pdfrwt>
<pdfrwt beam="2">  1       -2 0.67874753E-01 0.68440113E+03</pdfrwt>
<totfact> 0.44267420E+01</totfact>
</mgrwt>
</event>
<event>
 4    2  0.2930016E-007  0.9923901E+03  0.7818608E-02  0.9391582E-01
          2   -1    0    0  501    0  0.00000000000E+00  0.00000000000E+00  0.38667188666E+04  0.38667188666E+04  0.25500000000E-02 0. -1.
         -2   -1    0    0    0  501 -0.00000000000E+00 -0.00000000000E+00 -0.22609641687E+03  0.22609641689E+03  0.25500000000E-02 0.  1.
    8880023    1    1    2    0    0 -0.15468926828E+03 -0.72601596501E+03  0.27487467934E+04  0.29224043341E+04  0.65864270000E+03 0.  0.
    8880022    1    1    2    0    0  0.15468926828E+03  0.72601596501E+03  0.89187565624E+03  0.11704109494E+04  0.15294330000E+03 0.  0.
<mgrwt>
<rscale>  0 0.92771693E+03</rscale>
<asrwt>0</asrwt>
<pdfrwt beam="1">  1        2 0.59487974E+00 0.99239012E+03</pdfrwt>
<pdfrwt beam="2">  1       -2 0.34784069E-01 0.99239012E+03</pdfrwt>
<totfact> 0.35542961E+00</totfact>
</mgrwt>
</event>
<event>
 4    2  0.2930016E-007  0.6908600E+03  0.7818608E-02  0.1003746E+00
          2   -1    0    0  501    0  0.00000000000E+00  0.00000000000E+00  0.88642051547E+03  0.88642051547E+03  0.25500000000E-02 0. -1.
         -2   -1    0    0    0  501 -0.00000000000E+00 -0.00000000000E+00 -0.26342058568E+03  0.26342058570E+03  0.25500000000E-02 0.  1.
    8880023    1    1    2    0    0  0.20644483327E+03 -0.29289978981E+02  0.54437019587E+03  0.87956039501E+03  0.65864270000E+03 0. -1.
    8880022    1    1    2    0    0 -0.20644483327E+03  0.29289978981E+02  0.78629733911E+02  0.27028070616E+03  0.15294330000E+03 0.  1.
<mgrwt>
<rscale>  0 0.54037553E+03</rscale>
<asrwt>0</asrwt>
<pdfrwt beam="1">  1        2 0.13637239E+00 0.69086003E+03</pdfrwt>
<pdfrwt beam="2">  1       -2 0.40526244E-01 0.69086003E+03</pdfrwt>
<totfact> 0.17507786E+02</totfact>
</mgrwt>
</event>
<event>
 4    2  0.2930016E-007  0.6943252E+03  0.7818608E-02  0.1002161E+00
          2   -1    0    0  501    0  0.00000000000E+00  0.00000000000E+00  0.16795898519E+04  0.16795898519E+04  0.25500000000E-02 0. -1.
         -2   -1    0    0    0  501 -0.00000000000E+00 -0.00000000000E+00 -0.16148137707E+03  0.16148137709E+03  0.25500000000E-02 0.  1.
    8880023    1    1    2    0    0  0.62874984454E+02  0.21053256603E+03  0.13680815988E+04  0.15341886104E+04  0.65864270000E+03 0. -1.
    8880022    1    1    2    0    0 -0.62874984454E+02 -0.21053256603E+03  0.15002687596E+03  0.30688261853E+03  0.15294330000E+03 0.  0.
<mgrwt>
<rscale>  0 0.54712745E+03</rscale>
<asrwt>0</asrwt>
<pdfrwt beam="1">  1        2 0.25839844E+00 0.69432516E+03</pdfrwt>
<pdfrwt beam="2">  1       -2 0.24843289E-01 0.69432516E+03</pdfrwt>
<totfact> 0.14943735E+02</totfact>
</mgrwt>
</event>
<event>
 4    2  0.2930016E-007  0.8270251E+03  0.7818608E-02  0.9655149E-01
         -2   -1    0    0    0  501 -0.00000000000E+00  0.00000000000E+00  0.42869916570E+03  0.42869916570E+03  0.25500000000E-02 0.  1.
          2   -1    0    0  501    0  0.00000000000E+00 -0.00000000000E+00 -0.12728579072E+04  0.12728579072E+04  0.25500000000E-02 0. -1.
    8880023    1    1    2    0    0  0.47428780813E+03  0.15878090606E+03 -0.83959973156E+03  0.11785152594E+04  0.65864270000E+03 0.  0.
    8880022    1    1    2    0    0 -0.47428780813E+03 -0.15878090606E+03 -0.45590099000E+01  0.52304181349E+03  0.15294330000E+03 0.  0.
<mgrwt>
<rscale>  0 0.73751183E+03</rscale>
<asrwt>0</asrwt>
<pdfrwt beam="1">  1        2 0.19582429E+00 0.82702509E+03</pdfrwt>
<pdfrwt beam="2">  1       -2 0.65953718E-01 0.82702509E+03</pdfrwt>
<totfact> 0.36703596E+01</totfact>
</mgrwt>
</event>
<event>
 4    2  0.2930016E-007  0.7441630E+03  0.7818608E-02  0.9847982E-01
         -2   -1    0    0    0  501 -0.00000000000E+00  0.00000000000E+00  0.38096628448E+03  0.38096628449E+03  0.25500000000E-02 0.  1.
          2   -1    0    0  501    0  0.00000000000E+00 -0.00000000000E+00 -0.25424873291E+04  0.25424873291E+04  0.25500000000E-02 0. -1.
    8880023    1    1    2    0    0  0.88195556574E+02  0.33494755270E+03 -0.23749538079E+04  0.24888117878E+04  0.65864270000E+03 0. -1.
    8880022    1    1    2    0    0 -0.88195556574E+02 -0.33494755270E+03  0.21343276328E+03  0.43464182577E+03  0.15294330000E+03 0.  0.
<mgrwt>
<rscale>  0 0.62849891E+03</rscale>
<asrwt>0</asrwt>
<pdfrwt beam="1">  1        2 0.39115189E+00 0.74416297E+03</pdfrwt>
<pdfrwt beam="2">  1       -2 0.58610199E-01 0.74416297E+03</pdfrwt>
<totfact> 0.94053493E+00</totfact>
</mgrwt>
</event>
<event>
 4    2  0.2930016E-007  0.7344627E+03  0.7818608E-02  0.9876380E-01
         -2   -1    0    0    0  501 -0.00000000000E+00  0.00000000000E+00  0.11498624572E+04  0.11498624572E+04  0.25500000000E-02 0.  1.
          2   -1    0    0  501    0  0.00000000000E+00 -0.00000000000E+00 -0.47909957790E+03  0.47909957791E+03  0.25500000000E-02 0. -1.
    8880023    1    1    2    0    0 -0.18007005789E+03 -0.27055516394E+03 -0.13499885376E+03  0.74676650920E+03  0.65864270000E+03 0. -1.
    8880022    1    1    2    0    0  0.18007005789E+03  0.27055516394E+03  0.80576173309E+03  0.88219552595E+03  0.15294330000E+03 0.  0.
<mgrwt>
<rscale>  0 0.61419770E+03</rscale>
<asrwt>0</asrwt>
<pdfrwt beam="1">  1        2 0.73707628E-01 0.73446275E+03</pdfrwt>
<pdfrwt beam="2">  1       -2 0.17690192E+00 0.73446275E+03</pdfrwt>
<totfact> 0.12546960E+01</totfact>
</mgrwt>
</event>
<event>
 4    2  0.2930016E-007  0.7658892E+03  0.7818608E-02  0.9790093E-01
          2   -1    0    0  501    0  0.00000000000E+00  0.00000000000E+00  0.14820146241E+04  0.14820146241E+04  0.25500000000E-02 0. -1.
         -2   -1    0    0    0  501 -0.00000000000E+00 -0.00000000000E+00 -0.36258230897E+03  0.36258230898E+03  0.25500000000E-02 0.  1.
    8880023    1    1    2    0    0 -0.24311045741E+03 -0.30606113365E+03  0.11937765710E+04  0.14183401637E+04  0.65864270000E+03 0. -1.
    8880022    1    1    2    0    0  0.24311045741E+03  0.30606113365E+03 -0.74344255960E+02  0.42625676938E+03  0.15294330000E+03 0.  0.
<mgrwt>
<rscale>  0 0.65896945E+03</rscale>
<asrwt>0</asrwt>
<pdfrwt beam="1">  1        2 0.22800225E+00 0.76588923E+03</pdfrwt>
<pdfrwt beam="2">  1       -2 0.55781894E-01 0.76588923E+03</pdfrwt>
<totfact> 0.40032343E+01</totfact>
</mgrwt>
</event>
<event>
 4    2  0.2930016E-007  0.7210979E+03  0.7818608E-02  0.9918888E-01
         -2   -1    0    0    0  501 -0.00000000000E+00  0.00000000000E+00  0.43535328651E+03  0.43535328652E+03  0.25500000000E-02 0.  1.
          2   -1    0    0  501    0  0.00000000000E+00 -0.00000000000E+00 -0.11934799676E+04  0.11934799676E+04  0.25500000000E-02 0. -1.
    8880023    1    1    2    0    0 -0.18189168814E+03  0.23040702290E+03 -0.98993861164E+03  0.12247288041E+04  0.65864270000E+03 0. -1.
    8880022    1    1    2    0    0  0.18189168814E+03 -0.23040702290E+03  0.23181193054E+03  0.40410445008E+03  0.15294330000E+03 0.  0.
<mgrwt>
<rscale>  0 0.59354545E+03</rscale>
<asrwt>0</asrwt>
<pdfrwt beam="1">  1        2 0.18361230E+00 0.72109791E+03</pdfrwt>
<pdfrwt beam="2">  1       -2 0.66977429E-01 0.72109791E+03</pdfrwt>
<totfact> 0.39934224E+01</totfact>
</mgrwt>
</event>
<event>
 4    2  0.2930016E-007  0.8901138E+03  0.7818608E-02  0.9542092E-01
          2   -1    0    0  501    0  0.00000000000E+00  0.00000000000E+00  0.98198787114E+03  0.98198787114E+03  0.25500000000E-02 0. -1.
         -2   -1    0    0    0  501 -0.00000000000E+00 -0.00000000000E+00 -0.16755757330E+04  0.16755757330E+04  0.25500000000E-02 0.  1.
    8880023    1    1    2    0    0 -0.12517138524E+03 -0.58551223744E+03  0.70046844841E+03  0.11326776723E+04  0.65864270000E+03 0. -1.
    8880022    1    1    2    0    0  0.12517138524E+03  0.58551223744E+03 -0.13940563103E+04  0.15248859319E+04  0.15294330000E+03 0.  0.
<mgrwt>
<rscale>  0 0.81250420E+03</rscale>
<asrwt>0</asrwt>
<pdfrwt beam="1">  1        2 0.15107506E+00 0.89011385E+03</pdfrwt>
<pdfrwt beam="2">  1       -2 0.25778088E+00 0.89011385E+03</pdfrwt>
<totfact> 0.15085736E+00</totfact>
</mgrwt>
</event>
<event>
 4    2  0.2930016E-007  0.8084419E+03  0.7818608E-02  0.9692832E-01
          2   -1    0    0  501    0  0.00000000000E+00  0.00000000000E+00  0.13612683729E+04  0.13612683729E+04  0.25500000000E-02 0. -1.
         -2   -1    0    0    0  501 -0.00000000000E+00 -0.00000000000E+00 -0.32878076535E+03  0.32878076536E+03  0.25500000000E-02 0.  1.
    8880023    1    1    2    0    0  0.32782879779E+03  0.33510651724E+03  0.82495455504E+03  0.11550447276E+04  0.65864270000E+03 0.  0.
    8880022    1    1    2    0    0 -0.32782879779E+03 -0.33510651724E+03  0.20753305250E+03  0.53500441069E+03  0.15294330000E+03 0.  0.
<mgrwt>
<rscale>  0 0.71445203E+03</rscale>
<asrwt>0</asrwt>
<pdfrwt beam="1">  1        2 0.20942590E+00 0.80844190E+03</pdfrwt>
<pdfrwt beam="2">  1       -2 0.50581656E-01 0.80844190E+03</pdfrwt>
<totfact> 0.57067195E+01</totfact>
</mgrwt>
</event>
<event>
 4    2  0.2930016E-007  0.6725404E+03  0.7818608E-02  0.1013904E+00
          2   -1    0    0  501    0  0.00000000000E+00  0.00000000000E+00  0.95076794937E+03  0.95076794937E+03  0.25500000000E-02 0. -1.
         -2   -1    0    0    0  501 -0.00000000000E+00 -0.00000000000E+00 -0.26550116265E+03  0.26550116267E+03  0.25500000000E-02 0.  1.
    8880023    1    1    2    0    0  0.18271346897E+02 -0.13478343014E+03  0.74440667556E+03  0.10032207733E+04  0.65864270000E+03 0. -1.
    8880022    1    1    2    0    0 -0.18271346897E+02  0.13478343014E+03 -0.59139888846E+02  0.21304833871E+03  0.15294330000E+03 0. -1.
<mgrwt>
<rscale>  0 0.49952275E+03</rscale>
<asrwt>0</asrwt>
<pdfrwt beam="1">  1        2 0.14627200E+00 0.67254042E+03</pdfrwt>
<pdfrwt beam="2">  1       -2 0.40846332E-01 0.67254042E+03</pdfrwt>
<totfact> 0.15644889E+02</totfact>
</mgrwt>
</event>
<event>
 4    2  0.2930016E-007  0.8726901E+03  0.7818608E-02  0.9571377E-01
         -2   -1    0    0    0  501 -0.00000000000E+00  0.00000000000E+00  0.33236244617E+03  0.33236244618E+03  0.25500000000E-02 0.  1.
          2   -1    0    0  501    0  0.00000000000E+00 -0.00000000000E+00 -0.31374645123E+04  0.31374645123E+04  0.25500000000E-02 0. -1.
    8880023    1    1    2    0    0  0.62293622357E+02  0.56911969826E+03 -0.34343293614E+03  0.93783480114E+03  0.65864270000E+03 0.  0.
    8880022    1    1    2    0    0 -0.62293622357E+02 -0.56911969826E+03 -0.24616691300E+04  0.25319921574E+04  0.15294330000E+03 0.  0.
<mgrwt>
<rscale>  0 0.79219957E+03</rscale>
<asrwt>0</asrwt>
<pdfrwt beam="1">  1        2 0.48268683E+00 0.87269006E+03</pdfrwt>
<pdfrwt beam="2">  1       -2 0.51132686E-01 0.87269006E+03</pdfrwt>
<totfact> 0.53879754E+00</totfact>
</mgrwt>
</event>
<event>
 4    2  0.2930016E-007  0.6947561E+03  0.7818608E-02  0.1001969E+00
          2   -1    0    0  501    0  0.00000000000E+00  0.00000000000E+00  0.23050797748E+04  0.23050797748E+04  0.25500000000E-02 0. -1.
         -2   -1    0    0    0  501 -0.00000000000E+00 -0.00000000000E+00 -0.16238447610E+03  0.16238447612E+03  0.25500000000E-02 0.  1.
    8880023    1    1    2    0    0 -0.44813070339E+02 -0.21648929626E+03  0.20778557854E+04  0.21909291859E+04  0.65864270000E+03 0.  0.
    8880022    1    1    2    0    0  0.44813070339E+02  0.21648929626E+03  0.64839513314E+02  0.27653506499E+03  0.15294330000E+03 0.  0.
<mgrwt>
<rscale>  0 0.54795152E+03</rscale>
<asrwt>0</asrwt>
<pdfrwt beam="1">  1        2 0.35462765E+00 0.69475610E+03</pdfrwt>
<pdfrwt beam="2">  1       -2 0.24982227E-01 0.69475610E+03</pdfrwt>
<totfact> 0.67347730E+01</totfact>
</mgrwt>
</event>
<event>
 4    2  0.2930016E-007  0.7350362E+03  0.7818608E-02  0.9874650E-01
         -2   -1    0    0    0  501 -0.00000000000E+00  0.00000000000E+00  0.65832317621E+03  0.65832317622E+03  0.25500000000E-02 0.  1.
          2   -1    0    0  501    0  0.00000000000E+00 -0.00000000000E+00 -0.69957565985E+03  0.69957565985E+03  0.25500000000E-02 0. -1.
    8880023    1    1    2    0    0 -0.21200752705E+03  0.24803375669E+03 -0.41054502149E+03  0.84191766635E+03  0.65864270000E+03 0.  0.
    8880022    1    1    2    0    0  0.21200752705E+03 -0.24803375669E+03  0.36929253785E+03  0.51598116972E+03  0.15294330000E+03 0.  0.
<mgrwt>
<rscale>  0 0.61505758E+03</rscale>
<asrwt>0</asrwt>
<pdfrwt beam="1">  1        2 0.10762702E+00 0.73503615E+03</pdfrwt>
<pdfrwt beam="2">  1       -2 0.10128049E+00 0.73503615E+03</pdfrwt>
<totfact> 0.33338548E+01</totfact>
</mgrwt>
</event>
<event>
 4    2  0.2930016E-007  0.9055651E+03  0.7818608E-02  0.9517156E-01
         -2   -1    0    0    0  501 -0.00000000000E+00  0.00000000000E+00  0.18443120522E+03  0.18443120523E+03  0.25500000000E-02 0.  1.
          2   -1    0    0  501    0  0.00000000000E+00 -0.00000000000E+00 -0.37515099089E+04  0.37515099089E+04  0.25500000000E-02 0. -1.
    8880023    1    1    2    0    0  0.42471375066E+03 -0.45371378250E+03 -0.27667069634E+04  0.29111364780E+04  0.65864270000E+03 0.  0.
    8880022    1    1    2    0    0 -0.42471375066E+03  0.45371378250E+03 -0.80037174035E+03  0.10248046361E+04  0.15294330000E+03 0.  0.
<mgrwt>
<rscale>  0 0.83030696E+03</rscale>
<asrwt>0</asrwt>
<pdfrwt beam="1">  1        2 0.57715531E+00 0.90556511E+03</pdfrwt>
<pdfrwt beam="2">  1       -2 0.28374034E-01 0.90556511E+03</pdfrwt>
<totfact> 0.64443380E+00</totfact>
</mgrwt>
</event>
<event>
 4    2  0.2930016E-007  0.6660659E+03  0.7818608E-02  0.1018655E+00
         -2   -1    0    0    0  501 -0.00000000000E+00  0.00000000000E+00  0.18818781798E+03  0.18818781800E+03  0.25500000000E-02 0.  1.
          2   -1    0    0  501    0  0.00000000000E+00 -0.00000000000E+00 -0.28643355010E+04  0.28643355010E+04  0.25500000000E-02 0. -1.
    8880023    1    1    2    0    0  0.68663400615E+02  0.71546660556E+02 -0.27689830654E+04  0.28479661181E+04  0.65864270000E+03 0. -1.
    8880022    1    1    2    0    0 -0.68663400615E+02 -0.71546660556E+02  0.92835382343E+02  0.20455720093E+03  0.15294330000E+03 0.  0.
<mgrwt>
<rscale>  0 0.48174966E+03</rscale>
<asrwt>0</asrwt>
<pdfrwt beam="1">  1        2 0.44066697E+00 0.66606591E+03</pdfrwt>
<pdfrwt beam="2">  1       -2 0.28951974E-01 0.66606591E+03</pdfrwt>
<totfact> 0.24743604E+01</totfact>
</mgrwt>
</event>
<event>
 4    2  0.2930016E-007  0.8017905E+03  0.7818608E-02  0.9706938E-01
         -2   -1    0    0    0  501 -0.00000000000E+00  0.00000000000E+00  0.44302144785E+03  0.44302144786E+03  0.25500000000E-02 0.  1.
          2   -1    0    0  501    0  0.00000000000E+00 -0.00000000000E+00 -0.22501296906E+04  0.22501296906E+04  0.25500000000E-02 0. -1.
    8880023    1    1    2    0    0  0.44908093815E+03  0.85930906689E+02 -0.20145834618E+04  0.21682745537E+04  0.65864270000E+03 0.  0.
    8880022    1    1    2    0    0 -0.44908093815E+03 -0.85930906689E+02  0.20747521896E+03  0.52487658477E+03  0.15294330000E+03 0.  0.
<mgrwt>
<rscale>  0 0.70605210E+03</rscale>
<asrwt>0</asrwt>
<pdfrwt beam="1">  1        2 0.34617379E+00 0.80179051E+03</pdfrwt>
<pdfrwt beam="2">  1       -2 0.68157147E-01 0.80179051E+03</pdfrwt>
<totfact> 0.98520620E+00</totfact>
</mgrwt>
</event>
<event>
 4    2  0.2930016E-007  0.1246770E+04  0.7818608E-02  0.9112947E-01
          2   -1    0    0  501    0  0.00000000000E+00  0.00000000000E+00  0.27295017371E+04  0.27295017371E+04  0.25500000000E-02 0. -1.
         -2   -1    0    0    0  501 -0.00000000000E+00 -0.00000000000E+00 -0.57008711929E+03  0.57008711930E+03  0.25500000000E-02 0.  1.
    8880023    1    1    2    0    0 -0.97618580923E+03  0.40949417911E+03  0.53966132322E+03  0.13585539249E+04  0.65864270000E+03 0.  0.
    8880022    1    1    2    0    0  0.97618580923E+03 -0.40949417911E+03  0.16197532946E+04  0.19410349314E+04  0.15294330000E+03 0.  0.
<mgrwt>
<rscale>  0 0.11998961E+04</rscale>
<asrwt>0</asrwt>
<pdfrwt beam="1">  1        2 0.41992334E+00 0.12467696E+04</pdfrwt>
<pdfrwt beam="2">  1       -2 0.87705712E-01 0.12467696E+04</pdfrwt>
<totfact> 0.28103613E+00</totfact>
</mgrwt>
</event>
<event>
 4    2  0.2930016E-007  0.2142488E+04  0.7818608E-02  0.8553552E-01
         -2   -1    0    0    0  501 -0.00000000000E+00  0.00000000000E+00  0.16648518296E+04  0.16648518296E+04  0.25500000000E-02 0.  1.
          2   -1    0    0  501    0  0.00000000000E+00 -0.00000000000E+00 -0.29211657233E+04  0.29211657233E+04  0.25500000000E-02 0. -1.
    8880023    1    1    2    0    0 -0.18617427419E+04  0.83087765899E+03  0.79289612503E+02  0.21439544701E+04  0.65864270000E+03 0.  0.
    8880022    1    1    2    0    0  0.18617427419E+04 -0.83087765899E+03 -0.13356035062E+04  0.24420630827E+04  0.15294330000E+03 0.  0.
<mgrwt>
<rscale>  0 0.21175500E+04</rscale>
<asrwt>0</asrwt>
<pdfrwt beam="1">  1        2 0.44941011E+00 0.21424878E+04</pdfrwt>
<pdfrwt beam="2">  1       -2 0.25613105E+00 0.21424878E+04</pdfrwt>
<totfact> 0.10060554E-01</totfact>
</mgrwt>
</event>
<event>
 4    2  0.2930016E-007  0.7566556E+03  0.7818608E-02  0.9813844E-01
         -2   -1    0    0    0  501 -0.00000000000E+00  0.00000000000E+00  0.63385461340E+03  0.63385461341E+03  0.25500000000E-02 0.  1.
          2   -1    0    0  501    0  0.00000000000E+00 -0.00000000000E+00 -0.74610329273E+03  0.74610329274E+03  0.25500000000E-02 0. -1.
    8880023    1    1    2    0    0  0.29424848922E+02 -0.37128372855E+03 -0.42707024433E+03  0.86885938372E+03  0.65864270000E+03 0. -1.
    8880022    1    1    2    0    0 -0.29424848922E+02  0.37128372855E+03  0.31482156500E+03  0.51109852243E+03  0.15294330000E+03 0.  0.
<mgrwt>
<rscale>  0 0.64624856E+03</rscale>
<asrwt>0</asrwt>
<pdfrwt beam="1">  1        2 0.11478512E+00 0.75665556E+03</pdfrwt>
<pdfrwt beam="2">  1       -2 0.97516095E-01 0.75665556E+03</pdfrwt>
<totfact> 0.33526211E+01</totfact>
</mgrwt>
</event>
<event>
 4    2  0.2930016E-007  0.1103520E+04  0.7818608E-02  0.9257148E-01
         -2   -1    0    0    0  501 -0.00000000000E+00  0.00000000000E+00  0.47489867428E+03  0.47489867428E+03  0.25500000000E-02 0.  1.
          2   -1    0    0  501    0  0.00000000000E+00 -0.00000000000E+00 -0.24193128687E+04  0.24193128687E+04  0.25500000000E-02 0. -1.
    8880023    1    1    2    0    0 -0.84374079856E+03 -0.26841504161E+03 -0.54397531405E+03  0.12303107405E+04  0.65864270000E+03 0.  0.
    8880022    1    1    2    0    0  0.84374079856E+03  0.26841504161E+03 -0.14004388804E+04  0.16639008024E+04  0.15294330000E+03 0.  0.
<mgrwt>
<rscale>  0 0.10482548E+04</rscale>
<asrwt>0</asrwt>
<pdfrwt beam="1">  1        2 0.37220197E+00 0.11035195E+04</pdfrwt>
<pdfrwt beam="2">  1       -2 0.73061336E-01 0.11035195E+04</pdfrwt>
<totfact> 0.65368626E+00</totfact>
</mgrwt>
</event>
<event>
 4    2  0.2930016E-007  0.6793339E+03  0.7818608E-02  0.1009703E+00
         -2   -1    0    0    0  501 -0.00000000000E+00  0.00000000000E+00  0.38386007083E+03  0.38386007084E+03  0.25500000000E-02 0.  1.
          2   -1    0    0  501    0  0.00000000000E+00 -0.00000000000E+00 -0.17488787817E+04  0.17488787817E+04  0.25500000000E-02 0. -1.
    8880023    1    1    2    0    0 -0.13135542308E+03 -0.10212775009E+03 -0.16409842158E+04  0.17760415894E+04  0.65864270000E+03 0. -1.
    8880022    1    1    2    0    0  0.13135542308E+03  0.10212775009E+03  0.27596550501E+03  0.35669726307E+03  0.15294330000E+03 0.  0.
<mgrwt>
<rscale>  0 0.51592853E+03</rscale>
<asrwt>0</asrwt>
<pdfrwt beam="1">  1        2 0.26905827E+00 0.67933389E+03</pdfrwt>
<pdfrwt beam="2">  1       -2 0.59055396E-01 0.67933389E+03</pdfrwt>
<totfact> 0.25605591E+01</totfact>
</mgrwt>
</event>
<event>
 4    2  0.2930016E-007  0.1125986E+04  0.7818608E-02  0.9232661E-01
         -2   -1    0    0    0  501 -0.00000000000E+00  0.00000000000E+00  0.16160993837E+04  0.16160993837E+04  0.25500000000E-02 0.  1.
          2   -1    0    0  501    0  0.00000000000E+00 -0.00000000000E+00 -0.86191625990E+03  0.86191625991E+03  0.25500000000E-02 0. -1.
    8880023    1    1    2    0    0 -0.86823689874E+03  0.28319533837E+03  0.10150773760E+04  0.15159905005E+04  0.65864270000E+03 0.  0.
    8880022    1    1    2    0    0  0.86823689874E+03 -0.28319533837E+03 -0.26089425228E+03  0.96202514307E+03  0.15294330000E+03 0.  0.
<mgrwt>
<rscale>  0 0.10722584E+04</rscale>
<asrwt>0</asrwt>
<pdfrwt beam="1">  1        2 0.13260250E+00 0.11259863E+04</pdfrwt>
<pdfrwt beam="2">  1       -2 0.24863067E+00 0.11259863E+04</pdfrwt>
<totfact> 0.20057480E+00</totfact>
</mgrwt>
</event>
<event>
 4    2  0.2930016E-007  0.6663610E+03  0.7818608E-02  0.1018418E+00
          2   -1    0    0  501    0  0.00000000000E+00  0.00000000000E+00  0.21831768445E+04  0.21831768445E+04  0.25500000000E-02 0. -1.
         -2   -1    0    0    0  501 -0.00000000000E+00 -0.00000000000E+00 -0.12285937715E+03  0.12285937718E+03  0.25500000000E-02 0.  1.
    8880023    1    1    2    0    0  0.96150538177E+02 -0.31334197975E+02  0.20075326081E+04  0.21152361894E+04  0.65864270000E+03 0. -1.
    8880022    1    1    2    0    0 -0.96150538177E+02  0.31334197975E+02  0.52784859271E+02  0.19080003233E+03  0.15294330000E+03 0.  0.
<mgrwt>
<rscale>  0 0.48261889E+03</rscale>
<asrwt>0</asrwt>
<pdfrwt beam="1">  1        2 0.33587335E+00 0.66636099E+03</pdfrwt>
<pdfrwt beam="2">  1       -2 0.18901443E-01 0.66636099E+03</pdfrwt>
<totfact> 0.12915981E+02</totfact>
</mgrwt>
</event>
<event>
 4    2  0.2930016E-007  0.9697905E+03  0.7818608E-02  0.9422194E-01
         -2   -1    0    0    0  501 -0.00000000000E+00  0.00000000000E+00  0.33038668860E+03  0.33038668861E+03  0.25500000000E-02 0.  1.
          2   -1    0    0  501    0  0.00000000000E+00 -0.00000000000E+00 -0.23309813029E+04  0.23309813029E+04  0.25500000000E-02 0. -1.
    8880023    1    1    2    0    0 -0.32511706460E+03 -0.63323162062E+03 -0.79959269515E+03  0.12569176884E+04  0.65864270000E+03 0.  0.
    8880022    1    1    2    0    0  0.32511706460E+03  0.63323162062E+03 -0.12010019192E+04  0.14044503031E+04  0.15294330000E+03 0.  0.
<mgrwt>
<rscale>  0 0.90271490E+03</rscale>
<asrwt>0</asrwt>
<pdfrwt beam="1">  1        2 0.35861250E+00 0.96979049E+03</pdfrwt>
<pdfrwt beam="2">  1       -2 0.50828723E-01 0.96979049E+03</pdfrwt>
<totfact> 0.16129444E+01</totfact>
</mgrwt>
</event>
<event>
 4    2  0.2930016E-007  0.7759227E+03  0.7818608E-02  0.9765503E-01
         -2   -1    0    0    0  501 -0.00000000000E+00  0.00000000000E+00  0.86245561294E+03  0.86245561294E+03  0.25500000000E-02 0.  1.
          2   -1    0    0  501    0  0.00000000000E+00 -0.00000000000E+00 -0.70446638117E+03  0.70446638118E+03  0.25500000000E-02 0. -1.
    8880023    1    1    2    0    0  0.16020783148E+03 -0.37759665344E+03 -0.38765883473E+03  0.86737267674E+03  0.65864270000E+03 0. -1.
    8880022    1    1    2    0    0 -0.16020783148E+03  0.37759665344E+03  0.54564806650E+03  0.69954931738E+03  0.15294330000E+03 0.  1.
<mgrwt>
<rscale>  0 0.67247149E+03</rscale>
<asrwt>0</asrwt>
<pdfrwt beam="1">  1        2 0.10837944E+00 0.77592267E+03</pdfrwt>
<pdfrwt beam="2">  1       -2 0.13268548E+00 0.77592267E+03</pdfrwt>
<totfact> 0.16955092E+01</totfact>
</mgrwt>
</event>
<event>
 4    2  0.2930016E-007  0.7366198E+03  0.7818608E-02  0.9869905E-01
         -2   -1    0    0    0  501 -0.00000000000E+00  0.00000000000E+00  0.16567660998E+03  0.16567661000E+03  0.25500000000E-02 0.  1.
          2   -1    0    0  501    0  0.00000000000E+00 -0.00000000000E+00 -0.43271247409E+04  0.43271247409E+04  0.25500000000E-02 0. -1.
    8880023    1    1    2    0    0  0.22031526645E+03  0.24547855198E+03 -0.40442686515E+04  0.41108049903E+04  0.65864270000E+03 0.  0.
    8880022    1    1    2    0    0 -0.22031526645E+03 -0.24547855198E+03 -0.11717947939E+03  0.38199636061E+03  0.15294330000E+03 0.  0.
<mgrwt>
<rscale>  0 0.61742249E+03</rscale>
<asrwt>0</asrwt>
<pdfrwt beam="1">  1        2 0.66571141E+00 0.73661981E+03</pdfrwt>
<pdfrwt beam="2">  1       -2 0.25488713E-01 0.73661981E+03</pdfrwt>
<totfact> 0.27954166E+00</totfact>
</mgrwt>
</event>
<event>
 4    2  0.2930016E-007  0.1692211E+04  0.7818608E-02  0.8784628E-01
         -2   -1    0    0    0  501 -0.00000000000E+00  0.00000000000E+00  0.13302897296E+04  0.13302897297E+04  0.25500000000E-02 0.  1.
          2   -1    0    0  501    0  0.00000000000E+00 -0.00000000000E+00 -0.20993732881E+04  0.20993732881E+04  0.25500000000E-02 0. -1.
    8880023    1    1    2    0    0  0.20947912682E+03  0.15446309934E+04 -0.17233831658E+02  0.16922983252E+04  0.65864270000E+03 0.  0.
    8880022    1    1    2    0    0 -0.20947912682E+03 -0.15446309934E+04 -0.75184972683E+03  0.17373646926E+04  0.15294330000E+03 0.  0.
<mgrwt>
<rscale>  0 0.16598028E+04</rscale>
<asrwt>0</asrwt>
<pdfrwt beam="1">  1        2 0.32298050E+00 0.16922106E+04</pdfrwt>
<pdfrwt beam="2">  1       -2 0.20465996E+00 0.16922106E+04</pdfrwt>
<totfact> 0.67208261E-01</totfact>
</mgrwt>
</event>
<event>
 4    2  0.2930016E-007  0.7270415E+03  0.7818608E-02  0.9899442E-01
          2   -1    0    0  501    0  0.00000000000E+00  0.00000000000E+00  0.10673488733E+04  0.10673488733E+04  0.25500000000E-02 0. -1.
         -2   -1    0    0    0  501 -0.00000000000E+00 -0.00000000000E+00 -0.57043941230E+03  0.57043941230E+03  0.25500000000E-02 0.  1.
    8880023    1    1    2    0    0  0.30336794707E+03 -0.52412656129E+02  0.86778874549E+03  0.11320983663E+04  0.65864270000E+03 0. -1.
    8880022    1    1    2    0    0 -0.30336794707E+03  0.52412656129E+02 -0.37087928450E+03  0.50568991934E+03  0.15294330000E+03 0.  0.
<mgrwt>
<rscale>  0 0.60288325E+03</rscale>
<asrwt>0</asrwt>
<pdfrwt beam="1">  1        2 0.16420752E+00 0.72704154E+03</pdfrwt>
<pdfrwt beam="2">  1       -2 0.87759910E-01 0.72704154E+03</pdfrwt>
<totfact> 0.26065787E+01</totfact>
</mgrwt>
</event>
<event>
 4    2  0.2930016E-007  0.1938861E+04  0.7818608E-02  0.8649379E-01
         -2   -1    0    0    0  501 -0.00000000000E+00  0.00000000000E+00  0.92373623329E+03  0.92373623329E+03  0.25500000000E-02 0.  1.
          2   -1    0    0  501    0  0.00000000000E+00 -0.00000000000E+00 -0.45348621820E+04  0.45348621820E+04  0.25500000000E-02 0. -1.
    8880023    1    1    2    0    0 -0.48731235605E+03 -0.17572421403E+04 -0.29145537730E+04  0.35005438397E+04  0.65864270000E+03 0.  0.
    8880022    1    1    2    0    0  0.48731235605E+03  0.17572421403E+04 -0.69657217577E+03  0.19580545756E+04  0.15294330000E+03 0.  0.
<mgrwt>
<rscale>  0 0.19110439E+04</rscale>
<asrwt>0</asrwt>
<pdfrwt beam="1">  1        2 0.69767109E+00 0.19388614E+04</pdfrwt>
<pdfrwt beam="2">  1       -2 0.14211327E+00 0.19388614E+04</pdfrwt>
<totfact> 0.36033257E-02</totfact>
</mgrwt>
</event>
<event>
 4    2  0.2930016E-007  0.9806177E+03  0.7818608E-02  0.9407367E-01
          2   -1    0    0  501    0  0.00000000000E+00  0.00000000000E+00  0.41045578311E+04  0.41045578311E+04  0.25500000000E-02 0. -1.
         -2   -1    0    0    0  501 -0.00000000000E+00 -0.00000000000E+00 -0.32794801439E+03  0.32794801440E+03  0.25500000000E-02 0.  1.
    8880023    1    1    2    0    0  0.69110179368E+03  0.22400715311E+03  0.55567434313E+03  0.11271136037E+04  0.65864270000E+03 0.  1.
    8880022    1    1    2    0    0 -0.69110179368E+03 -0.22400715311E+03  0.32209354736E+04  0.33053922418E+04  0.15294330000E+03 0.  0.
<mgrwt>
<rscale>  0 0.91471904E+03</rscale>
<asrwt>0</asrwt>
<pdfrwt beam="1">  1        2 0.63147043E+00 0.98061771E+03</pdfrwt>
<pdfrwt beam="2">  1       -2 0.50453541E-01 0.98061771E+03</pdfrwt>
<totfact> 0.11076223E+00</totfact>
</mgrwt>
</event>
<event>
 4    2  0.2930016E-007  0.7925069E+03  0.7818608E-02  0.9727238E-01
          2   -1    0    0  501    0  0.00000000000E+00  0.00000000000E+00  0.56678385758E+03  0.56678385759E+03  0.25500000000E-02 0. -1.
         -2   -1    0    0    0  501 -0.00000000000E+00 -0.00000000000E+00 -0.99505288485E+03  0.99505288485E+03  0.25500000000E-02 0.  1.
    8880023    1    1    2    0    0  0.43343903130E+03 -0.79922779314E+02  0.16257640774E+03  0.80901071632E+03  0.65864270000E+03 0. -1.
    8880022    1    1    2    0    0 -0.43343903130E+03  0.79922779314E+02 -0.59084543501E+03  0.75282602611E+03  0.15294330000E+03 0.  0.
<mgrwt>
<rscale>  0 0.69417955E+03</rscale>
<asrwt>0</asrwt>
<pdfrwt beam="1">  1        2 0.87197517E-01 0.79250694E+03</pdfrwt>
<pdfrwt beam="2">  1       -2 0.15308506E+00 0.79250694E+03</pdfrwt>
<totfact> 0.15231500E+01</totfact>
</mgrwt>
</event>
<event>
 4    2  0.3022155E-007  0.7168039E+03  0.7818608E-02  0.9933552E-01
          2   -1    0    0  501    0  0.00000000000E+00  0.00000000000E+00  0.20549622822E+04  0.20549622822E+04  0.25500000000E-02 0. -1.
         -2   -1    0    0    0  501 -0.00000000000E+00 -0.00000000000E+00 -0.61815041925E+03  0.61815041925E+03  0.25500000000E-02 0.  1.
    8880023    1    1    2    0    0 -0.12628874983E+03 -0.25307873813E+03  0.19443626481E+04  0.20722823190E+04  0.65864270000E+03 0.  0.
    8880022    1    1    2    0    0  0.12628874983E+03  0.25307873813E+03 -0.50755078512E+03  0.60083038249E+03  0.15294330000E+03 0.  0.
<mgrwt>
<rscale>  0 0.58662392E+03</rscale>
<asrwt>0</asrwt>
<pdfrwt beam="1">  1        2 0.31614804E+00 0.71680395E+03</pdfrwt>
<pdfrwt beam="2">  1       -2 0.95100066E-01 0.71680395E+03</pdfrwt>
<totfact> 0.60376455E+00</totfact>
</mgrwt>
</event>
<event>
 4    2  0.2930016E-007  0.6902679E+03  0.7818608E-02  0.1004026E+00
         -2   -1    0    0    0  501 -0.00000000000E+00  0.00000000000E+00  0.66190009465E+03  0.66190009465E+03  0.25500000000E-02 0.  1.
          2   -1    0    0  501    0  0.00000000000E+00 -0.00000000000E+00 -0.28438430634E+04  0.28438430634E+04  0.25500000000E-02 0. -1.
    8880023    1    1    2    0    0  0.30317570935E+02  0.20430473633E+03 -0.27749107566E+04  0.28594753879E+04  0.65864270000E+03 0. -1.
    8880022    1    1    2    0    0 -0.30317570935E+02 -0.20430473633E+03  0.59296778783E+03  0.64626777021E+03  0.15294330000E+03 0.  0.
<mgrwt>
<rscale>  0 0.53919813E+03</rscale>
<asrwt>0</asrwt>
<pdfrwt beam="1">  1        2 0.43751431E+00 0.69026791E+03</pdfrwt>
<pdfrwt beam="2">  1       -2 0.10183079E+00 0.69026791E+03</pdfrwt>
<totfact> 0.18511394E+00</totfact>
</mgrwt>
</event>
<event>
 4    2  0.2930016E-007  0.7864904E+03  0.7818608E-02  0.9740806E-01
         -2   -1    0    0    0  501 -0.00000000000E+00  0.00000000000E+00  0.12701521972E+04  0.12701521972E+04  0.25500000000E-02 0.  1.
          2   -1    0    0  501    0  0.00000000000E+00 -0.00000000000E+00 -0.14467191876E+04  0.14467191876E+04  0.25500000000E-02 0. -1.
    8880023    1    1    2    0    0  0.10584130526E+03  0.41659875549E+03 -0.12915410136E+04  0.15121657650E+04  0.65864270000E+03 0. -1.
    8880022    1    1    2    0    0 -0.10584130526E+03 -0.41659875549E+03  0.11149740231E+04  0.12047056198E+04  0.15294330000E+03 0.  0.
<mgrwt>
<rscale>  0 0.68638334E+03</rscale>
<asrwt>0</asrwt>
<pdfrwt beam="1">  1        2 0.22257218E+00 0.78649038E+03</pdfrwt>
<pdfrwt beam="2">  1       -2 0.19540803E+00 0.78649038E+03</pdfrwt>
<totfact> 0.19880890E+00</totfact>
</mgrwt>
</event>
<event>
 4    2  0.2930016E-007  0.6868263E+03  0.7818608E-02  0.1005699E+00
         -2   -1    0    0    0  501 -0.00000000000E+00  0.00000000000E+00  0.37215324975E+03  0.37215324975E+03  0.25500000000E-02 0.  1.
          2   -1    0    0  501    0  0.00000000000E+00 -0.00000000000E+00 -0.13071593156E+04  0.13071593156E+04  0.25500000000E-02 0. -1.
    8880023    1    1    2    0    0  0.17984040692E+03 -0.74682942884E+02 -0.11578204573E+04  0.13462089479E+04  0.65864270000E+03 0. -1.
    8880022    1    1    2    0    0 -0.17984040692E+03  0.74682942884E+02  0.22281439141E+03  0.33310361745E+03  0.15294330000E+03 0.  0.
<mgrwt>
<rscale>  0 0.53220402E+03</rscale>
<asrwt>0</asrwt>
<pdfrwt beam="1">  1        2 0.20110143E+00 0.68682627E+03</pdfrwt>
<pdfrwt beam="2">  1       -2 0.57254347E-01 0.68682627E+03</pdfrwt>
<totfact> 0.48015655E+01</totfact>
</mgrwt>
</event>
<event>
 4    2  0.2930016E-007  0.6768574E+03  0.7818608E-02  0.1011160E+00
         -2   -1    0    0    0  501 -0.00000000000E+00  0.00000000000E+00  0.37398620709E+03  0.37398620710E+03  0.25500000000E-02 0.  1.
          2   -1    0    0  501    0  0.00000000000E+00 -0.00000000000E+00 -0.13873853147E+04  0.13873853147E+04  0.25500000000E-02 0. -1.
    8880023    1    1    2    0    0  0.46725984100E+02  0.14880344280E+03 -0.12610067169E+04  0.14311792091E+04  0.65864270000E+03 0. -1.
    8880022    1    1    2    0    0 -0.46725984100E+02 -0.14880344280E+03  0.24760760930E+03  0.33019231272E+03  0.15294330000E+03 0.  0.
<mgrwt>
<rscale>  0 0.51016133E+03</rscale>
<asrwt>0</asrwt>
<pdfrwt beam="1">  1        2 0.21344389E+00 0.67685744E+03</pdfrwt>
<pdfrwt beam="2">  1       -2 0.57536340E-01 0.67685744E+03</pdfrwt>
<totfact> 0.42830330E+01</totfact>
</mgrwt>
</event>
<event>
 4    2  0.2930016E-007  0.7824762E+03  0.7818608E-02  0.9750052E-01
         -2   -1    0    0    0  501 -0.00000000000E+00  0.00000000000E+00  0.27350399844E+03  0.27350399845E+03  0.25500000000E-02 0.  1.
          2   -1    0    0  501    0  0.00000000000E+00 -0.00000000000E+00 -0.19213912631E+04  0.19213912631E+04  0.25500000000E-02 0. -1.
    8880023    1    1    2    0    0  0.40350000050E+03 -0.12508603048E+03 -0.15481832088E+04  0.17346873550E+04  0.65864270000E+03 0. -1.
    8880022    1    1    2    0    0 -0.40350000050E+03  0.12508603048E+03 -0.99704055815E+02  0.46020790648E+03  0.15294330000E+03 0.  0.
<mgrwt>
<rscale>  0 0.68113320E+03</rscale>
<asrwt>0</asrwt>
<pdfrwt beam="1">  1        2 0.29559865E+00 0.78247618E+03</pdfrwt>
<pdfrwt beam="2">  1       -2 0.42077540E-01 0.78247618E+03</pdfrwt>
<totfact> 0.40563538E+01</totfact>
</mgrwt>
</event>
<event>
 4    2  0.2930016E-007  0.7064534E+03  0.7818608E-02  0.9971414E-01
         -2   -1    0    0    0  501 -0.00000000000E+00  0.00000000000E+00  0.26475649058E+03  0.26475649059E+03  0.25500000000E-02 0.  1.
          2   -1    0    0  501    0  0.00000000000E+00 -0.00000000000E+00 -0.24889483514E+04  0.24889483514E+04  0.25500000000E-02 0. -1.
    8880023    1    1    2    0    0 -0.20143713726E+03 -0.15712832497E+03 -0.23322899100E+04  0.24369350959E+04  0.65864270000E+03 0. -1.
    8880022    1    1    2    0    0  0.20143713726E+03  0.15712832497E+03  0.10809804923E+03  0.31676974609E+03  0.15294330000E+03 0.  0.
<mgrwt>
<rscale>  0 0.56921629E+03</rscale>
<asrwt>0</asrwt>
<pdfrwt beam="1">  1        2 0.38291511E+00 0.70645342E+03</pdfrwt>
<pdfrwt beam="2">  1       -2 0.40731769E-01 0.70645342E+03</pdfrwt>
<totfact> 0.21217943E+01</totfact>
</mgrwt>
</event>
<event>
 4    2  0.2930016E-007  0.6603646E+03  0.7818608E-02  0.1023786E+00
          2   -1    0    0  501    0  0.00000000000E+00  0.00000000000E+00  0.97873043122E+03  0.97873043122E+03  0.25500000000E-02 0. -1.
         -2   -1    0    0    0  501 -0.00000000000E+00 -0.00000000000E+00 -0.30595782083E+03  0.30595782085E+03  0.25500000000E-02 0.  1.
    8880023    1    1    2    0    0  0.47470186995E+02  0.42094689741E+01  0.82971318026E+03  0.10604269452E+04  0.65864270000E+03 0. -1.
    8880022    1    1    2    0    0 -0.47470186995E+02 -0.42094689741E+01 -0.15694056988E+03  0.22426130690E+03  0.15294330000E+03 0.  0.
<mgrwt>
<rscale>  0 0.46344778E+03</rscale>
<asrwt>0</asrwt>
<pdfrwt beam="1">  1        2 0.15057391E+00 0.66036455E+03</pdfrwt>
<pdfrwt beam="2">  1       -2 0.47070435E-01 0.66036455E+03</pdfrwt>
<totfact> 0.11341792E+02</totfact>
</mgrwt>
</event>
<event>
 4    2  0.2930016E-007  0.7160339E+03  0.7818608E-02  0.9936242E-01
          2   -1    0    0  501    0  0.00000000000E+00  0.00000000000E+00  0.22131386353E+04  0.22131386353E+04  0.25500000000E-02 0. -1.
         -2   -1    0    0    0  501 -0.00000000000E+00 -0.00000000000E+00 -0.16057754284E+03  0.16057754286E+03  0.25500000000E-02 0.  1.
    8880023    1    1    2    0    0  0.81458512623E+02 -0.26881003692E+03  0.18768642822E+04  0.20088116052E+04  0.65864270000E+03 0. -1.
    8880022    1    1    2    0    0 -0.81458512623E+02  0.26881003692E+03  0.17569681034E+03  0.36490457301E+03  0.15294330000E+03 0.  0.
<mgrwt>
<rscale>  0 0.58536560E+03</rscale>
<asrwt>0</asrwt>
<pdfrwt beam="1">  1        2 0.34048284E+00 0.71603389E+03</pdfrwt>
<pdfrwt beam="2">  1       -2 0.24704239E-01 0.71603389E+03</pdfrwt>
<totfact> 0.77036567E+01</totfact>
</mgrwt>
</event>
<event>
 4    2  0.2930016E-007  0.1163437E+04  0.7818608E-02  0.9193510E-01
          2   -1    0    0  501    0  0.00000000000E+00  0.00000000000E+00  0.15519284236E+04  0.15519284236E+04  0.25500000000E-02 0. -1.
         -2   -1    0    0    0  501 -0.00000000000E+00 -0.00000000000E+00 -0.13486002928E+04  0.13486002928E+04  0.25500000000E-02 0.  1.
    8880023    1    1    2    0    0 -0.85580151948E+02 -0.95522370395E+03 -0.87022109819E+03  0.14528837713E+04  0.65864270000E+03 0.  0.
    8880022    1    1    2    0    0  0.85580151948E+02  0.95522370395E+03  0.10735492290E+04  0.14476449451E+04  0.15294330000E+03 0.  0.
<mgrwt>
<rscale>  0 0.11120668E+04</rscale>
<asrwt>0</asrwt>
<pdfrwt beam="1">  1        2 0.23875822E+00 0.11634374E+04</pdfrwt>
<pdfrwt beam="2">  1       -2 0.20747697E+00 0.11634374E+04</pdfrwt>
<totfact> 0.13742778E+00</totfact>
</mgrwt>
</event>
<event>
 4    2  0.2930016E-007  0.7183997E+03  0.7818608E-02  0.9928038E-01
         -2   -1    0    0    0  501 -0.00000000000E+00  0.00000000000E+00  0.24213721037E+03  0.24213721038E+03  0.25500000000E-02 0.  1.
          2   -1    0    0  501    0  0.00000000000E+00 -0.00000000000E+00 -0.14623215051E+04  0.14623215051E+04  0.25500000000E-02 0. -1.
    8880023    1    1    2    0    0  0.51451572755E+02 -0.28220680560E+03 -0.11736456508E+04  0.13760604149E+04  0.65864270000E+03 0. -1.
    8880022    1    1    2    0    0 -0.51451572755E+02  0.28220680560E+03 -0.46538643957E+02  0.32839830064E+03  0.15294330000E+03 0.  0.
<mgrwt>
<rscale>  0 0.58921461E+03</rscale>
<asrwt>0</asrwt>
<pdfrwt beam="1">  1        2 0.22497253E+00 0.71839972E+03</pdfrwt>
<pdfrwt beam="2">  1       -2 0.37251880E-01 0.71839972E+03</pdfrwt>
<totfact> 0.92508423E+01</totfact>
</mgrwt>
</event>
<event>
 4    2  0.5702597E-007  0.8701786E+03  0.7818608E-02  0.9575708E-01
          2   -1    0    0  501    0  0.00000000000E+00  0.00000000000E+00  0.38473485026E+04  0.38473485026E+04  0.25500000000E-02 0. -1.
         -2   -1    0    0    0  501 -0.00000000000E+00 -0.00000000000E+00 -0.12665987987E+04  0.12665987987E+04  0.25500000000E-02 0.  1.
    8880023    1    1    2    0    0  0.56331409837E+03  0.77960061351E+02  0.37259460287E+04  0.38262102085E+04  0.65864270000E+03 0.  0.
    8880022    1    1    2    0    0 -0.56331409837E+03 -0.77960061351E+02 -0.11451963248E+04  0.12877370927E+04  0.15294330000E+03 0.  0.
<mgrwt>
<rscale>  0 0.78925066E+03</rscale>
<asrwt>0</asrwt>
<pdfrwt beam="1">  1        2 0.59189976E+00 0.87017857E+03</pdfrwt>
<pdfrwt beam="2">  1       -2 0.19486136E+00 0.87017857E+03</pdfrwt>
<totfact> 0.69921699E-02</totfact>
</mgrwt>
</event>
<event>
 4    2  0.2930016E-007  0.7660360E+03  0.7818608E-02  0.9789724E-01
         -2   -1    0    0    0  501 -0.00000000000E+00  0.00000000000E+00  0.31772153602E+03  0.31772153603E+03  0.25500000000E-02 0.  1.
          2   -1    0    0  501    0  0.00000000000E+00 -0.00000000000E+00 -0.26296107730E+04  0.26296107730E+04  0.25500000000E-02 0. -1.
    8880023    1    1    2    0    0  0.33006950550E+03  0.20989298021E+03 -0.23990581357E+04  0.25183905746E+04  0.65864270000E+03 0.  0.
    8880022    1    1    2    0    0 -0.33006950550E+03 -0.20989298021E+03  0.87168898708E+02  0.42894173441E+03  0.15294330000E+03 0.  0.
<mgrwt>
<rscale>  0 0.65916923E+03</rscale>
<asrwt>0</asrwt>
<pdfrwt beam="1">  1        2 0.40455549E+00 0.76603600E+03</pdfrwt>
<pdfrwt beam="2">  1       -2 0.48880238E-01 0.76603600E+03</pdfrwt>
<totfact> 0.12150588E+01</totfact>
</mgrwt>
</event>
<event>
 4    2  0.2930016E-007  0.6811475E+03  0.7818608E-02  0.1008682E+00
          2   -1    0    0  501    0  0.00000000000E+00  0.00000000000E+00  0.23410755525E+04  0.23410755525E+04  0.25500000000E-02 0. -1.
         -2   -1    0    0    0  501 -0.00000000000E+00 -0.00000000000E+00 -0.11205719441E+03  0.11205719444E+03  0.25500000000E-02 0.  1.
    8880023    1    1    2    0    0  0.84486783520E+02 -0.15170285608E+03  0.20511050536E+04  0.21612482320E+04  0.65864270000E+03 0. -1.
    8880022    1    1    2    0    0 -0.84486783520E+02  0.15170285608E+03  0.17791330445E+03  0.29188451492E+03  0.15294330000E+03 0.  0.
<mgrwt>
<rscale>  0 0.52001895E+03</rscale>
<asrwt>0</asrwt>
<pdfrwt beam="1">  1        2 0.36016545E+00 0.68114755E+03</pdfrwt>
<pdfrwt beam="2">  1       -2 0.17239569E-01 0.68114755E+03</pdfrwt>
<totfact> 0.12362906E+02</totfact>
</mgrwt>
</event>
<event>
 4    2  0.2930016E-007  0.1045464E+04  0.7818608E-02  0.9324354E-01
          2   -1    0    0  501    0  0.00000000000E+00  0.00000000000E+00  0.15568148542E+04  0.15568148542E+04  0.25500000000E-02 0. -1.
         -2   -1    0    0    0  501 -0.00000000000E+00 -0.00000000000E+00 -0.12820585317E+04  0.12820585318E+04  0.25500000000E-02 0.  1.
    8880023    1    1    2    0    0 -0.58801210574E+03  0.55984572680E+03  0.12046026153E+04  0.15950119565E+04  0.65864270000E+03 0.  0.
    8880022    1    1    2    0    0  0.58801210574E+03 -0.55984572680E+03 -0.92984629286E+03  0.12438614294E+04  0.15294330000E+03 0.  0.
<mgrwt>
<rscale>  0 0.98571391E+03</rscale>
<asrwt>0</asrwt>
<pdfrwt beam="1">  1        2 0.23950998E+00 0.10454643E+04</pdfrwt>
<pdfrwt beam="2">  1       -2 0.19723978E+00 0.10454643E+04</pdfrwt>
<totfact> 0.16156634E+00</totfact>
</mgrwt>
</event>
<event>
 4    2  0.3610509E-007  0.8210499E+03  0.7818608E-02  0.9667004E-01
          2   -1    0    0  501    0  0.00000000000E+00  0.00000000000E+00  0.20998456314E+04  0.20998456314E+04  0.25500000000E-02 0. -1.
         -2   -1    0    0    0  501 -0.00000000000E+00 -0.00000000000E+00 -0.74966295161E+03  0.74966295162E+03  0.25500000000E-02 0.  1.
    8880023    1    1    2    0    0 -0.48686681228E+02  0.48779327250E+03  0.19165399367E+04  0.20850055647E+04  0.65864270000E+03 0. -1.
    8880022    1    1    2    0    0  0.48686681228E+02 -0.48779327250E+03 -0.56635725688E+03  0.76450301835E+03  0.15294330000E+03 0.  0.
<mgrwt>
<rscale>  0 0.73015793E+03</rscale>
<asrwt>0</asrwt>
<pdfrwt beam="1">  1        2 0.32305317E+00 0.82104986E+03</pdfrwt>
<pdfrwt beam="2">  1       -2 0.11533276E+00 0.82104986E+03</pdfrwt>
<totfact> 0.35329343E+00</totfact>
</mgrwt>
</event>
<event>
 4    2  0.2930016E-007  0.7478210E+03  0.7818608E-02  0.9837724E-01
          2   -1    0    0  501    0  0.00000000000E+00  0.00000000000E+00  0.33572425311E+04  0.33572425311E+04  0.25500000000E-02 0. -1.
         -2   -1    0    0    0  501 -0.00000000000E+00 -0.00000000000E+00 -0.12456753410E+03  0.12456753412E+03  0.25500000000E-02 0.  1.
    8880023    1    1    2    0    0 -0.23850133416E+03  0.26180739258E+03  0.28175904772E+04  0.29151419006E+04  0.65864270000E+03 0. -1.
    8880022    1    1    2    0    0  0.23850133416E+03 -0.26180739258E+03  0.41508451983E+03  0.56666816464E+03  0.15294330000E+03 0.  0.
<mgrwt>
<rscale>  0 0.63376760E+03</rscale>
<asrwt>0</asrwt>
<pdfrwt beam="1">  1        2 0.51649877E+00 0.74782097E+03</pdfrwt>
<pdfrwt beam="2">  1       -2 0.19164239E-01 0.74782097E+03</pdfrwt>
<totfact> 0.25103626E+01</totfact>
</mgrwt>
</event>
<event>
 4    2  0.2930016E-007  0.1077001E+04  0.7818608E-02  0.9287105E-01
          2   -1    0    0  501    0  0.00000000000E+00  0.00000000000E+00  0.14196548191E+04  0.14196548191E+04  0.25500000000E-02 0. -1.
         -2   -1    0    0    0  501 -0.00000000000E+00 -0.00000000000E+00 -0.74343074976E+03  0.74343074977E+03  0.25500000000E-02 0.  1.
    8880023    1    1    2    0    0  0.36794108505E+03 -0.76859672437E+03  0.72120332815E+03  0.12961736047E+04  0.65864270000E+03 0.  0.
    8880022    1    1    2    0    0 -0.36794108505E+03  0.76859672437E+03 -0.44979258852E+02  0.86691196411E+03  0.15294330000E+03 0.  0.
<mgrwt>
<rscale>  0 0.10197873E+04</rscale>
<asrwt>0</asrwt>
<pdfrwt beam="1">  1        2 0.21840843E+00 0.10770013E+04</pdfrwt>
<pdfrwt beam="2">  1       -2 0.11437396E+00 0.10770013E+04</pdfrwt>
<totfact> 0.83122490E+00</totfact>
</mgrwt>
</event>
<event>
 4    2  0.2930016E-007  0.8932269E+03  0.7818608E-02  0.9536993E-01
         -2   -1    0    0    0  501 -0.00000000000E+00  0.00000000000E+00  0.70266983186E+03  0.70266983187E+03  0.25500000000E-02 0.  1.
          2   -1    0    0  501    0  0.00000000000E+00 -0.00000000000E+00 -0.14425546438E+04  0.14425546438E+04  0.25500000000E-02 0. -1.
    8880023    1    1    2    0    0  0.58698108360E+03  0.13963240439E+03 -0.11071208068E+04  0.14225226494E+04  0.65864270000E+03 0.  0.
    8880022    1    1    2    0    0 -0.58698108360E+03 -0.13963240439E+03  0.36723599484E+03  0.72270182633E+03  0.15294330000E+03 0.  0.
<mgrwt>
<rscale>  0 0.81610544E+03</rscale>
<asrwt>0</asrwt>
<pdfrwt beam="1">  1        2 0.22193148E+00 0.89322685E+03</pdfrwt>
<pdfrwt beam="2">  1       -2 0.10810305E+00 0.89322685E+03</pdfrwt>
<totfact> 0.94310394E+00</totfact>
</mgrwt>
</event>
<event>
 4    2  0.2930016E-007  0.7526872E+03  0.7818608E-02  0.9824421E-01
          2   -1    0    0  501    0  0.00000000000E+00  0.00000000000E+00  0.56963494765E+03  0.56963494766E+03  0.25500000000E-02 0. -1.
         -2   -1    0    0    0  501 -0.00000000000E+00 -0.00000000000E+00 -0.71937591218E+03  0.71937591218E+03  0.25500000000E-02 0.  1.
    8880023    1    1    2    0    0 -0.34344132242E+03 -0.12155615989E+03  0.18053269906E+03  0.77403494989E+03  0.65864270000E+03 0. -1.
    8880022    1    1    2    0    0  0.34344132242E+03  0.12155615989E+03 -0.33027366359E+03  0.51497590995E+03  0.15294330000E+03 0.  1.
<mgrwt>
<rscale>  0 0.64068277E+03</rscale>
<asrwt>0</asrwt>
<pdfrwt beam="1">  1        2 0.87636146E-01 0.75268722E+03</pdfrwt>
<pdfrwt beam="2">  1       -2 0.11067322E+00 0.75268722E+03</pdfrwt>
<totfact> 0.34598471E+01</totfact>
</mgrwt>
</event>
<event>
 4    2  0.2930016E-007  0.8021527E+03  0.7818608E-02  0.9706161E-01
          2   -1    0    0  501    0  0.00000000000E+00  0.00000000000E+00  0.85700398756E+03  0.85700398756E+03  0.25500000000E-02 0. -1.
         -2   -1    0    0    0  501 -0.00000000000E+00 -0.00000000000E+00 -0.72469004930E+03  0.72469004931E+03  0.25500000000E-02 0.  1.
    8880023    1    1    2    0    0 -0.23416626019E+03 -0.39345256515E+03  0.52561931812E+03  0.95902274857E+03  0.65864270000E+03 0.  0.
    8880022    1    1    2    0    0  0.23416626019E+03  0.39345256515E+03 -0.39330537986E+03  0.62267128830E+03  0.15294330000E+03 0.  1.
<mgrwt>
<rscale>  0 0.70651171E+03</rscale>
<asrwt>0</asrwt>
<pdfrwt beam="1">  1        2 0.13184677E+00 0.80215271E+03</pdfrwt>
<pdfrwt beam="2">  1       -2 0.11149078E+00 0.80215271E+03</pdfrwt>
<totfact> 0.20156583E+01</totfact>
</mgrwt>
</event>
<event>
 4    2  0.2930016E-007  0.6599729E+03  0.7818608E-02  0.1024184E+00
         -2   -1    0    0    0  501 -0.00000000000E+00  0.00000000000E+00  0.14855623575E+03  0.14855623578E+03  0.25500000000E-02 0.  1.
          2   -1    0    0  501    0  0.00000000000E+00 -0.00000000000E+00 -0.15804534850E+04  0.15804534850E+04  0.25500000000E-02 0. -1.
    8880023    1    1    2    0    0 -0.40288624000E+02 -0.11436312324E+02 -0.14248559234E+04  0.15702797748E+04  0.65864270000E+03 0. -1.
    8880022    1    1    2    0    0  0.40288624000E+02  0.11436312324E+02 -0.70413258532E+01  0.15872994597E+03  0.15294330000E+03 0.  0.
<mgrwt>
<rscale>  0 0.46206422E+03</rscale>
<asrwt>0</asrwt>
<pdfrwt beam="1">  1        2 0.24314668E+00 0.65997285E+03</pdfrwt>
<pdfrwt beam="2">  1       -2 0.22854807E-01 0.65997285E+03</pdfrwt>
<totfact> 0.19722536E+02</totfact>
</mgrwt>
</event>
<event>
 4    2  0.2930016E-007  0.7602432E+03  0.7818608E-02  0.9804478E-01
          2   -1    0    0  501    0  0.00000000000E+00  0.00000000000E+00  0.11175357040E+04  0.11175357040E+04  0.25500000000E-02 0. -1.
         -2   -1    0    0    0  501 -0.00000000000E+00 -0.00000000000E+00 -0.30600969871E+03  0.30600969872E+03  0.25500000000E-02 0.  1.
    8880023    1    1    2    0    0  0.37465375010E+03  0.61596748194E+02  0.52621917841E+03  0.92459527462E+03  0.65864270000E+03 0.  0.
    8880022    1    1    2    0    0 -0.37465375010E+03 -0.61596748194E+02  0.28530682685E+03  0.49895012808E+03  0.15294330000E+03 0. -1.
<mgrwt>
<rscale>  0 0.65122773E+03</rscale>
<asrwt>0</asrwt>
<pdfrwt beam="1">  1        2 0.17192857E+00 0.76024325E+03</pdfrwt>
<pdfrwt beam="2">  1       -2 0.47078416E-01 0.76024325E+03</pdfrwt>
<totfact> 0.92150737E+01</totfact>
</mgrwt>
</event>
<event>
 4    2  0.2930016E-007  0.7033410E+03  0.7818608E-02  0.9983614E-01
          2   -1    0    0  501    0  0.00000000000E+00  0.00000000000E+00  0.28851618617E+04  0.28851618617E+04  0.25500000000E-02 0. -1.
         -2   -1    0    0    0  501 -0.00000000000E+00 -0.00000000000E+00 -0.23482752641E+03  0.23482752642E+03  0.25500000000E-02 0.  1.
    8880023    1    1    2    0    0 -0.14906323992E+02 -0.24628464515E+03  0.27298513202E+04  0.28190027956E+04  0.65864270000E+03 0. -1.
    8880022    1    1    2    0    0  0.14906323992E+02  0.24628464515E+03 -0.79516984962E+02  0.30098659247E+03  0.15294330000E+03 0.  0.
<mgrwt>
<rscale>  0 0.56374610E+03</rscale>
<asrwt>0</asrwt>
<pdfrwt beam="1">  1        2 0.44387106E+00 0.70334098E+03</pdfrwt>
<pdfrwt beam="2">  1       -2 0.36127311E-01 0.70334098E+03</pdfrwt>
<totfact> 0.15763418E+01</totfact>
</mgrwt>
</event>
<event>
 4    2  0.2930016E-007  0.7054252E+03  0.7818608E-02  0.9975398E-01
          2   -1    0    0  501    0  0.00000000000E+00  0.00000000000E+00  0.25114210733E+04  0.25114210733E+04  0.25500000000E-02 0. -1.
         -2   -1    0    0    0  501 -0.00000000000E+00 -0.00000000000E+00 -0.49329369279E+03  0.49329369279E+03  0.25500000000E-02 0.  1.
    8880023    1    1    2    0    0  0.33067798054E+02  0.25044179392E+03  0.24116549045E+04  0.25127085298E+04  0.65864270000E+03 0.  0.
    8880022    1    1    2    0    0 -0.33067798054E+02 -0.25044179392E+03 -0.39352752394E+03  0.49200623627E+03  0.15294330000E+03 0.  0.
<mgrwt>
<rscale>  0 0.56742267E+03</rscale>
<asrwt>0</asrwt>
<pdfrwt beam="1">  1        2 0.38637247E+00 0.70542525E+03</pdfrwt>
<pdfrwt beam="2">  1       -2 0.75891337E-01 0.70542525E+03</pdfrwt>
<totfact> 0.56453562E+00</totfact>
</mgrwt>
</event>
<event>
 4    2  0.2930016E-007  0.1218394E+04  0.7818608E-02  0.9139446E-01
          2   -1    0    0  501    0  0.00000000000E+00  0.00000000000E+00  0.98867967133E+03  0.98867967133E+03  0.25500000000E-02 0. -1.
         -2   -1    0    0    0  501 -0.00000000000E+00 -0.00000000000E+00 -0.14628083237E+04  0.14628083237E+04  0.25500000000E-02 0.  1.
    8880023    1    1    2    0    0  0.96960304862E+03  0.33248145069E+03  0.17158683800E+03  0.12304170985E+04  0.65864270000E+03 0.  0.
    8880022    1    1    2    0    0 -0.96960304862E+03 -0.33248145069E+03 -0.64571549037E+03  0.12210708966E+04  0.15294330000E+03 0. -1.
<mgrwt>
<rscale>  0 0.11700911E+04</rscale>
<asrwt>0</asrwt>
<pdfrwt beam="1">  1        2 0.15210457E+00 0.12183941E+04</pdfrwt>
<pdfrwt beam="2">  1       -2 0.22504743E+00 0.12183941E+04</pdfrwt>
<totfact> 0.22853360E+00</totfact>
</mgrwt>
</event>
<event>
 4    2  0.2930016E-007  0.8958345E+03  0.7818608E-02  0.9532752E-01
         -2   -1    0    0    0  501 -0.00000000000E+00  0.00000000000E+00  0.10864607793E+04  0.10864607793E+04  0.25500000000E-02 0.  1.
          2   -1    0    0  501    0  0.00000000000E+00 -0.00000000000E+00 -0.74980609161E+03  0.74980609161E+03  0.25500000000E-02 0. -1.
    8880023    1    1    2    0    0  0.31865704282E+03  0.51688189620E+03 -0.29858662927E+03  0.94428459005E+03  0.65864270000E+03 0.  0.
    8880022    1    1    2    0    0 -0.31865704282E+03 -0.51688189620E+03  0.63524131691E+03  0.89198228082E+03  0.15294330000E+03 0.  0.
<mgrwt>
<rscale>  0 0.81911627E+03</rscale>
<asrwt>0</asrwt>
<pdfrwt beam="1">  1        2 0.11535478E+00 0.89583448E+03</pdfrwt>
<pdfrwt beam="2">  1       -2 0.16714781E+00 0.89583448E+03</pdfrwt>
<totfact> 0.83934574E+00</totfact>
</mgrwt>
</event>
<event>
 4    2  0.2930016E-007  0.7434618E+03  0.7818608E-02  0.9849976E-01
         -2   -1    0    0    0  501 -0.00000000000E+00  0.00000000000E+00  0.54480564033E+03  0.54480564034E+03  0.25500000000E-02 0.  1.
          2   -1    0    0  501    0  0.00000000000E+00 -0.00000000000E+00 -0.12704076151E+04  0.12704076151E+04  0.25500000000E-02 0. -1.
    8880023    1    1    2    0    0  0.18799111554E+03 -0.28910991323E+03 -0.10709824755E+04  0.13037403386E+04  0.65864270000E+03 0. -1.
    8880022    1    1    2    0    0 -0.18799111554E+03  0.28910991323E+03  0.34538050066E+03  0.51147291688E+03  0.15294330000E+03 0.  0.
<mgrwt>
<rscale>  0 0.62748164E+03</rscale>
<asrwt>0</asrwt>
<pdfrwt beam="1">  1        2 0.19544732E+00 0.74346177E+03</pdfrwt>
<pdfrwt beam="2">  1       -2 0.83816253E-01 0.74346177E+03</pdfrwt>
<totfact> 0.21847835E+01</totfact>
</mgrwt>
</event>
<event>
 4    2  0.2930016E-007  0.9037561E+03  0.7818608E-02  0.9520029E-01
         -2   -1    0    0    0  501 -0.00000000000E+00  0.00000000000E+00  0.29821947467E+03  0.29821947468E+03  0.25500000000E-02 0.  1.
          2   -1    0    0  501    0  0.00000000000E+00 -0.00000000000E+00 -0.30772559649E+04  0.30772559649E+04  0.25500000000E-02 0. -1.
    8880023    1    1    2    0    0  0.48734253213E+03 -0.38139491696E+03 -0.25377582983E+04  0.26938805120E+04  0.65864270000E+03 0.  0.
    8880022    1    1    2    0    0 -0.48734253213E+03  0.38139491696E+03 -0.24127819189E+03  0.68159492751E+03  0.15294330000E+03 0.  0.
<mgrwt>
<rscale>  0 0.82823164E+03</rscale>
<asrwt>0</asrwt>
<pdfrwt beam="1">  1        2 0.47342397E+00 0.90375607E+03</pdfrwt>
<pdfrwt beam="2">  1       -2 0.45879921E-01 0.90375607E+03</pdfrwt>
<totfact> 0.72869536E+00</totfact>
</mgrwt>
</event>
<event>
 4    2  0.2930016E-007  0.1010985E+04  0.7818608E-02  0.9367325E-01
          2   -1    0    0  501    0  0.00000000000E+00  0.00000000000E+00  0.24556223444E+04  0.24556223444E+04  0.25500000000E-02 0. -1.
         -2   -1    0    0    0  501 -0.00000000000E+00 -0.00000000000E+00 -0.32755985137E+03  0.32755985138E+03  0.25500000000E-02 0.  1.
    8880023    1    1    2    0    0  0.69921662051E+03 -0.31524146355E+03  0.12367890425E+04  0.15974161651E+04  0.65864270000E+03 0.  1.
    8880022    1    1    2    0    0 -0.69921662051E+03  0.31524146355E+03  0.89127345050E+03  0.11857660306E+04  0.15294330000E+03 0. -1.
<mgrwt>
<rscale>  0 0.94814229E+03</rscale>
<asrwt>0</asrwt>
<pdfrwt beam="1">  1        2 0.37778807E+00 0.10109853E+04</pdfrwt>
<pdfrwt beam="2">  1       -2 0.50393822E-01 0.10109853E+04</pdfrwt>
<totfact> 0.13891035E+01</totfact>
</mgrwt>
</event>
<event>
 4    2  0.2930016E-007  0.6591624E+03  0.7818608E-02  0.1025031E+00
         -2   -1    0    0    0  501 -0.00000000000E+00  0.00000000000E+00  0.23696879036E+03  0.23696879037E+03  0.25500000000E-02 0.  1.
          2   -1    0    0  501    0  0.00000000000E+00 -0.00000000000E+00 -0.11460872747E+04  0.11460872747E+04  0.25500000000E-02 0. -1.
    8880023    1    1    2    0    0 -0.11800549203E+02 -0.23359128190E+02 -0.10040984939E+04  0.12011281753E+04  0.65864270000E+03 0. -1.
    8880022    1    1    2    0    0  0.11800549203E+02  0.23359128190E+02  0.94980009579E+02  0.18192788974E+03  0.15294330000E+03 0.  0.
<mgrwt>
<rscale>  0 0.45913841E+03</rscale>
<asrwt>0</asrwt>
<pdfrwt beam="1">  1        2 0.17632112E+00 0.65916243E+03</pdfrwt>
<pdfrwt beam="2">  1       -2 0.36456738E-01 0.65916243E+03</pdfrwt>
<totfact> 0.14743038E+02</totfact>
</mgrwt>
</event>
<event>
 4    2  0.2930016E-007  0.1153027E+04  0.7818608E-02  0.9204194E-01
         -2   -1    0    0    0  501 -0.00000000000E+00  0.00000000000E+00  0.53895757609E+03  0.53895757610E+03  0.25500000000E-02 0.  1.
          2   -1    0    0  501    0  0.00000000000E+00 -0.00000000000E+00 -0.34112214812E+04  0.34112214812E+04  0.25500000000E-02 0. -1.
    8880023    1    1    2    0    0 -0.85437491858E+03  0.40706701479E+03 -0.27522606234E+04  0.29840256033E+04  0.65864270000E+03 0.  0.
    8880022    1    1    2    0    0  0.85437491858E+03 -0.40706701479E+03 -0.12000328176E+03  0.96615345400E+03  0.15294330000E+03 0.  0.
<mgrwt>
<rscale>  0 0.11010245E+04</rscale>
<asrwt>0</asrwt>
<pdfrwt beam="1">  1        2 0.52480329E+00 0.11530266E+04</pdfrwt>
<pdfrwt beam="2">  1       -2 0.82916553E-01 0.11530266E+04</pdfrwt>
<totfact> 0.12034241E+00</totfact>
</mgrwt>
</event>
<event>
 4    2  0.2930016E-007  0.7693531E+03  0.7818608E-02  0.9781468E-01
          2   -1    0    0  501    0  0.00000000000E+00  0.00000000000E+00  0.81420638759E+03  0.81420638759E+03  0.25500000000E-02 0. -1.
         -2   -1    0    0    0  501 -0.00000000000E+00 -0.00000000000E+00 -0.12827580643E+04  0.12827580643E+04  0.25500000000E-02 0.  1.
    8880023    1    1    2    0    0  0.39344744574E+03  0.57385611687E+02  0.58110541352E+03  0.96415128941E+03  0.65864270000E+03 0.  0.
    8880022    1    1    2    0    0 -0.39344744574E+03 -0.57385611687E+02 -0.10496570902E+04  0.11328131624E+04  0.15294330000E+03 0.  0.
<mgrwt>
<rscale>  0 0.66366601E+03</rscale>
<asrwt>0</asrwt>
<pdfrwt beam="1">  1        2 0.12526252E+00 0.76935311E+03</pdfrwt>
<pdfrwt beam="2">  1       -2 0.19734739E+00 0.76935311E+03</pdfrwt>
<totfact> 0.47472029E+00</totfact>
</mgrwt>
</event>
<event>
 4    2  0.2930016E-007  0.8127439E+03  0.7818608E-02  0.9683890E-01
          2   -1    0    0  501    0  0.00000000000E+00  0.00000000000E+00  0.23956321428E+04  0.23956321428E+04  0.25500000000E-02 0. -1.
         -2   -1    0    0    0  501 -0.00000000000E+00 -0.00000000000E+00 -0.27887280249E+03  0.27887280250E+03  0.25500000000E-02 0.  1.
    8880023    1    1    2    0    0  0.36330069743E+03  0.30782300499E+03  0.20029793643E+04  0.21615917605E+04  0.65864270000E+03 0. -1.
    8880022    1    1    2    0    0 -0.36330069743E+03 -0.30782300499E+03  0.11377997603E+03  0.51291318478E+03  0.15294330000E+03 0.  0.
<mgrwt>
<rscale>  0 0.71984150E+03</rscale>
<asrwt>0</asrwt>
<pdfrwt beam="1">  1        2 0.36855878E+00 0.81274387E+03</pdfrwt>
<pdfrwt beam="2">  1       -2 0.42903510E-01 0.81274387E+03</pdfrwt>
<totfact> 0.21286489E+01</totfact>
</mgrwt>
</event>
<event>
 4    2  0.2930016E-007  0.6706016E+03  0.7818608E-02  0.1015235E+00
          2   -1    0    0  501    0  0.00000000000E+00  0.00000000000E+00  0.23455057881E+04  0.23455057881E+04  0.25500000000E-02 0. -1.
         -2   -1    0    0    0  501 -0.00000000000E+00 -0.00000000000E+00 -0.80468427343E+02  0.80468427384E+02  0.25500000000E-02 0.  1.
    8880023    1    1    2    0    0 -0.12548630846E+03 -0.12227127642E+02  0.17353741660E+04  0.18604381254E+04  0.65864270000E+03 0.  0.
    8880022    1    1    2    0    0  0.12548630846E+03  0.12227127642E+02  0.52966319477E+03  0.56553609007E+03  0.15294330000E+03 0. -1.
<mgrwt>
<rscale>  0 0.49445969E+03</rscale>
<asrwt>0</asrwt>
<pdfrwt beam="1">  1        2 0.36084694E+00 0.67060161E+03</pdfrwt>
<pdfrwt beam="2">  1       -2 0.12379762E-01 0.67060161E+03</pdfrwt>
<totfact> 0.21499359E+02</totfact>
</mgrwt>
</event>
<event>
 4    2  0.2930016E-007  0.6752966E+03  0.7818608E-02  0.1012120E+00
         -2   -1    0    0    0  501 -0.00000000000E+00  0.00000000000E+00  0.36911246551E+03  0.36911246552E+03  0.25500000000E-02 0.  1.
          2   -1    0    0  501    0  0.00000000000E+00 -0.00000000000E+00 -0.12575657034E+04  0.12575657034E+04  0.25500000000E-02 0. -1.
    8880023    1    1    2    0    0  0.14904777907E+03  0.29964899732E+00 -0.11224175756E+04  0.13099033363E+04  0.65864270000E+03 0. -1.
    8880022    1    1    2    0    0 -0.14904777907E+03 -0.29964899732E+00  0.23396433771E+03  0.31677483260E+03  0.15294330000E+03 0.  0.
<mgrwt>
<rscale>  0 0.50640718E+03</rscale>
<asrwt>0</asrwt>
<pdfrwt beam="1">  1        2 0.19347164E+00 0.67529663E+03</pdfrwt>
<pdfrwt beam="2">  1       -2 0.56786534E-01 0.67529663E+03</pdfrwt>
<totfact> 0.52237749E+01</totfact>
</mgrwt>
</event>
<event>
 4    2  0.2930016E-007  0.8023941E+03  0.7818608E-02  0.9705643E-01
          2   -1    0    0  501    0  0.00000000000E+00  0.00000000000E+00  0.36933622610E+03  0.36933622611E+03  0.25500000000E-02 0. -1.
         -2   -1    0    0    0  501 -0.00000000000E+00 -0.00000000000E+00 -0.12428159580E+04  0.12428159580E+04  0.25500000000E-02 0.  1.
    8880023    1    1    2    0    0  0.41739339623E+03 -0.18923225039E+03 -0.28671828586E+03  0.85208196408E+03  0.65864270000E+03 0.  1.
    8880022    1    1    2    0    0 -0.41739339623E+03  0.18923225039E+03 -0.58676144606E+03  0.76007022005E+03  0.15294330000E+03 0.  0.
<mgrwt>
<rscale>  0 0.70681789E+03</rscale>
<asrwt>0</asrwt>
<pdfrwt beam="1">  1        2 0.56820958E-01 0.80239410E+03</pdfrwt>
<pdfrwt beam="2">  1       -2 0.19120245E+00 0.80239410E+03</pdfrwt>
<totfact> 0.13396706E+01</totfact>
</mgrwt>
</event>
<event>
 4    2  0.2930016E-007  0.6821400E+03  0.7818608E-02  0.1008138E+00
         -2   -1    0    0    0  501 -0.00000000000E+00  0.00000000000E+00  0.53325117244E+03  0.53325117245E+03  0.25500000000E-02 0.  1.
          2   -1    0    0  501    0  0.00000000000E+00 -0.00000000000E+00 -0.13256526446E+04  0.13256526446E+04  0.25500000000E-02 0. -1.
    8880023    1    1    2    0    0  0.14688945264E+03  0.99640846703E+02 -0.12048508175E+04  0.13845506521E+04  0.65864270000E+03 0. -1.
    8880022    1    1    2    0    0 -0.14688945264E+03 -0.99640846703E+02  0.41244934531E+03  0.47435316494E+03  0.15294330000E+03 0.  0.
<mgrwt>
<rscale>  0 0.52221362E+03</rscale>
<asrwt>0</asrwt>
<pdfrwt beam="1">  1        2 0.20394656E+00 0.68214003E+03</pdfrwt>
<pdfrwt beam="2">  1       -2 0.82038643E-01 0.68214003E+03</pdfrwt>
<totfact> 0.21471654E+01</totfact>
</mgrwt>
</event>
<event>
 4    2  0.2930016E-007  0.6718948E+03  0.7818608E-02  0.1014339E+00
          2   -1    0    0  501    0  0.00000000000E+00  0.00000000000E+00  0.17915585403E+04  0.17915585403E+04  0.25500000000E-02 0. -1.
         -2   -1    0    0    0  501 -0.00000000000E+00 -0.00000000000E+00 -0.22982391883E+03  0.22982391885E+03  0.25500000000E-02 0.  1.
    8880023    1    1    2    0    0  0.10278533618E+03 -0.84068950679E+02  0.16639674925E+04  0.17945000519E+04  0.65864270000E+03 0. -1.
    8880022    1    1    2    0    0 -0.10278533618E+03  0.84068950679E+02 -0.10223287103E+03  0.22688240728E+03  0.15294330000E+03 0.  0.
<mgrwt>
<rscale>  0 0.49785835E+03</rscale>
<asrwt>0</asrwt>
<pdfrwt beam="1">  1        2 0.27562440E+00 0.67189480E+03</pdfrwt>
<pdfrwt beam="2">  1       -2 0.35357524E-01 0.67189480E+03</pdfrwt>
<totfact> 0.67742697E+01</totfact>
</mgrwt>
</event>
<event>
 4    2  0.2930016E-007  0.7273070E+03  0.7818608E-02  0.9898595E-01
         -2   -1    0    0    0  501 -0.00000000000E+00  0.00000000000E+00  0.84124673495E+03  0.84124673495E+03  0.25500000000E-02 0.  1.
          2   -1    0    0  501    0  0.00000000000E+00 -0.00000000000E+00 -0.45402545594E+03  0.45402545595E+03  0.25500000000E-02 0. -1.
    8880023    1    1    2    0    0  0.25637926540E+03  0.17156612216E+03 -0.61233070815E+02  0.72988009784E+03  0.65864270000E+03 0.  0.
    8880022    1    1    2    0    0 -0.25637926540E+03 -0.17156612216E+03  0.44845434982E+03  0.56539209306E+03  0.15294330000E+03 0.  0.
<mgrwt>
<rscale>  0 0.60329425E+03</rscale>
<asrwt>0</asrwt>
<pdfrwt beam="1">  1        2 0.69850070E-01 0.72730700E+03</pdfrwt>
<pdfrwt beam="2">  1       -2 0.12942258E+00 0.72730700E+03</pdfrwt>
<totfact> 0.30658262E+01</totfact>
</mgrwt>
</event>
<event>
 4    2  0.2930016E-007  0.7937276E+03  0.7818608E-02  0.9724526E-01
         -2   -1    0    0    0  501 -0.00000000000E+00  0.00000000000E+00  0.27751923466E+03  0.27751923467E+03  0.25500000000E-02 0.  1.
          2   -1    0    0  501    0  0.00000000000E+00 -0.00000000000E+00 -0.22871901437E+04  0.22871901437E+04  0.25500000000E-02 0. -1.
    8880023    1    1    2    0    0  0.40000682790E+03  0.19023090079E+03 -0.19333458242E+04  0.20899352957E+04  0.65864270000E+03 0.  0.
    8880022    1    1    2    0    0 -0.40000682790E+03 -0.19023090079E+03 -0.76325084825E+02  0.47477408266E+03  0.15294330000E+03 0.  0.
<mgrwt>
<rscale>  0 0.69575112E+03</rscale>
<asrwt>0</asrwt>
<pdfrwt beam="1">  1        2 0.35187540E+00 0.79372758E+03</pdfrwt>
<pdfrwt beam="2">  1       -2 0.42695268E-01 0.79372758E+03</pdfrwt>
<totfact> 0.24774190E+01</totfact>
</mgrwt>
</event>
<event>
 4    2  0.2930016E-007  0.8704987E+03  0.7818608E-02  0.9575154E-01
         -2   -1    0    0    0  501 -0.00000000000E+00  0.00000000000E+00  0.65576728353E+03  0.65576728353E+03  0.25500000000E-02 0.  1.
          2   -1    0    0  501    0  0.00000000000E+00 -0.00000000000E+00 -0.17423388477E+04  0.17423388477E+04  0.25500000000E-02 0. -1.
    8880023    1    1    2    0    0  0.14312618647E+03  0.55088348792E+03 -0.14604179716E+04  0.17001731031E+04  0.65864270000E+03 0.  0.
    8880022    1    1    2    0    0 -0.14312618647E+03 -0.55088348792E+03  0.37384640736E+03  0.69793302818E+03  0.15294330000E+03 0.  0.
<mgrwt>
<rscale>  0 0.78962683E+03</rscale>
<asrwt>0</asrwt>
<pdfrwt beam="1">  1        2 0.26805213E+00 0.87049867E+03</pdfrwt>
<pdfrwt beam="2">  1       -2 0.10088728E+00 0.87049867E+03</pdfrwt>
<totfact> 0.76095790E+00</totfact>
</mgrwt>
</event>
<event>
 4    2  0.2930016E-007  0.6619225E+03  0.7818608E-02  0.1022268E+00
          2   -1    0    0  501    0  0.00000000000E+00  0.00000000000E+00  0.75570828867E+03  0.75570828868E+03  0.25500000000E-02 0. -1.
         -2   -1    0    0    0  501 -0.00000000000E+00 -0.00000000000E+00 -0.59672058051E+03  0.59672058052E+03  0.25500000000E-02 0.  1.
    8880023    1    1    2    0    0 -0.27489914426E+02 -0.59795106541E+02  0.59229596455E+03  0.88823187628E+03  0.65864270000E+03 0. -1.
    8880022    1    1    2    0    0  0.27489914426E+02  0.59795106541E+02 -0.43330825639E+03  0.46419699291E+03  0.15294330000E+03 0.  0.
<mgrwt>
<rscale>  0 0.46877019E+03</rscale>
<asrwt>0</asrwt>
<pdfrwt beam="1">  1        2 0.11626281E+00 0.66192247E+03</pdfrwt>
<pdfrwt beam="2">  1       -2 0.91803166E-01 0.66192247E+03</pdfrwt>
<totfact> 0.38284650E+01</totfact>
</mgrwt>
</event>
<event>
 4    2  0.2930016E-007  0.6732818E+03  0.7818608E-02  0.1013412E+00
         -2   -1    0    0    0  501 -0.00000000000E+00  0.00000000000E+00  0.13333437359E+03  0.13333437361E+03  0.25500000000E-02 0.  1.
          2   -1    0    0  501    0  0.00000000000E+00 -0.00000000000E+00 -0.23156769958E+04  0.23156769958E+04  0.25500000000E-02 0. -1.
    8880023    1    1    2    0    0 -0.13184968520E+03 -0.45976682024E+02 -0.21321355085E+04  0.22359137344E+04  0.65864270000E+03 0. -1.
    8880022    1    1    2    0    0  0.13184968520E+03  0.45976682024E+02 -0.50207113741E+02  0.21309763505E+03  0.15294330000E+03 0.  0.
<mgrwt>
<rscale>  0 0.50140883E+03</rscale>
<asrwt>0</asrwt>
<pdfrwt beam="1">  1        2 0.35625797E+00 0.67328181E+03</pdfrwt>
<pdfrwt beam="2">  1       -2 0.20512982E-01 0.67328181E+03</pdfrwt>
<totfact> 0.94571149E+01</totfact>
</mgrwt>
</event>
<event>
 4    2  0.2930016E-007  0.6746129E+03  0.7818608E-02  0.1012551E+00
         -2   -1    0    0    0  501 -0.00000000000E+00  0.00000000000E+00  0.12632887873E+03  0.12632887876E+03  0.25500000000E-02 0.  1.
          2   -1    0    0  501    0  0.00000000000E+00 -0.00000000000E+00 -0.19151789909E+04  0.19151789909E+04  0.25500000000E-02 0. -1.
    8880023    1    1    2    0    0 -0.14591248277E+03 -0.13892419881E+01 -0.16650848240E+04  0.17965550534E+04  0.65864270000E+03 0. -1.
    8880022    1    1    2    0    0  0.14591248277E+03  0.13892419881E+01 -0.12376528821E+03  0.24495281627E+03  0.15294330000E+03 0.  0.
<mgrwt>
<rscale>  0 0.50473107E+03</rscale>
<asrwt>0</asrwt>
<pdfrwt beam="1">  1        2 0.29464290E+00 0.67461292E+03</pdfrwt>
<pdfrwt beam="2">  1       -2 0.19435214E-01 0.67461292E+03</pdfrwt>
<totfact> 0.17210850E+02</totfact>
</mgrwt>
</event>
<event>
 4    2  0.2930016E-007  0.8409882E+03  0.7818608E-02  0.9628320E-01
         -2   -1    0    0    0  501 -0.00000000000E+00  0.00000000000E+00  0.53470691142E+03  0.53470691142E+03  0.25500000000E-02 0.  1.
          2   -1    0    0  501    0  0.00000000000E+00 -0.00000000000E+00 -0.37914680484E+04  0.37914680484E+04  0.25500000000E-02 0. -1.
    8880023    1    1    2    0    0  0.52234169884E+03 -0.24699138403E+02 -0.35902159574E+04  0.36873990460E+04  0.65864270000E+03 0.  0.
    8880022    1    1    2    0    0 -0.52234169884E+03  0.24699138403E+02  0.33345482040E+03  0.63877591380E+03  0.15294330000E+03 0.  0.
<mgrwt>
<rscale>  0 0.75449816E+03</rscale>
<asrwt>0</asrwt>
<pdfrwt beam="1">  1        2 0.58330276E+00 0.84098817E+03</pdfrwt>
<pdfrwt beam="2">  1       -2 0.82262604E-01 0.84098817E+03</pdfrwt>
<totfact> 0.69816396E-01</totfact>
</mgrwt>
</event>
<event>
 4    2  0.2930016E-007  0.6650130E+03  0.7818608E-02  0.1019523E+00
         -2   -1    0    0    0  501 -0.00000000000E+00  0.00000000000E+00  0.87888159489E+02  0.87888159526E+02  0.25500000000E-02 0.  1.
          2   -1    0    0  501    0  0.00000000000E+00 -0.00000000000E+00 -0.20254660165E+04  0.20254660165E+04  0.25500000000E-02 0. -1.
    8880023    1    1    2    0    0 -0.36901770739E+01 -0.91752194785E+02 -0.15547441243E+04  0.16909972149E+04  0.65864270000E+03 0. -1.
    8880022    1    1    2    0    0  0.36901770739E+01  0.91752194785E+02 -0.38283373270E+03  0.42235696107E+03  0.15294330000E+03 0.  1.
<mgrwt>
<rscale>  0 0.47859317E+03</rscale>
<asrwt>0</asrwt>
<pdfrwt beam="1">  1        2 0.31161012E+00 0.66501300E+03</pdfrwt>
<pdfrwt beam="2">  1       -2 0.13521257E-01 0.66501300E+03</pdfrwt>
<totfact> 0.27841857E+02</totfact>
</mgrwt>
</event>
<event>
 4    2  0.2930016E-007  0.1030869E+04  0.7818608E-02  0.9342241E-01
          2   -1    0    0  501    0  0.00000000000E+00  0.00000000000E+00  0.28290937922E+04  0.28290937922E+04  0.25500000000E-02 0. -1.
         -2   -1    0    0    0  501 -0.00000000000E+00 -0.00000000000E+00 -0.30033264750E+03  0.30033264752E+03  0.25500000000E-02 0.  1.
    8880023    1    1    2    0    0 -0.77833142405E+03  0.15192517856E+03  0.15319144396E+04  0.18464704498E+04  0.65864270000E+03 0.  0.
    8880022    1    1    2    0    0  0.77833142405E+03 -0.15192517856E+03  0.99684670510E+03  0.12829559899E+04  0.15294330000E+03 0.  0.
<mgrwt>
<rscale>  0 0.96985391E+03</rscale>
<asrwt>0</asrwt>
<pdfrwt beam="1">  1        2 0.43524518E+00 0.10308692E+04</pdfrwt>
<pdfrwt beam="2">  1       -2 0.46205025E-01 0.10308692E+04</pdfrwt>
<totfact> 0.10009280E+01</totfact>
</mgrwt>
</event>
<event>
 4    2  0.2930016E-007  0.8717030E+03  0.7818608E-02  0.9573076E-01
          2   -1    0    0  501    0  0.00000000000E+00  0.00000000000E+00  0.36189798687E+04  0.36189798687E+04  0.25500000000E-02 0. -1.
         -2   -1    0    0    0  501 -0.00000000000E+00 -0.00000000000E+00 -0.53896967977E+03  0.53896967977E+03  0.25500000000E-02 0.  1.
    8880023    1    1    2    0    0 -0.17852790125E+03  0.54238700789E+03  0.33831270068E+04  0.34936248265E+04  0.65864270000E+03 0.  0.
    8880022    1    1    2    0    0  0.17852790125E+03 -0.54238700789E+03 -0.30311681792E+03  0.66432472194E+03  0.15294330000E+03 0.  0.
<mgrwt>
<rscale>  0 0.79104128E+03</rscale>
<asrwt>0</asrwt>
<pdfrwt beam="1">  1        2 0.55676611E+00 0.87170298E+03</pdfrwt>
<pdfrwt beam="2">  1       -2 0.82918416E-01 0.87170298E+03</pdfrwt>
<totfact> 0.90781247E-01</totfact>
</mgrwt>
</event>
<event>
 4    2  0.2930016E-007  0.6827980E+03  0.7818608E-02  0.1007783E+00
         -2   -1    0    0    0  501 -0.00000000000E+00  0.00000000000E+00  0.62797739449E+03  0.62797739449E+03  0.25500000000E-02 0.  1.
          2   -1    0    0  501    0  0.00000000000E+00 -0.00000000000E+00 -0.40830151017E+04  0.40830151017E+04  0.25500000000E-02 0. -1.
    8880023    1    1    2    0    0  0.17536679501E+03 -0.40612027412E+02 -0.40310294434E+04  0.40884485357E+04  0.65864270000E+03 0. -1.
    8880022    1    1    2    0    0 -0.17536679501E+03  0.40612027412E+02  0.57599173617E+03  0.62254396047E+03  0.15294330000E+03 0.  0.
<mgrwt>
<rscale>  0 0.52365239E+03</rscale>
<asrwt>0</asrwt>
<pdfrwt beam="1">  1        2 0.62815615E+00 0.68279796E+03</pdfrwt>
<pdfrwt beam="2">  1       -2 0.96611909E-01 0.68279796E+03</pdfrwt>
<totfact> 0.29894888E-01</totfact>
</mgrwt>
</event>
<event>
 4    2  0.2930016E-007  0.6733817E+03  0.7818608E-02  0.1013346E+00
         -2   -1    0    0    0  501 -0.00000000000E+00  0.00000000000E+00  0.12020906322E+03  0.12020906325E+03  0.25500000000E-02 0.  1.
          2   -1    0    0  501    0  0.00000000000E+00 -0.00000000000E+00 -0.39378976701E+04  0.39378976701E+04  0.25500000000E-02 0. -1.
    8880023    1    1    2    0    0  0.13476521106E+03  0.38354802923E+02 -0.37893975561E+04  0.38487630217E+04  0.65864270000E+03 0.  0.
    8880022    1    1    2    0    0 -0.13476521106E+03 -0.38354802923E+02 -0.28291050771E+02  0.20934371160E+03  0.15294330000E+03 0.  0.
<mgrwt>
<rscale>  0 0.50166102E+03</rscale>
<asrwt>0</asrwt>
<pdfrwt beam="1">  1        2 0.60583031E+00 0.67338173E+03</pdfrwt>
<pdfrwt beam="2">  1       -2 0.18493705E-01 0.67338173E+03</pdfrwt>
<totfact> 0.10481887E+01</totfact>
</mgrwt>
</event>
<event>
 4    2  0.2930016E-007  0.7417037E+03  0.7818608E-02  0.9855012E-01
         -2   -1    0    0    0  501 -0.00000000000E+00  0.00000000000E+00  0.28179230827E+03  0.28179230828E+03  0.25500000000E-02 0.  1.
          2   -1    0    0  501    0  0.00000000000E+00 -0.00000000000E+00 -0.12189203490E+04  0.12189203490E+04  0.25500000000E-02 0. -1.
    8880023    1    1    2    0    0 -0.34090885520E+03 -0.97666848937E+01 -0.82737667847E+03  0.11111600290E+04  0.65864270000E+03 0. -1.
    8880022    1    1    2    0    0  0.34090885520E+03  0.97666848937E+01 -0.10975136228E+03  0.38955262831E+03  0.15294330000E+03 0.  0.
<mgrwt>
<rscale>  0 0.62492039E+03</rscale>
<asrwt>0</asrwt>
<pdfrwt beam="1">  1        2 0.18752621E+00 0.74170374E+03</pdfrwt>
<pdfrwt beam="2">  1       -2 0.43352663E-01 0.74170374E+03</pdfrwt>
<totfact> 0.94619564E+01</totfact>
</mgrwt>
</event>
<event>
 4    2  0.3033406E-007  0.7062159E+03  0.7818608E-02  0.9972331E-01
         -2   -1    0    0    0  501 -0.00000000000E+00  0.00000000000E+00  0.17556018223E+04  0.17556018223E+04  0.25500000000E-02 0.  1.
          2   -1    0    0  501    0  0.00000000000E+00 -0.00000000000E+00 -0.11084091983E+04  0.11084091983E+04  0.25500000000E-02 0. -1.
    8880023    1    1    2    0    0  0.20812417309E+03  0.14702026833E+03 -0.98108765201E+03  0.12088315920E+04  0.65864270000E+03 0. -1.
    8880022    1    1    2    0    0 -0.20812417309E+03 -0.14702026833E+03  0.16282802760E+04  0.16551794286E+04  0.15294330000E+03 0.  0.
<mgrwt>
<rscale>  0 0.56880301E+03</rscale>
<asrwt>0</asrwt>
<pdfrwt beam="1">  1        2 0.17052449E+00 0.70621586E+03</pdfrwt>
<pdfrwt beam="2">  1       -2 0.27009259E+00 0.70621586E+03</pdfrwt>
<totfact> 0.10932269E+00</totfact>
</mgrwt>
</event>
<event>
 4    2  0.2930016E-007  0.7080834E+03  0.7818608E-02  0.9965188E-01
         -2   -1    0    0    0  501 -0.00000000000E+00  0.00000000000E+00  0.23786534662E+03  0.23786534664E+03  0.25500000000E-02 0.  1.
          2   -1    0    0  501    0  0.00000000000E+00 -0.00000000000E+00 -0.14387130023E+04  0.14387130023E+04  0.25500000000E-02 0. -1.
    8880023    1    1    2    0    0  0.25211841923E+03 -0.63310851710E+02 -0.11775894093E+04  0.13740811419E+04  0.65864270000E+03 0. -1.
    8880022    1    1    2    0    0 -0.25211841923E+03  0.63310851710E+02 -0.23258246388E+02  0.30249720710E+03  0.15294330000E+03 0.  0.
<mgrwt>
<rscale>  0 0.57203394E+03</rscale>
<asrwt>0</asrwt>
<pdfrwt beam="1">  1        2 0.22134046E+00 0.70808345E+03</pdfrwt>
<pdfrwt beam="2">  1       -2 0.36594670E-01 0.70808345E+03</pdfrwt>
<totfact> 0.98780436E+01</totfact>
</mgrwt>
</event>
<event>
 4    2  0.2930016E-007  0.7034597E+03  0.7818608E-02  0.9983141E-01
          2   -1    0    0  501    0  0.00000000000E+00  0.00000000000E+00  0.14774048372E+04  0.14774048372E+04  0.25500000000E-02 0. -1.
         -2   -1    0    0    0  501 -0.00000000000E+00 -0.00000000000E+00 -0.69503342299E+03  0.69503342299E+03  0.25500000000E-02 0.  1.
    8880023    1    1    2    0    0 -0.19172280224E+03 -0.15584492609E+03  0.13570108250E+04  0.15285070688E+04  0.65864270000E+03 0. -1.
    8880022    1    1    2    0    0  0.19172280224E+03  0.15584492609E+03 -0.57463941076E+03  0.64393119143E+03  0.15294330000E+03 0.  0.
<mgrwt>
<rscale>  0 0.56395694E+03</rscale>
<asrwt>0</asrwt>
<pdfrwt beam="1">  1        2 0.22729305E+00 0.70345965E+03</pdfrwt>
<pdfrwt beam="2">  1       -2 0.10692822E+00 0.70345965E+03</pdfrwt>
<totfact> 0.94837910E+00</totfact>
</mgrwt>
</event>
<event>
 4    2  0.2930016E-007  0.8158595E+03  0.7818608E-02  0.9677499E-01
         -2   -1    0    0    0  501 -0.00000000000E+00  0.00000000000E+00  0.34827772797E+03  0.34827772798E+03  0.25500000000E-02 0.  1.
          2   -1    0    0  501    0  0.00000000000E+00 -0.00000000000E+00 -0.18251102537E+04  0.18251102537E+04  0.25500000000E-02 0. -1.
    8880023    1    1    2    0    0 -0.53944329090E+02  0.47844175935E+03 -0.14545255720E+04  0.16677144101E+04  0.65864270000E+03 0.  0.
    8880022    1    1    2    0    0  0.53944329090E+02 -0.47844175935E+03 -0.22306953637E+02  0.50567357151E+03  0.15294330000E+03 0.  0.
<mgrwt>
<rscale>  0 0.72372462E+03</rscale>
<asrwt>0</asrwt>
<pdfrwt beam="1">  1        2 0.28078619E+00 0.81585949E+03</pdfrwt>
<pdfrwt beam="2">  1       -2 0.53581190E-01 0.81585949E+03</pdfrwt>
<totfact> 0.28008540E+01</totfact>
</mgrwt>
</event>
<event>
 4    2  0.2930016E-007  0.7454459E+03  0.7818608E-02  0.9844358E-01
         -2   -1    0    0    0  501 -0.00000000000E+00  0.00000000000E+00  0.34408494444E+03  0.34408494445E+03  0.25500000000E-02 0.  1.
          2   -1    0    0  501    0  0.00000000000E+00 -0.00000000000E+00 -0.21636200754E+04  0.21636200754E+04  0.25500000000E-02 0. -1.
    8880023    1    1    2    0    0  0.76532825990E+02 -0.34062014189E+03 -0.19635268463E+04  0.21002683726E+04  0.65864270000E+03 0.  0.
    8880022    1    1    2    0    0 -0.76532825990E+02  0.34062014189E+03  0.14399171526E+03  0.40743664734E+03  0.15294330000E+03 0.  0.
<mgrwt>
<rscale>  0 0.63035392E+03</rscale>
<asrwt>0</asrwt>
<pdfrwt beam="1">  1        2 0.33286462E+00 0.74544588E+03</pdfrwt>
<pdfrwt beam="2">  1       -2 0.52936147E-01 0.74544588E+03</pdfrwt>
<totfact> 0.18920293E+01</totfact>
</mgrwt>
</event>
<event>
 4    2  0.2930016E-007  0.9713424E+03  0.7818608E-02  0.9420050E-01
          2   -1    0    0  501    0  0.00000000000E+00  0.00000000000E+00  0.19674009389E+04  0.19674009389E+04  0.25500000000E-02 0. -1.
         -2   -1    0    0    0  501 -0.00000000000E+00 -0.00000000000E+00 -0.52783639786E+03  0.52783639786E+03  0.25500000000E-02 0.  1.
    8880023    1    1    2    0    0 -0.67655609817E+03  0.22796443504E+03  0.10890443768E+03  0.97742842215E+03  0.65864270000E+03 0.  1.
    8880022    1    1    2    0    0  0.67655609817E+03 -0.22796443504E+03  0.13306601034E+04  0.15178089146E+04  0.15294330000E+03 0.  0.
<mgrwt>
<rscale>  0 0.90443862E+03</rscale>
<asrwt>0</asrwt>
<pdfrwt beam="1">  1        2 0.30267707E+00 0.97134244E+03</pdfrwt>
<pdfrwt beam="2">  1       -2 0.81205598E-01 0.97134244E+03</pdfrwt>
<totfact> 0.93556274E+00</totfact>
</mgrwt>
</event>
