<event>
 4    1  0.5124795E-001  0.8765047E+02  0.7546771E-02  0.1308643E+00
         -2   -1    0    0    0  501 -0.00000000000E+00  0.00000000000E+00  0.36798021957E+03  0.36798021957E+03  0.00000000000E+00 0.  1.
          2   -1    0    0  501    0  0.00000000000E+00 -0.00000000000E+00 -0.22980447630E+02  0.22980447630E+02  0.00000000000E+00 0. -1.
         24    1    1    2    0    0  0.21298138659E+02  0.27600335495E+02  0.11336952711E+03  0.14330127306E+03  0.80419002446E+02 0.  0.
        -24    1    1    2    0    0 -0.21298138659E+02 -0.27600335495E+02  0.23163024483E+03  0.24765939414E+03  0.80419002446E+02 0. -1.
<mgrwt>
<rscale>  0 0.87650472E+02</rscale>
<asrwt>0</asrwt>
<pdfrwt beam="1">  1        2 0.35354538E-02 0.87650472E+02</pdfrwt>
<pdfrwt beam="2">  1       -2 0.56612337E-01 0.87650472E+02</pdfrwt>
<totfact> 0.67491699E+03</totfact>
</mgrwt>
</event>
<event>
 4    1  0.5124795E-001  0.1794305E+03  0.7546771E-02  0.1168355E+00
          2   -1    0    0  501    0  0.00000000000E+00  0.00000000000E+00  0.17146063343E+03  0.17146063343E+03  0.00000000000E+00 0. -1.
         -2   -1    0    0    0  501 -0.00000000000E+00 -0.00000000000E+00 -0.20192760890E+03  0.20192760890E+03  0.00000000000E+00 0.  1.
         24    1    1    2    0    0  0.14358449047E+03  0.71495365890E+02  0.34199251902E+02  0.18266060887E+03  0.80419002446E+02 0. -1.
        -24    1    1    2    0    0 -0.14358449047E+03 -0.71495365890E+02 -0.64666227373E+02  0.19072763346E+03  0.80419002446E+02 0.  1.
<mgrwt>
<rscale>  0 0.17943051E+03</rscale>
<asrwt>0</asrwt>
<pdfrwt beam="1">  1        2 0.26378559E-01 0.17943051E+03</pdfrwt>
<pdfrwt beam="2">  1       -2 0.31065786E-01 0.17943051E+03</pdfrwt>
<totfact> 0.19113408E+03</totfact>
</mgrwt>
</event>
<event>
 4    1  0.5124795E-001  0.8472726E+02  0.7546771E-02  0.1316147E+00
         -2   -1    0    0    0  501 -0.00000000000E+00  0.00000000000E+00  0.32866848724E+01  0.32866848724E+01  0.00000000000E+00 0.  1.
          2   -1    0    0  501    0  0.00000000000E+00 -0.00000000000E+00 -0.21841927628E+04  0.21841927628E+04  0.00000000000E+00 0. -1.
         24    1    1    2    0    0 -0.16338314826E+02  0.21084331801E+02 -0.10876313711E+04  0.10909265351E+04  0.80419002446E+02 0.  1.
        -24    1    1    2    0    0  0.16338314826E+02 -0.21084331801E+02 -0.10932747067E+04  0.10965529125E+04  0.80419002446E+02 0. -1.
<mgrwt>
<rscale>  0 0.84727253E+02</rscale>
<asrwt>0</asrwt>
<pdfrwt beam="1">  1        2 0.33603068E+00 0.84727263E+02</pdfrwt>
<pdfrwt beam="2">  1       -2 0.50564229E-03 0.84727263E+02</pdfrwt>
<totfact> 0.31828138E+04</totfact>
</mgrwt>
</event>
<event>
 4    1  0.5124795E-001  0.8289158E+02  0.7546771E-02  0.1321040E+00
          2   -1    0    0  501    0  0.00000000000E+00  0.00000000000E+00  0.22496758960E+03  0.22496758960E+03  0.00000000000E+00 0. -1.
         -2   -1    0    0    0  501 -0.00000000000E+00 -0.00000000000E+00 -0.73509829577E+02  0.73509829577E+02  0.00000000000E+00 0.  1.
         24    1    1    2    0    0  0.38387557838E+01 -0.19724640756E+02  0.18982720993E+03  0.20713614625E+03  0.80419002446E+02 0. -1.
        -24    1    1    2    0    0 -0.38387557838E+01  0.19724640756E+02 -0.38369449909E+02  0.91341272926E+02  0.80419002446E+02 0.  1.
<mgrwt>
<rscale>  0 0.82891576E+02</rscale>
<asrwt>0</asrwt>
<pdfrwt beam="1">  1        2 0.34610398E-01 0.82891576E+02</pdfrwt>
<pdfrwt beam="2">  1       -2 0.11309205E-01 0.82891576E+02</pdfrwt>
<totfact> 0.74438611E+03</totfact>
</mgrwt>
</event>
<event>
 4    1  0.5124795E-001  0.8275548E+02  0.7546771E-02  0.1321409E+00
          1   -1    0    0  501    0  0.00000000000E+00  0.00000000000E+00  0.15349203484E+03  0.15349203484E+03  0.00000000000E+00 0. -1.
         -1   -1    0    0    0  501 -0.00000000000E+00 -0.00000000000E+00 -0.69180372211E+02  0.69180372211E+02  0.00000000000E+00 0.  1.
         24    1    1    2    0    0 -0.88397292379E+01  0.17410135792E+02 -0.24185213137E+02  0.86217133623E+02  0.80419002446E+02 0.  1.
        -24    1    1    2    0    0  0.88397292379E+01 -0.17410135792E+02  0.10849687577E+03  0.13645527343E+03  0.80419002446E+02 0. -1.
<mgrwt>
<rscale>  0 0.82755481E+02</rscale>
<asrwt>0</asrwt>
<pdfrwt beam="1">  1        1 0.23614159E-01 0.82755481E+02</pdfrwt>
<pdfrwt beam="2">  1       -1 0.10643134E-01 0.82755481E+02</pdfrwt>
<totfact> 0.10244714E+04</totfact>
</mgrwt>
</event>
<event>
 4    1  0.5124795E-001  0.8212562E+02  0.7546771E-02  0.1323125E+00
          1   -1    0    0  501    0  0.00000000000E+00  0.00000000000E+00  0.39078248369E+03  0.39078248369E+03  0.00000000000E+00 0. -1.
         -1   -1    0    0    0  501 -0.00000000000E+00 -0.00000000000E+00 -0.20413108270E+02  0.20413108270E+02  0.00000000000E+00 0.  1.
         24    1    1    2    0    0  0.94228976645E+00 -0.16628698051E+02  0.10437115139E+03  0.13280796175E+03  0.80419002446E+02 0.  0.
        -24    1    1    2    0    0 -0.94228976645E+00  0.16628698051E+02  0.26599822403E+03  0.27838763020E+03  0.80419002446E+02 0.  0.
<mgrwt>
<rscale>  0 0.82125620E+02</rscale>
<asrwt>0</asrwt>
<pdfrwt beam="1">  1        1 0.60120377E-01 0.82125620E+02</pdfrwt>
<pdfrwt beam="2">  1       -1 0.31404785E-02 0.82125620E+02</pdfrwt>
<totfact> 0.19621549E+04</totfact>
</mgrwt>
</event>
<event>
 4    1  0.5124795E-001  0.8599918E+02  0.7546771E-02  0.1312840E+00
          1   -1    0    0  501    0  0.00000000000E+00  0.00000000000E+00  0.18544994457E+04  0.18544994457E+04  0.00000000000E+00 0. -1.
         -1   -1    0    0    0  501 -0.00000000000E+00 -0.00000000000E+00 -0.13312722787E+02  0.13312722787E+02  0.00000000000E+00 0.  1.
         24    1    1    2    0    0 -0.43439231415E+01 -0.30162459126E+02  0.13899026469E+03  0.16344464886E+03  0.80419002446E+02 0.  1.
        -24    1    1    2    0    0  0.43439231415E+01  0.30162459126E+02  0.17021964582E+04  0.17043675196E+04  0.80419002446E+02 0. -1.
<mgrwt>
<rscale>  0 0.85999184E+02</rscale>
<asrwt>0</asrwt>
<pdfrwt beam="1">  1        1 0.28530740E+00 0.85999184E+02</pdfrwt>
<pdfrwt beam="2">  1       -1 0.20481127E-02 0.85999184E+02</pdfrwt>
<totfact> 0.27505141E+03</totfact>
</mgrwt>
</event>
<event>
 4    1  0.5124795E-001  0.1087920E+03  0.7546771E-02  0.1262823E+00
         -1   -1    0    0    0  501 -0.00000000000E+00  0.00000000000E+00  0.19394283267E+02  0.19394283267E+02  0.00000000000E+00 0.  1.
          1   -1    0    0  501    0  0.00000000000E+00 -0.00000000000E+00 -0.11695374782E+04  0.11695374782E+04  0.00000000000E+00 0. -1.
         24    1    1    2    0    0  0.29656045702E+01  0.73209953322E+02 -0.16398769599E+03  0.19679347668E+03  0.80419002446E+02 0.  1.
        -24    1    1    2    0    0 -0.29656045702E+01 -0.73209953322E+02 -0.98615549890E+03  0.99213828474E+03  0.80419002446E+02 0. -1.
<mgrwt>
<rscale>  0 0.10879204E+03</rscale>
<asrwt>0</asrwt>
<pdfrwt beam="1">  1        1 0.17992885E+00 0.10879204E+03</pdfrwt>
<pdfrwt beam="2">  1       -1 0.29837358E-02 0.10879204E+03</pdfrwt>
<totfact> 0.44522257E+03</totfact>
</mgrwt>
</event>
<event>
 4    1  0.5124795E-001  0.8267434E+02  0.7546771E-02  0.1321629E+00
          2   -1    0    0  501    0  0.00000000000E+00  0.00000000000E+00  0.58883185330E+02  0.58883185330E+02  0.00000000000E+00 0. -1.
         -2   -1    0    0    0  501 -0.00000000000E+00 -0.00000000000E+00 -0.53848843661E+03  0.53848843661E+03  0.00000000000E+00 0.  1.
         24    1    1    2    0    0  0.15615434270E+02  0.11135000746E+02  0.24738799983E+02  0.86296316306E+02  0.80419002446E+02 0. -1.
        -24    1    1    2    0    0 -0.15615434270E+02 -0.11135000746E+02 -0.50434405127E+03  0.51107530564E+03  0.80419002446E+02 0.  1.
<mgrwt>
<rscale>  0 0.82674337E+02</rscale>
<asrwt>0</asrwt>
<pdfrwt beam="1">  1        2 0.90589512E-02 0.82674337E+02</pdfrwt>
<pdfrwt beam="2">  1       -2 0.82844379E-01 0.82674337E+02</pdfrwt>
<totfact> 0.91312949E+02</totfact>
</mgrwt>
</event>
<event>
 4    1  0.5124795E-001  0.8209307E+02  0.7546771E-02  0.1323214E+00
         -2   -1    0    0    0  501 -0.00000000000E+00  0.00000000000E+00  0.74825749906E+02  0.74825749906E+02  0.00000000000E+00 0.  1.
          2   -1    0    0  501    0  0.00000000000E+00 -0.00000000000E+00 -0.90993079312E+02  0.90993079312E+02  0.00000000000E+00 0. -1.
         24    1    1    2    0    0 -0.11794758479E+02 -0.11529932483E+02 -0.16451423788E+02  0.83725270795E+02  0.80419002446E+02 0. -1.
        -24    1    1    2    0    0  0.11794758479E+02  0.11529932483E+02  0.28409438197E+00  0.82093558423E+02  0.80419002446E+02 0. -1.
<mgrwt>
<rscale>  0 0.82093067E+02</rscale>
<asrwt>0</asrwt>
<pdfrwt beam="1">  1        2 0.13998935E-01 0.82093067E+02</pdfrwt>
<pdfrwt beam="2">  1       -2 0.11511654E-01 0.82093067E+02</pdfrwt>
<totfact> 0.19634337E+04</totfact>
</mgrwt>
</event>
<event>
 4    1  0.5124795E-001  0.8310693E+02  0.7546771E-02  0.1320459E+00
          1   -1    0    0  501    0  0.00000000000E+00  0.00000000000E+00  0.97928985566E+02  0.97928985566E+02  0.00000000000E+00 0. -1.
         -1   -1    0    0    0  501 -0.00000000000E+00 -0.00000000000E+00 -0.70606057014E+02  0.70606057014E+02  0.00000000000E+00 0.  1.
         24    1    1    2    0    0  0.12225058368E+02  0.17032040232E+02  0.16459115076E+02  0.84721076894E+02  0.80419002446E+02 0. -1.
        -24    1    1    2    0    0 -0.12225058368E+02 -0.17032040232E+02  0.10863813476E+02  0.83813965687E+02  0.80419002446E+02 0.  0.
<mgrwt>
<rscale>  0 0.83106920E+02</rscale>
<asrwt>0</asrwt>
<pdfrwt beam="1">  1        1 0.15065998E-01 0.83106930E+02</pdfrwt>
<pdfrwt beam="2">  1       -1 0.10862470E-01 0.83106930E+02</pdfrwt>
<totfact> 0.17480617E+04</totfact>
</mgrwt>
</event>
<event>
 4    1  0.5124795E-001  0.8221840E+02  0.7546771E-02  0.1322871E+00
          2   -1    0    0  501    0  0.00000000000E+00  0.00000000000E+00  0.10559130798E+04  0.10559130798E+04  0.00000000000E+00 0. -1.
         -2   -1    0    0    0  501 -0.00000000000E+00 -0.00000000000E+00 -0.70991393065E+01  0.70991393065E+01  0.00000000000E+00 0.  1.
         24    1    1    2    0    0 -0.14070568960E+02 -0.97297834162E+01  0.69097503508E+03  0.69584938360E+03  0.80419002446E+02 0.  1.
        -24    1    1    2    0    0  0.14070568960E+02  0.97297834162E+01  0.35783890540E+03  0.36716283549E+03  0.80419002446E+02 0.  1.
<mgrwt>
<rscale>  0 0.82218402E+02</rscale>
<asrwt>0</asrwt>
<pdfrwt beam="1">  1        2 0.16244804E+00 0.82218402E+02</pdfrwt>
<pdfrwt beam="2">  1       -2 0.10921761E-02 0.82218402E+02</pdfrwt>
<totfact> 0.40867149E+04</totfact>
</mgrwt>
</event>
<event>
 4    1  0.5124795E-001  0.8046886E+02  0.7546771E-02  0.1327726E+00
          2   -1    0    0  501    0  0.00000000000E+00  0.00000000000E+00  0.21123717919E+03  0.21123717919E+03  0.00000000000E+00 0. -1.
         -2   -1    0    0    0  501 -0.00000000000E+00 -0.00000000000E+00 -0.41805524870E+02  0.41805524870E+02  0.00000000000E+00 0.  1.
         24    1    1    2    0    0 -0.19392980190E+01  0.20639381257E+01  0.15006147638E+03  0.17027531637E+03  0.80419002446E+02 0. -1.
        -24    1    1    2    0    0  0.19392980190E+01 -0.20639381257E+01  0.19370177942E+02  0.82767387691E+02  0.80419002446E+02 0.  0.
<mgrwt>
<rscale>  0 0.80468855E+02</rscale>
<asrwt>0</asrwt>
<pdfrwt beam="1">  1        2 0.32498027E-01 0.80468855E+02</pdfrwt>
<pdfrwt beam="2">  1       -2 0.64316194E-02 0.80468855E+02</pdfrwt>
<totfact> 0.18837691E+04</totfact>
</mgrwt>
</event>
<event>
 4    1  0.5124795E-001  0.1084976E+03  0.7546771E-02  0.1263378E+00
         -2   -1    0    0    0  501 -0.00000000000E+00  0.00000000000E+00  0.18429863454E+03  0.18429863454E+03  0.00000000000E+00 0.  1.
          2   -1    0    0  501    0  0.00000000000E+00 -0.00000000000E+00 -0.63875241483E+02  0.63875241483E+02  0.00000000000E+00 0. -1.
         24    1    1    2    0    0  0.27300475462E+02 -0.67521709218E+02  0.60941006512E+02  0.12444082692E+03  0.80419002446E+02 0.  1.
        -24    1    1    2    0    0 -0.27300475462E+02  0.67521709218E+02  0.59482386544E+02  0.12373304910E+03  0.80419002446E+02 0. -1.
<mgrwt>
<rscale>  0 0.10849754E+03</rscale>
<asrwt>0</asrwt>
<pdfrwt beam="1">  1        2 0.98269603E-02 0.10849755E+03</pdfrwt>
<pdfrwt beam="2">  1       -2 0.28353636E-01 0.10849755E+03</pdfrwt>
<totfact> 0.68893548E+03</totfact>
</mgrwt>
</event>
<event>
 4    1  0.5124795E-001  0.8324323E+02  0.7546771E-02  0.1320092E+00
         -3   -1    0    0    0  501 -0.00000000000E+00  0.00000000000E+00  0.75472533521E+02  0.75472533521E+02  0.00000000000E+00 0.  1.
          3   -1    0    0  501    0  0.00000000000E+00 -0.00000000000E+00 -0.99811821901E+02  0.99811821901E+02  0.00000000000E+00 0. -1.
         24    1    1    2    0    0  0.64548858012E+01 -0.20507397976E+02  0.12639292271E+02  0.84197307474E+02  0.80419002446E+02 0.  0.
        -24    1    1    2    0    0 -0.64548858012E+01  0.20507397976E+02 -0.36978580650E+02  0.91087047947E+02  0.80419002446E+02 0.  0.
<mgrwt>
<rscale>  0 0.83243227E+02</rscale>
<asrwt>0</asrwt>
<pdfrwt beam="1">  1        3 0.15355665E-01 0.83243227E+02</pdfrwt>
<pdfrwt beam="2">  1       -3 0.11611159E-01 0.83243227E+02</pdfrwt>
<totfact> 0.42066933E+03</totfact>
</mgrwt>
</event>
<event>
 4    1  0.5124795E-001  0.8240998E+02  0.7546771E-02  0.1322348E+00
         -2   -1    0    0    0  501 -0.00000000000E+00  0.00000000000E+00  0.26576396170E+03  0.26576396170E+03  0.00000000000E+00 0.  1.
          2   -1    0    0  501    0  0.00000000000E+00 -0.00000000000E+00 -0.35854055915E+02  0.35854055915E+02  0.00000000000E+00 0. -1.
         24    1    1    2    0    0  0.18004387596E+02  0.17702499472E+00  0.34125034362E+02  0.89195982169E+02  0.80419002446E+02 0. -1.
        -24    1    1    2    0    0 -0.18004387596E+02 -0.17702499472E+00  0.19578487143E+03  0.21242203545E+03  0.80419002446E+02 0.  1.
<mgrwt>
<rscale>  0 0.82409983E+02</rscale>
<asrwt>0</asrwt>
<pdfrwt beam="1">  1        2 0.55160088E-02 0.82409983E+02</pdfrwt>
<pdfrwt beam="2">  1       -2 0.40886762E-01 0.82409983E+02</pdfrwt>
<totfact> 0.70921193E+03</totfact>
</mgrwt>
</event>
<event>
 4    1  0.5124795E-001  0.1438346E+03  0.7546771E-02  0.1208260E+00
         -2   -1    0    0    0  501 -0.00000000000E+00  0.00000000000E+00  0.32845493394E+02  0.32845493394E+02  0.00000000000E+00 0.  1.
          2   -1    0    0  501    0  0.00000000000E+00 -0.00000000000E+00 -0.13511252034E+04  0.13511252034E+04  0.00000000000E+00 0. -1.
         24    1    1    2    0    0 -0.74414611899E+02 -0.93186060473E+02 -0.11647241427E+04  0.11735717792E+04  0.80419002446E+02 0. -1.
        -24    1    1    2    0    0  0.74414611899E+02  0.93186060473E+02 -0.15355556731E+03  0.21039891762E+03  0.80419002446E+02 0.  1.
<mgrwt>
<rscale>  0 0.14383460E+03</rscale>
<asrwt>0</asrwt>
<pdfrwt beam="1">  1        2 0.20786543E+00 0.14383460E+03</pdfrwt>
<pdfrwt beam="2">  1       -2 0.50531525E-02 0.14383460E+03</pdfrwt>
<totfact> 0.31433345E+03</totfact>
</mgrwt>
</event>
<event>
 4    1  0.5124795E-001  0.8447224E+02  0.7546771E-02  0.1316818E+00
          2   -1    0    0  501    0  0.00000000000E+00  0.00000000000E+00  0.27305960752E+03  0.27305960752E+03  0.00000000000E+00 0. -1.
         -2   -1    0    0    0  501 -0.00000000000E+00 -0.00000000000E+00 -0.32314020509E+02  0.32314020509E+02  0.00000000000E+00 0.  1.
         24    1    1    2    0    0  0.12859314145E+02  0.22427251053E+02  0.18715728905E+03  0.20533730871E+03  0.80419002446E+02 0. -1.
        -24    1    1    2    0    0 -0.12859314145E+02 -0.22427251053E+02  0.53588297965E+02  0.10003631932E+03  0.80419002446E+02 0.  1.
<mgrwt>
<rscale>  0 0.84472241E+02</rscale>
<asrwt>0</asrwt>
<pdfrwt beam="1">  1        2 0.42009169E-01 0.84472241E+02</pdfrwt>
<pdfrwt beam="2">  1       -2 0.49713880E-02 0.84472241E+02</pdfrwt>
<totfact> 0.21235814E+04</totfact>
</mgrwt>
</event>
<event>
 4    1  0.5124795E-001  0.8987279E+02  0.7546771E-02  0.1303160E+00
          1   -1    0    0  501    0  0.00000000000E+00  0.00000000000E+00  0.84313507406E+03  0.84313507406E+03  0.00000000000E+00 0. -1.
         -1   -1    0    0    0  501 -0.00000000000E+00 -0.00000000000E+00 -0.96441833037E+01  0.96441833037E+01  0.00000000000E+00 0.  1.
         24    1    1    2    0    0  0.35372454943E+02 -0.18939067737E+02  0.45156816796E+03  0.46042472253E+03  0.80419002446E+02 0.  1.
        -24    1    1    2    0    0 -0.35372454943E+02  0.18939067737E+02  0.38192272280E+03  0.39235453482E+03  0.80419002446E+02 0.  0.
<mgrwt>
<rscale>  0 0.89872781E+02</rscale>
<asrwt>0</asrwt>
<pdfrwt beam="1">  1        1 0.12971303E+00 0.89872793E+02</pdfrwt>
<pdfrwt beam="2">  1       -1 0.14837212E-02 0.89872793E+02</pdfrwt>
<totfact> 0.20616143E+04</totfact>
</mgrwt>
</event>
<event>
 4    1  0.5124795E-001  0.1294648E+03  0.7546771E-02  0.1228252E+00
         -1   -1    0    0    0  501 -0.00000000000E+00  0.00000000000E+00  0.23807703126E+03  0.23807703126E+03  0.00000000000E+00 0.  1.
          1   -1    0    0  501    0  0.00000000000E+00 -0.00000000000E+00 -0.38948506620E+03  0.38948506620E+03  0.00000000000E+00 0. -1.
         24    1    1    2    0    0 -0.76730870387E+02  0.66379993696E+02  0.20830560168E+03  0.24525980038E+03  0.80419002446E+02 0.  1.
        -24    1    1    2    0    0  0.76730870387E+02 -0.66379993696E+02 -0.35971363662E+03  0.38230229709E+03  0.80419002446E+02 0. -1.
<mgrwt>
<rscale>  0 0.12946484E+03</rscale>
<asrwt>0</asrwt>
<pdfrwt beam="1">  1        1 0.59920778E-01 0.12946484E+03</pdfrwt>
<pdfrwt beam="2">  1       -1 0.36627236E-01 0.12946484E+03</pdfrwt>
<totfact> 0.45851374E+02</totfact>
</mgrwt>
</event>
<event>
 4    1  0.5124795E-001  0.2456043E+03  0.7546771E-02  0.1116115E+00
         -2   -1    0    0    0  501 -0.00000000000E+00  0.00000000000E+00  0.54530757851E+02  0.54530757851E+02  0.00000000000E+00 0.  1.
          2   -1    0    0  501    0  0.00000000000E+00 -0.00000000000E+00 -0.11081232080E+04  0.11081232080E+04  0.00000000000E+00 0. -1.
         24    1    1    2    0    0  0.14744831870E+03 -0.17920175660E+03 -0.55106414092E+03  0.60331847280E+03  0.80419002446E+02 0.  1.
        -24    1    1    2    0    0 -0.14744831870E+03  0.17920175660E+03 -0.50252830922E+03  0.55933549304E+03  0.80419002446E+02 0. -1.
<mgrwt>
<rscale>  0 0.24560434E+03</rscale>
<asrwt>0</asrwt>
<pdfrwt beam="1">  1        2 0.17048048E+00 0.24560434E+03</pdfrwt>
<pdfrwt beam="2">  1       -2 0.83893480E-02 0.24560434E+03</pdfrwt>
<totfact> 0.19807974E+03</totfact>
</mgrwt>
</event>
<event>
 4    1  0.5124795E-001  0.8182977E+02  0.7546771E-02  0.1323938E+00
          1   -1    0    0  501    0  0.00000000000E+00  0.00000000000E+00  0.92697304556E+03  0.92697304556E+03  0.00000000000E+00 0. -1.
         -1   -1    0    0    0  501 -0.00000000000E+00 -0.00000000000E+00 -0.72274800280E+01  0.72274800280E+01  0.00000000000E+00 0.  1.
         24    1    1    2    0    0  0.15079883158E+02 -0.12201651216E+01  0.47065755217E+03  0.47771815859E+03  0.80419002446E+02 0. -1.
        -24    1    1    2    0    0 -0.15079883158E+02  0.12201651216E+01  0.44908801336E+03  0.45648236700E+03  0.80419002446E+02 0.  0.
<mgrwt>
<rscale>  0 0.81829758E+02</rscale>
<asrwt>0</asrwt>
<pdfrwt beam="1">  1        1 0.14261114E+00 0.81829768E+02</pdfrwt>
<pdfrwt beam="2">  1       -1 0.11119207E-02 0.81829768E+02</pdfrwt>
<totfact> 0.26516548E+04</totfact>
</mgrwt>
</event>
<event>
 4    1  0.5124795E-001  0.8567310E+02  0.7546771E-02  0.1313682E+00
         -2   -1    0    0    0  501 -0.00000000000E+00  0.00000000000E+00  0.18016351210E+02  0.18016351210E+02  0.00000000000E+00 0.  1.
          2   -1    0    0  501    0  0.00000000000E+00 -0.00000000000E+00 -0.21705002209E+04  0.21705002209E+04  0.00000000000E+00 0. -1.
         24    1    1    2    0    0  0.20942899900E+02  0.20834089333E+02 -0.20624721369E+04  0.20642507589E+04  0.80419002446E+02 0. -1.
        -24    1    1    2    0    0 -0.20942899900E+02 -0.20834089333E+02 -0.90011732874E+02  0.12426581326E+03  0.80419002446E+02 0.  1.
<mgrwt>
<rscale>  0 0.85673101E+02</rscale>
<asrwt>0</asrwt>
<pdfrwt beam="1">  1        2 0.33392281E+00 0.85673101E+02</pdfrwt>
<pdfrwt beam="2">  1       -2 0.27717488E-02 0.85673101E+02</pdfrwt>
<totfact> 0.28926211E+03</totfact>
</mgrwt>
</event>
<event>
 4    1  0.5124795E-001  0.9755722E+02  0.7546771E-02  0.1285518E+00
          1   -1    0    0  501    0  0.00000000000E+00  0.00000000000E+00  0.12310071458E+04  0.12310071458E+04  0.00000000000E+00 0. -1.
         -1   -1    0    0    0  501 -0.00000000000E+00 -0.00000000000E+00 -0.16185096321E+02  0.16185096321E+02  0.00000000000E+00 0.  1.
         24    1    1    2    0    0  0.52253288212E+02  0.17882629259E+02  0.15673023841E+03  0.18461250809E+03  0.80419002446E+02 0.  1.
        -24    1    1    2    0    0 -0.52253288212E+02 -0.17882629259E+02  0.10580918111E+04  0.10625797340E+04  0.80419002446E+02 0. -1.
<mgrwt>
<rscale>  0 0.97557217E+02</rscale>
<asrwt>0</asrwt>
<pdfrwt beam="1">  1        1 0.18938564E+00 0.97557217E+02</pdfrwt>
<pdfrwt beam="2">  1       -1 0.24900158E-02 0.97557217E+02</pdfrwt>
<totfact> 0.52281348E+03</totfact>
</mgrwt>
</event>
<event>
 4    1  0.5124795E-001  0.8435243E+02  0.7546771E-02  0.1317135E+00
          2   -1    0    0  501    0  0.00000000000E+00  0.00000000000E+00  0.18250936876E+04  0.18250936876E+04  0.00000000000E+00 0. -1.
         -2   -1    0    0    0  501 -0.00000000000E+00 -0.00000000000E+00 -0.86087649002E+02  0.86087649002E+02  0.00000000000E+00 0.  1.
         24    1    1    2    0    0  0.82008721371E-01  0.25457983547E+02  0.18032053071E+04  0.18051771967E+04  0.80419002446E+02 0. -1.
        -24    1    1    2    0    0 -0.82008721371E-01 -0.25457983547E+02 -0.64199268541E+02  0.10600413995E+03  0.80419002446E+02 0.  1.
<mgrwt>
<rscale>  0 0.84352425E+02</rscale>
<asrwt>0</asrwt>
<pdfrwt beam="1">  1        2 0.28078362E+00 0.84352425E+02</pdfrwt>
<pdfrwt beam="2">  1       -2 0.13244255E-01 0.84352425E+02</pdfrwt>
<totfact> 0.40920372E+02</totfact>
</mgrwt>
</event>
<event>
 4    1  0.5124795E-001  0.8508473E+02  0.7546771E-02  0.1315211E+00
         -1   -1    0    0    0  501 -0.00000000000E+00  0.00000000000E+00  0.10769119763E+02  0.10769119763E+02  0.00000000000E+00 0.  1.
          1   -1    0    0  501    0  0.00000000000E+00 -0.00000000000E+00 -0.93051391958E+03  0.93051391958E+03  0.00000000000E+00 0. -1.
         24    1    1    2    0    0 -0.10765012143E+01 -0.27767540002E+02 -0.21191858557E+03  0.22836133210E+03  0.80419002446E+02 0. -1.
        -24    1    1    2    0    0  0.10765012143E+01  0.27767540002E+02 -0.70782621425E+03  0.71292170725E+03  0.80419002446E+02 0.  0.
<mgrwt>
<rscale>  0 0.85084729E+02</rscale>
<asrwt>0</asrwt>
<pdfrwt beam="1">  1        1 0.14315601E+00 0.85084729E+02</pdfrwt>
<pdfrwt beam="2">  1       -1 0.16567873E-02 0.85084729E+02</pdfrwt>
<totfact> 0.15053834E+04</totfact>
</mgrwt>
</event>
<event>
 4    1  0.5124795E-001  0.1579349E+03  0.7546771E-02  0.1191048E+00
         -2   -1    0    0    0  501 -0.00000000000E+00  0.00000000000E+00  0.37456614277E+03  0.37456614277E+03  0.00000000000E+00 0.  1.
          2   -1    0    0  501    0  0.00000000000E+00 -0.00000000000E+00 -0.10817307542E+03  0.10817307542E+03  0.00000000000E+00 0. -1.
         24    1    1    2    0    0  0.61259415885E+02  0.12134043666E+03  0.28284295183E+03  0.32394994823E+03  0.80419002446E+02 0.  1.
        -24    1    1    2    0    0 -0.61259415885E+02 -0.12134043666E+03 -0.16449884481E+02  0.15878926997E+03  0.80419002446E+02 0. -1.
<mgrwt>
<rscale>  0 0.15793492E+03</rscale>
<asrwt>0</asrwt>
<pdfrwt beam="1">  1        2 0.16642012E-01 0.15793494E+03</pdfrwt>
<pdfrwt beam="2">  1       -2 0.57625560E-01 0.15793494E+03</pdfrwt>
<totfact> 0.97663715E+02</totfact>
</mgrwt>
</event>
<event>
 4    1  0.5124795E-001  0.8179543E+02  0.7546771E-02  0.1324032E+00
         -1   -1    0    0    0  501 -0.00000000000E+00  0.00000000000E+00  0.76222327074E+03  0.76222327074E+03  0.00000000000E+00 0.  1.
          1   -1    0    0  501    0  0.00000000000E+00 -0.00000000000E+00 -0.26635223990E+02  0.26635223990E+02  0.00000000000E+00 0. -1.
         24    1    1    2    0    0  0.14613747445E+02 -0.31169343003E+01  0.69075700177E+03  0.69558301326E+03  0.80419002446E+02 0.  1.
        -24    1    1    2    0    0 -0.14613747445E+02  0.31169343003E+01  0.44831044978E+02  0.93275481462E+02  0.80419002446E+02 0.  0.
<mgrwt>
<rscale>  0 0.81795433E+02</rscale>
<asrwt>0</asrwt>
<pdfrwt beam="1">  1        1 0.40977273E-02 0.81795433E+02</pdfrwt>
<pdfrwt beam="2">  1       -1 0.11726510E+00 0.81795433E+02</pdfrwt>
<totfact> 0.14634885E+03</totfact>
</mgrwt>
</event>
<event>
 4    1  0.5124795E-001  0.8104760E+02  0.7546771E-02  0.1326105E+00
          2   -1    0    0  501    0  0.00000000000E+00  0.00000000000E+00  0.74305781499E+01  0.74305781499E+01  0.00000000000E+00 0. -1.
         -2   -1    0    0    0  501 -0.00000000000E+00 -0.00000000000E+00 -0.88413974332E+03  0.88413974332E+03  0.00000000000E+00 0.  1.
         24    1    1    2    0    0  0.50509084247E+01 -0.87168379358E+01 -0.44373931918E+03  0.45108014175E+03  0.80419002446E+02 0. -1.
        -24    1    1    2    0    0 -0.50509084247E+01  0.87168379358E+01 -0.43296984599E+03  0.44049017972E+03  0.80419002446E+02 0.  1.
<mgrwt>
<rscale>  0 0.81047594E+02</rscale>
<asrwt>0</asrwt>
<pdfrwt beam="1">  1        2 0.11431667E-02 0.81047604E+02</pdfrwt>
<pdfrwt beam="2">  1       -2 0.13602140E+00 0.81047604E+02</pdfrwt>
<totfact> 0.43549992E+03</totfact>
</mgrwt>
</event>
<event>
 4    1  0.5124795E-001  0.8145676E+02  0.7546771E-02  0.1324967E+00
         -2   -1    0    0    0  501 -0.00000000000E+00  0.00000000000E+00  0.39796915629E+02  0.39796915629E+02  0.00000000000E+00 0.  1.
          2   -1    0    0  501    0  0.00000000000E+00 -0.00000000000E+00 -0.75605107879E+03  0.75605107879E+03  0.00000000000E+00 0. -1.
         24    1    1    2    0    0 -0.77516399808E+01 -0.10387492278E+02 -0.70944621868E+03  0.71410723359E+03  0.80419002446E+02 0. -1.
        -24    1    1    2    0    0  0.77516399808E+01  0.10387492278E+02 -0.68079444836E+01  0.81740760828E+02  0.80419002446E+02 0.  1.
<mgrwt>
<rscale>  0 0.81456761E+02</rscale>
<asrwt>0</asrwt>
<pdfrwt beam="1">  1        2 0.11631554E+00 0.81456761E+02</pdfrwt>
<pdfrwt beam="2">  1       -2 0.61226030E-02 0.81456761E+02</pdfrwt>
<totfact> 0.51655462E+03</totfact>
</mgrwt>
</event>
<event>
 4    1  0.5124795E-001  0.8738085E+02  0.7546771E-02  0.1309321E+00
         -2   -1    0    0    0  501 -0.00000000000E+00  0.00000000000E+00  0.12901243461E+02  0.12901243461E+02  0.00000000000E+00 0.  1.
          2   -1    0    0  501    0  0.00000000000E+00 -0.00000000000E+00 -0.10847057927E+04  0.10847057927E+04  0.00000000000E+00 0. -1.
         24    1    1    2    0    0 -0.30370711900E+02  0.15678421334E+02 -0.16596559442E+03  0.18756328938E+03  0.80419002446E+02 0.  0.
        -24    1    1    2    0    0  0.30370711900E+02 -0.15678421334E+02 -0.90583895481E+03  0.91004374677E+03  0.80419002446E+02 0. -1.
<mgrwt>
<rscale>  0 0.87380838E+02</rscale>
<asrwt>0</asrwt>
<pdfrwt beam="1">  1        2 0.16687783E+00 0.87380849E+02</pdfrwt>
<pdfrwt beam="2">  1       -2 0.19848066E-02 0.87380849E+02</pdfrwt>
<totfact> 0.16914445E+04</totfact>
</mgrwt>
</event>
<event>
 4    1  0.5124795E-001  0.8833557E+02  0.7546771E-02  0.1306933E+00
         -2   -1    0    0    0  501 -0.00000000000E+00  0.00000000000E+00  0.19824077003E+01  0.19824077003E+01  0.00000000000E+00 0.  1.
          2   -1    0    0  501    0  0.00000000000E+00 -0.00000000000E+00 -0.39370315050E+04  0.39370315050E+04  0.00000000000E+00 0. -1.
         24    1    1    2    0    0  0.23629717931E+02  0.27885374779E+02 -0.19959687196E+04  0.19979224968E+04  0.80419002446E+02 0. -1.
        -24    1    1    2    0    0 -0.23629717931E+02 -0.27885374779E+02 -0.19390803777E+04  0.19410914159E+04  0.80419002446E+02 0.  1.
<mgrwt>
<rscale>  0 0.88335574E+02</rscale>
<asrwt>0</asrwt>
<pdfrwt beam="1">  1        2 0.60569703E+00 0.88335574E+02</pdfrwt>
<pdfrwt beam="2">  1       -2 0.30498586E-03 0.88335574E+02</pdfrwt>
<totfact> 0.60118197E+03</totfact>
</mgrwt>
</event>
<event>
 4    1  0.5124795E-001  0.8794642E+02  0.7546771E-02  0.1307902E+00
          1   -1    0    0  501    0  0.00000000000E+00  0.00000000000E+00  0.17481583790E+02  0.17481583790E+02  0.00000000000E+00 0. -1.
         -1   -1    0    0    0  501 -0.00000000000E+00 -0.00000000000E+00 -0.48620785782E+03  0.48620785782E+03  0.00000000000E+00 0.  1.
         24    1    1    2    0    0  0.31953721652E+02 -0.15694490819E+02 -0.30992339624E+03  0.32216002990E+03  0.80419002446E+02 0.  1.
        -24    1    1    2    0    0 -0.31953721652E+02  0.15694490819E+02 -0.15880287779E+03  0.18152941171E+03  0.80419002446E+02 0. -1.
<mgrwt>
<rscale>  0 0.87946423E+02</rscale>
<asrwt>0</asrwt>
<pdfrwt beam="1">  1        1 0.26894743E-02 0.87946423E+02</pdfrwt>
<pdfrwt beam="2">  1       -1 0.74801211E-01 0.87946423E+02</pdfrwt>
<totfact> 0.68066547E+03</totfact>
</mgrwt>
</event>
<event>
 4    1  0.5124795E-001  0.9111265E+02  0.7546771E-02  0.1300179E+00
          1   -1    0    0  501    0  0.00000000000E+00  0.00000000000E+00  0.84239960369E+02  0.84239960369E+02  0.00000000000E+00 0. -1.
         -1   -1    0    0    0  501 -0.00000000000E+00 -0.00000000000E+00 -0.13896070902E+03  0.13896070902E+03  0.00000000000E+00 0.  1.
         24    1    1    2    0    0  0.42828678628E+02 -0.55922814889E-01 -0.87545473587E+02  0.12635554891E+03  0.80419002446E+02 0.  1.
        -24    1    1    2    0    0 -0.42828678628E+02  0.55922814889E-01  0.32824724931E+02  0.96845120484E+02  0.80419002446E+02 0. -1.
<mgrwt>
<rscale>  0 0.91112649E+02</rscale>
<asrwt>0</asrwt>
<pdfrwt beam="1">  1        1 0.12959994E-01 0.91112649E+02</pdfrwt>
<pdfrwt beam="2">  1       -1 0.21378570E-01 0.91112649E+02</pdfrwt>
<totfact> 0.74825401E+03</totfact>
</mgrwt>
</event>
<event>
 4    1  0.5124795E-001  0.8986948E+02  0.7546771E-02  0.1303168E+00
         -1   -1    0    0    0  501 -0.00000000000E+00  0.00000000000E+00  0.23719257003E+02  0.23719257003E+02  0.00000000000E+00 0.  1.
          1   -1    0    0  501    0  0.00000000000E+00 -0.00000000000E+00 -0.11541200416E+04  0.11541200416E+04  0.00000000000E+00 0. -1.
         24    1    1    2    0    0  0.39373649563E+02 -0.76826131681E+01 -0.70730253319E+02  0.11436473020E+03  0.80419002446E+02 0.  1.
        -24    1    1    2    0    0 -0.39373649563E+02  0.76826131681E+01 -0.10596705313E+04  0.10634745684E+04  0.80419002446E+02 0. -1.
<mgrwt>
<rscale>  0 0.89869476E+02</rscale>
<asrwt>0</asrwt>
<pdfrwt beam="1">  1        1 0.17755690E+00 0.89869476E+02</pdfrwt>
<pdfrwt beam="2">  1       -1 0.36491170E-02 0.89869476E+02</pdfrwt>
<totfact> 0.33849665E+03</totfact>
</mgrwt>
</event>
<event>
 4    1  0.5124795E-001  0.8176076E+02  0.7546771E-02  0.1324128E+00
         -1   -1    0    0    0  501 -0.00000000000E+00  0.00000000000E+00  0.28495336164E+01  0.28495336164E+01  0.00000000000E+00 0.  1.
          1   -1    0    0  501    0  0.00000000000E+00 -0.00000000000E+00 -0.27163341908E+04  0.27163341908E+04  0.00000000000E+00 0. -1.
         24    1    1    2    0    0  0.14751360905E+02  0.62915221765E-01 -0.85468700491E+03  0.85858878337E+03  0.80419002446E+02 0.  0.
        -24    1    1    2    0    0 -0.14751360905E+02 -0.62915221765E-01 -0.18587976523E+04  0.18605949410E+04  0.80419002446E+02 0. -1.
<mgrwt>
<rscale>  0 0.81760764E+02</rscale>
<asrwt>0</asrwt>
<pdfrwt beam="1">  1        1 0.41789902E+00 0.81760764E+02</pdfrwt>
<pdfrwt beam="2">  1       -1 0.43838826E-03 0.81760764E+02</pdfrwt>
<totfact> 0.68222226E+03</totfact>
</mgrwt>
</event>
<event>
 4    1  0.5124795E-001  0.1088812E+03  0.7546771E-02  0.1262656E+00
          1   -1    0    0  501    0  0.00000000000E+00  0.00000000000E+00  0.20172149682E+04  0.20172149682E+04  0.00000000000E+00 0. -1.
         -1   -1    0    0    0  501 -0.00000000000E+00 -0.00000000000E+00 -0.63993443316E+01  0.63993443316E+01  0.00000000000E+00 0.  1.
         24    1    1    2    0    0  0.73397344118E+02  0.84517331215E+00  0.12944912973E+04  0.12990622846E+04  0.80419002446E+02 0. -1.
        -24    1    1    2    0    0 -0.73397344118E+02 -0.84517331215E+00  0.71632432657E+03  0.72455202797E+03  0.80419002446E+02 0.  1.
<mgrwt>
<rscale>  0 0.10888114E+03</rscale>
<asrwt>0</asrwt>
<pdfrwt beam="1">  1        1 0.31034026E+00 0.10888116E+03</pdfrwt>
<pdfrwt beam="2">  1       -1 0.98451612E-03 0.10888116E+03</pdfrwt>
<totfact> 0.61913322E+03</totfact>
</mgrwt>
</event>
<event>
 4    1  0.5124795E-001  0.8997505E+02  0.7546771E-02  0.1302912E+00
         -1   -1    0    0    0  501 -0.00000000000E+00  0.00000000000E+00  0.14568739021E+03  0.14568739021E+03  0.00000000000E+00 0.  1.
          1   -1    0    0  501    0  0.00000000000E+00 -0.00000000000E+00 -0.56254191976E+02  0.56254191976E+02  0.00000000000E+00 0. -1.
         24    1    1    2    0    0  0.24357206935E+02  0.32171729487E+02  0.55870934843E+02  0.10591067473E+03  0.80419002446E+02 0.  0.
        -24    1    1    2    0    0 -0.24357206935E+02 -0.32171729487E+02  0.33562263390E+02  0.96030907452E+02  0.80419002446E+02 0.  1.
<mgrwt>
<rscale>  0 0.89975050E+02</rscale>
<asrwt>0</asrwt>
<pdfrwt beam="1">  1        1 0.86544911E-02 0.89975050E+02</pdfrwt>
<pdfrwt beam="2">  1       -1 0.22413444E-01 0.89975050E+02</pdfrwt>
<totfact> 0.11736090E+04</totfact>
</mgrwt>
</event>
<event>
 4    1  0.5124795E-001  0.8616217E+02  0.7546771E-02  0.1312421E+00
          4   -1    0    0  501    0  0.00000000000E+00  0.00000000000E+00  0.76634178312E+03  0.76634178312E+03  0.00000000000E+00 0. -1.
         -4   -1    0    0    0  501 -0.00000000000E+00 -0.00000000000E+00 -0.16353857763E+02  0.16353857763E+02  0.00000000000E+00 0.  1.
         24    1    1    2    0    0  0.15119636128E+02  0.26983331795E+02  0.62485458674E+03  0.63076713145E+03  0.80419002446E+02 0.  0.
        -24    1    1    2    0    0 -0.15119636128E+02 -0.26983331795E+02  0.12513333862E+03  0.15192850944E+03  0.80419002446E+02 0.  1.
<mgrwt>
<rscale>  0 0.86162170E+02</rscale>
<asrwt>0</asrwt>
<pdfrwt beam="1">  1        4 0.11789871E+00 0.86162170E+02</pdfrwt>
<pdfrwt beam="2">  1       -4 0.25159787E-02 0.86162170E+02</pdfrwt>
<totfact> 0.61962372E+02</totfact>
</mgrwt>
</event>
<event>
 4    1  0.5124795E-001  0.9074624E+02  0.7546771E-02  0.1301055E+00
          2   -1    0    0  501    0  0.00000000000E+00  0.00000000000E+00  0.18724057380E+02  0.18724057380E+02  0.00000000000E+00 0. -1.
         -2   -1    0    0    0  501 -0.00000000000E+00 -0.00000000000E+00 -0.63493528238E+03  0.63493528238E+03  0.00000000000E+00 0.  1.
         24    1    1    2    0    0  0.41625455686E+02 -0.59148953653E+01 -0.12692060254E+03  0.15602474115E+03  0.80419002446E+02 0.  0.
        -24    1    1    2    0    0 -0.41625455686E+02  0.59148953653E+01 -0.48929062247E+03  0.49763459862E+03  0.80419002446E+02 0.  0.
<mgrwt>
<rscale>  0 0.90746242E+02</rscale>
<asrwt>0</asrwt>
<pdfrwt beam="1">  1        2 0.28806242E-02 0.90746242E+02</pdfrwt>
<pdfrwt beam="2">  1       -2 0.97682352E-01 0.90746242E+02</pdfrwt>
<totfact> 0.27677075E+03</totfact>
</mgrwt>
</event>
<event>
 4    1  0.5124795E-001  0.8609845E+02  0.7546771E-02  0.1312585E+00
         -2   -1    0    0    0  501 -0.00000000000E+00  0.00000000000E+00  0.90550460280E+01  0.90550460280E+01  0.00000000000E+00 0.  1.
          2   -1    0    0  501    0  0.00000000000E+00 -0.00000000000E+00 -0.11458028364E+04  0.11458028364E+04  0.00000000000E+00 0. -1.
         24    1    1    2    0    0 -0.26760901760E+02 -0.15151960425E+02 -0.87691762513E+03  0.88113419238E+03  0.80419002446E+02 0. -1.
        -24    1    1    2    0    0  0.26760901760E+02  0.15151960425E+02 -0.25983016523E+03  0.27372369004E+03  0.80419002446E+02 0.  1.
<mgrwt>
<rscale>  0 0.86098454E+02</rscale>
<asrwt>0</asrwt>
<pdfrwt beam="1">  1        2 0.17627734E+00 0.86098454E+02</pdfrwt>
<pdfrwt beam="2">  1       -2 0.13930841E-02 0.86098454E+02</pdfrwt>
<totfact> 0.25895090E+04</totfact>
</mgrwt>
</event>
<event>
 4    1  0.5124795E-001  0.8350029E+02  0.7546771E-02  0.1319402E+00
          2   -1    0    0  501    0  0.00000000000E+00  0.00000000000E+00  0.17497781715E+04  0.17497781715E+04  0.00000000000E+00 0. -1.
         -2   -1    0    0    0  501 -0.00000000000E+00 -0.00000000000E+00 -0.40326162644E+01  0.40326162644E+01  0.00000000000E+00 0.  1.
         24    1    1    2    0    0  0.19805584810E+02 -0.10621536875E+02  0.77725862553E+03  0.78173094166E+03  0.80419002446E+02 0.  1.
        -24    1    1    2    0    0 -0.19805584810E+02  0.10621536875E+02  0.96848692971E+03  0.97207984611E+03  0.80419002446E+02 0. -1.
<mgrwt>
<rscale>  0 0.83500275E+02</rscale>
<asrwt>0</asrwt>
<pdfrwt beam="1">  1        2 0.26919604E+00 0.83500285E+02</pdfrwt>
<pdfrwt beam="2">  1       -2 0.62040390E-03 0.83500285E+02</pdfrwt>
<totfact> 0.39413989E+04</totfact>
</mgrwt>
</event>
<event>
 4    1  0.5124795E-001  0.8052420E+02  0.7546771E-02  0.1327570E+00
         -2   -1    0    0    0  501 -0.00000000000E+00  0.00000000000E+00  0.44633589668E+01  0.44633589668E+01  0.00000000000E+00 0.  1.
          2   -1    0    0  501    0  0.00000000000E+00 -0.00000000000E+00 -0.14617945273E+04  0.14617945273E+04  0.00000000000E+00 0. -1.
         24    1    1    2    0    0 -0.22458366883E+01  0.34474004549E+01 -0.67099790646E+03  0.67581235175E+03  0.80419002446E+02 0.  0.
        -24    1    1    2    0    0  0.22458366883E+01 -0.34474004549E+01 -0.78633326190E+03  0.79044553455E+03  0.80419002446E+02 0.  0.
<mgrwt>
<rscale>  0 0.80524195E+02</rscale>
<asrwt>0</asrwt>
<pdfrwt beam="1">  1        2 0.22489152E+00 0.80524205E+02</pdfrwt>
<pdfrwt beam="2">  1       -2 0.68667045E-03 0.80524205E+02</pdfrwt>
<totfact> 0.47580918E+04</totfact>
</mgrwt>
</event>
<event>
 4    1  0.5124795E-001  0.8105492E+02  0.7546771E-02  0.1326084E+00
          2   -1    0    0  501    0  0.00000000000E+00  0.00000000000E+00  0.22416186927E+03  0.22416186927E+03  0.00000000000E+00 0. -1.
         -2   -1    0    0    0  501 -0.00000000000E+00 -0.00000000000E+00 -0.52860909289E+02  0.52860909289E+02  0.00000000000E+00 0.  1.
         24    1    1    2    0    0 -0.56376728329E+01  0.84202922041E+01  0.17810617802E+03  0.19568268007E+03  0.80419002446E+02 0. -1.
        -24    1    1    2    0    0  0.56376728329E+01 -0.84202922041E+01 -0.68052180359E+01  0.81340098492E+02  0.80419002446E+02 0.  0.
<mgrwt>
<rscale>  0 0.81054924E+02</rscale>
<asrwt>0</asrwt>
<pdfrwt beam="1">  1        2 0.34486441E-01 0.81054924E+02</pdfrwt>
<pdfrwt beam="2">  1       -2 0.81324477E-02 0.81054924E+02</pdfrwt>
<totfact> 0.12414844E+04</totfact>
</mgrwt>
</event>
<event>
 4    1  0.5124795E-001  0.8385782E+02  0.7546771E-02  0.1318447E+00
         -4   -1    0    0    0  501 -0.00000000000E+00  0.00000000000E+00  0.66798097287E+03  0.66798097287E+03  0.00000000000E+00 0.  1.
          4   -1    0    0  501    0  0.00000000000E+00 -0.00000000000E+00 -0.24104806465E+02  0.24104806465E+02  0.00000000000E+00 0. -1.
         24    1    1    2    0    0 -0.24157490544E+00  0.23766783720E+02  0.62229823015E+02  0.10442550069E+03  0.80419002446E+02 0. -1.
        -24    1    1    2    0    0  0.24157490544E+00 -0.23766783720E+02  0.58164634339E+03  0.58766027864E+03  0.80419002446E+02 0.  1.
<mgrwt>
<rscale>  0 0.83857822E+02</rscale>
<asrwt>0</asrwt>
<pdfrwt beam="1">  1        4 0.37084323E-02 0.83857822E+02</pdfrwt>
<pdfrwt beam="2">  1       -4 0.10276629E+00 0.83857822E+02</pdfrwt>
<totfact> 0.46417891E+02</totfact>
</mgrwt>
</event>
<event>
 4    1  0.5124795E-001  0.8060058E+02  0.7546771E-02  0.1327356E+00
         -2   -1    0    0    0  501 -0.00000000000E+00  0.00000000000E+00  0.95851543044E+01  0.95851543044E+01  0.00000000000E+00 0.  1.
          2   -1    0    0  501    0  0.00000000000E+00 -0.00000000000E+00 -0.70790569975E+03  0.70790569975E+03  0.00000000000E+00 0. -1.
         24    1    1    2    0    0 -0.19286388809E+01  0.50514563902E+01 -0.42318850023E+03  0.43079572832E+03  0.80419002446E+02 0.  0.
        -24    1    1    2    0    0  0.19286388809E+01 -0.50514563902E+01 -0.27513204522E+03  0.28669512573E+03  0.80419002446E+02 0.  1.
<mgrwt>
<rscale>  0 0.80600576E+02</rscale>
<asrwt>0</asrwt>
<pdfrwt beam="1">  1        2 0.10890858E+00 0.80600576E+02</pdfrwt>
<pdfrwt beam="2">  1       -2 0.14746390E-02 0.80600576E+02</pdfrwt>
<totfact> 0.44101344E+04</totfact>
</mgrwt>
</event>
<event>
 4    1  0.5124795E-001  0.2736051E+03  0.7546771E-02  0.1099234E+00
         -2   -1    0    0    0  501 -0.00000000000E+00  0.00000000000E+00  0.18428549733E+03  0.18428549733E+03  0.00000000000E+00 0.  1.
          2   -1    0    0  501    0  0.00000000000E+00 -0.00000000000E+00 -0.79661005613E+03  0.79661005613E+03  0.00000000000E+00 0. -1.
         24    1    1    2    0    0  0.55337588896E+02  0.25559792606E+03 -0.64949985384E+03  0.70477643593E+03  0.80419002446E+02 0. -1.
        -24    1    1    2    0    0 -0.55337588896E+02 -0.25559792606E+03  0.37175295033E+02  0.27611911753E+03  0.80419002446E+02 0.  1.
<mgrwt>
<rscale>  0 0.27360513E+03</rscale>
<asrwt>0</asrwt>
<pdfrwt beam="1">  1        2 0.12255539E+00 0.27360513E+03</pdfrwt>
<pdfrwt beam="2">  1       -2 0.28351615E-01 0.27360513E+03</pdfrwt>
<totfact> 0.40696932E+02</totfact>
</mgrwt>
</event>
<event>
 4    1  0.5124795E-001  0.9164001E+02  0.7546771E-02  0.1298928E+00
         -2   -1    0    0    0  501 -0.00000000000E+00  0.00000000000E+00  0.79519122290E+01  0.79519122290E+01  0.00000000000E+00 0.  1.
          2   -1    0    0  501    0  0.00000000000E+00 -0.00000000000E+00 -0.10976777899E+04  0.10976777899E+04  0.00000000000E+00 0. -1.
         24    1    1    2    0    0  0.12598746166E+02  0.42094512298E+02 -0.65247307822E+03  0.65887708271E+03  0.80419002446E+02 0. -1.
        -24    1    1    2    0    0 -0.12598746166E+02 -0.42094512298E+02 -0.43725279942E+03  0.44675261938E+03  0.80419002446E+02 0.  1.
<mgrwt>
<rscale>  0 0.91640015E+02</rscale>
<asrwt>0</asrwt>
<pdfrwt beam="1">  1        2 0.16887345E+00 0.91640015E+02</pdfrwt>
<pdfrwt beam="2">  1       -2 0.12233715E-02 0.91640015E+02</pdfrwt>
<totfact> 0.33321819E+04</totfact>
</mgrwt>
</event>
<event>
 4    1  0.5124795E-001  0.8073005E+02  0.7546771E-02  0.1326992E+00
          2   -1    0    0  501    0  0.00000000000E+00  0.00000000000E+00  0.30619979254E+02  0.30619979254E+02  0.00000000000E+00 0. -1.
         -2   -1    0    0    0  501 -0.00000000000E+00 -0.00000000000E+00 -0.26592411026E+03  0.26592411026E+03  0.00000000000E+00 0.  1.
         24    1    1    2    0    0  0.62136282558E+01  0.33934207725E+01 -0.51409353958E+02  0.95709258222E+02  0.80419002446E+02 0. -1.
        -24    1    1    2    0    0 -0.62136282558E+01 -0.33934207725E+01 -0.18389477705E+03  0.20083483130E+03  0.80419002446E+02 0.  1.
<mgrwt>
<rscale>  0 0.80730047E+02</rscale>
<asrwt>0</asrwt>
<pdfrwt beam="1">  1        2 0.47107662E-02 0.80730047E+02</pdfrwt>
<pdfrwt beam="2">  1       -2 0.40911400E-01 0.80730047E+02</pdfrwt>
<totfact> 0.86557185E+03</totfact>
</mgrwt>
</event>
<event>
 4    1  0.5124795E-001  0.8565307E+02  0.7546771E-02  0.1313733E+00
          4   -1    0    0  501    0  0.00000000000E+00  0.00000000000E+00  0.11564639886E+03  0.11564639886E+03  0.00000000000E+00 0. -1.
         -4   -1    0    0    0  501 -0.00000000000E+00 -0.00000000000E+00 -0.64331192843E+02  0.64331192843E+02  0.00000000000E+00 0.  1.
         24    1    1    2    0    0 -0.17031347374E+02 -0.24065869023E+02  0.36257403469E+02  0.93011010670E+02  0.80419002446E+02 0. -1.
        -24    1    1    2    0    0  0.17031347374E+02  0.24065869023E+02  0.15057802553E+02  0.86966581037E+02  0.80419002446E+02 0.  0.
<mgrwt>
<rscale>  0 0.85653072E+02</rscale>
<asrwt>0</asrwt>
<pdfrwt beam="1">  1        4 0.17791754E-01 0.85653072E+02</pdfrwt>
<pdfrwt beam="2">  1       -4 0.98971066E-02 0.85653072E+02</pdfrwt>
<totfact> 0.31271123E+03</totfact>
</mgrwt>
</event>
<event>
 4    1  0.5124795E-001  0.8618416E+02  0.7546771E-02  0.1312365E+00
         -1   -1    0    0    0  501 -0.00000000000E+00  0.00000000000E+00  0.82936674956E+01  0.82936674956E+01  0.00000000000E+00 0.  1.
          1   -1    0    0  501    0  0.00000000000E+00 -0.00000000000E+00 -0.15057744311E+04  0.15057744311E+04  0.00000000000E+00 0. -1.
         24    1    1    2    0    0 -0.24067000541E+02 -0.19526212964E+02 -0.26682952452E+03  0.28040275430E+03  0.80419002446E+02 0.  1.
        -24    1    1    2    0    0  0.24067000541E+02  0.19526212964E+02 -0.12306512391E+04  0.12336653443E+04  0.80419002446E+02 0. -1.
<mgrwt>
<rscale>  0 0.86184160E+02</rscale>
<asrwt>0</asrwt>
<pdfrwt beam="1">  1        1 0.23165750E+00 0.86184160E+02</pdfrwt>
<pdfrwt beam="2">  1       -1 0.12759494E-02 0.86184160E+02</pdfrwt>
<totfact> 0.89206562E+03</totfact>
</mgrwt>
</event>
<event>
 4    1  0.5124795E-001  0.1052876E+03  0.7546771E-02  0.1269554E+00
         -2   -1    0    0    0  501 -0.00000000000E+00  0.00000000000E+00  0.34419049217E+02  0.34419049217E+02  0.00000000000E+00 0.  1.
          2   -1    0    0  501    0  0.00000000000E+00 -0.00000000000E+00 -0.39422824811E+03  0.39422824811E+03  0.00000000000E+00 0. -1.
         24    1    1    2    0    0  0.64966766232E+02 -0.19939561165E+02 -0.27159566289E+03  0.29128969578E+03  0.80419002446E+02 0.  1.
        -24    1    1    2    0    0 -0.64966766232E+02  0.19939561165E+02 -0.88213536012E+02  0.13735760155E+03  0.80419002446E+02 0. -1.
<mgrwt>
<rscale>  0 0.10528762E+03</rscale>
<asrwt>0</asrwt>
<pdfrwt beam="1">  1        2 0.60650502E-01 0.10528762E+03</pdfrwt>
<pdfrwt beam="2">  1       -2 0.52952381E-02 0.10528762E+03</pdfrwt>
<totfact> 0.13443951E+04</totfact>
</mgrwt>
</event>
<event>
 4    1  0.5124795E-001  0.1328282E+03  0.7546771E-02  0.1223319E+00
          1   -1    0    0  501    0  0.00000000000E+00  0.00000000000E+00  0.15898144489E+02  0.15898144489E+02  0.00000000000E+00 0. -1.
         -1   -1    0    0    0  501 -0.00000000000E+00 -0.00000000000E+00 -0.17899412427E+04  0.17899412427E+04  0.00000000000E+00 0.  1.
         24    1    1    2    0    0  0.40792980976E+02 -0.97529663562E+02 -0.14436151052E+04  0.14497130373E+04  0.80419002446E+02 0. -1.
        -24    1    1    2    0    0 -0.40792980976E+02  0.97529663562E+02 -0.33042799299E+03  0.35612634988E+03  0.80419002446E+02 0.  1.
<mgrwt>
<rscale>  0 0.13282815E+03</rscale>
<asrwt>0</asrwt>
<pdfrwt beam="1">  1        1 0.24458674E-02 0.13282815E+03</pdfrwt>
<pdfrwt beam="2">  1       -1 0.27537568E+00 0.13282815E+03</pdfrwt>
<totfact> 0.25146481E+02</totfact>
</mgrwt>
</event>
<event>
 4    1  0.5124795E-001  0.1214348E+03  0.7546771E-02  0.1240749E+00
          2   -1    0    0  501    0  0.00000000000E+00  0.00000000000E+00  0.58994194110E+03  0.58994194110E+03  0.00000000000E+00 0. -1.
         -2   -1    0    0    0  501 -0.00000000000E+00 -0.00000000000E+00 -0.54958866200E+02  0.54958866200E+02  0.00000000000E+00 0.  1.
         24    1    1    2    0    0 -0.83516851983E+02 -0.36112622969E+02  0.50557712143E+03  0.51995637102E+03  0.80419002446E+02 0. -1.
        -24    1    1    2    0    0  0.83516851983E+02  0.36112622969E+02  0.29405953476E+02  0.12494443628E+03  0.80419002446E+02 0.  1.
<mgrwt>
<rscale>  0 0.12143476E+03</rscale>
<asrwt>0</asrwt>
<pdfrwt beam="1">  1        2 0.90760294E-01 0.12143476E+03</pdfrwt>
<pdfrwt beam="2">  1       -2 0.84552106E-02 0.12143476E+03</pdfrwt>
<totfact> 0.43004344E+03</totfact>
</mgrwt>
</event>
<event>
 4    1  0.5124795E-001  0.1247389E+03  0.7546771E-02  0.1235478E+00
          2   -1    0    0  501    0  0.00000000000E+00  0.00000000000E+00  0.36849210385E+03  0.36849210385E+03  0.00000000000E+00 0. -1.
         -2   -1    0    0    0  501 -0.00000000000E+00 -0.00000000000E+00 -0.54241258098E+02  0.54241258098E+02  0.00000000000E+00 0.  1.
         24    1    1    2    0    0 -0.50064702255E+02 -0.81154860031E+02  0.25660761777E+03  0.28531959479E+03  0.80419002446E+02 0. -1.
        -24    1    1    2    0    0  0.50064702255E+02  0.81154860031E+02  0.57643227984E+02  0.13741376716E+03  0.80419002446E+02 0.  1.
<mgrwt>
<rscale>  0 0.12473893E+03</rscale>
<asrwt>0</asrwt>
<pdfrwt beam="1">  1        2 0.56691091E-01 0.12473893E+03</pdfrwt>
<pdfrwt beam="2">  1       -2 0.83448092E-02 0.12473893E+03</pdfrwt>
<totfact> 0.73291405E+03</totfact>
</mgrwt>
</event>
<event>
 4    1  0.5124795E-001  0.1029295E+03  0.7546771E-02  0.1274253E+00
          2   -1    0    0  501    0  0.00000000000E+00  0.00000000000E+00  0.69280833259E+03  0.69280833259E+03  0.00000000000E+00 0. -1.
         -2   -1    0    0    0  501 -0.00000000000E+00 -0.00000000000E+00 -0.19720256467E+02  0.19720256467E+02  0.00000000000E+00 0.  1.
         24    1    1    2    0    0  0.63808276299E+02  0.74686018493E+01  0.50536549924E+03  0.51574100081E+03  0.80419002446E+02 0. -1.
        -24    1    1    2    0    0 -0.63808276299E+02 -0.74686018493E+01  0.16772257688E+03  0.19678758825E+03  0.80419002446E+02 0.  1.
<mgrwt>
<rscale>  0 0.10292955E+03</rscale>
<asrwt>0</asrwt>
<pdfrwt beam="1">  1        2 0.10658588E+00 0.10292955E+03</pdfrwt>
<pdfrwt beam="2">  1       -2 0.30338861E-02 0.10292955E+03</pdfrwt>
<totfact> 0.16416711E+04</totfact>
</mgrwt>
</event>
<event>
 4    1  0.5124795E-001  0.9957391E+02  0.7546771E-02  0.1281195E+00
          1   -1    0    0  501    0  0.00000000000E+00  0.00000000000E+00  0.70495555218E+02  0.70495555218E+02  0.00000000000E+00 0. -1.
         -1   -1    0    0    0  501 -0.00000000000E+00 -0.00000000000E+00 -0.57258704239E+03  0.57258704239E+03  0.00000000000E+00 0.  1.
         24    1    1    2    0    0  0.17252344063E+02  0.56125796610E+02 -0.53031807339E+03  0.53958523269E+03  0.80419002446E+02 0.  1.
        -24    1    1    2    0    0 -0.17252344063E+02 -0.56125796610E+02  0.28226586218E+02  0.10349736492E+03  0.80419002446E+02 0. -1.
<mgrwt>
<rscale>  0 0.99573914E+02</rscale>
<asrwt>0</asrwt>
<pdfrwt beam="1">  1        1 0.10845470E-01 0.99573914E+02</pdfrwt>
<pdfrwt beam="2">  1       -1 0.88090313E-01 0.99573914E+02</pdfrwt>
<totfact> 0.75311947E+02</totfact>
</mgrwt>
</event>
<event>
 4    1  0.5124795E-001  0.2785874E+03  0.7546771E-02  0.1096463E+00
          1   -1    0    0  501    0  0.00000000000E+00  0.00000000000E+00  0.23213014829E+04  0.23213014829E+04  0.00000000000E+00 0. -1.
         -1   -1    0    0    0  501 -0.00000000000E+00 -0.00000000000E+00 -0.48642551967E+02  0.48642551967E+02  0.00000000000E+00 0.  1.
         24    1    1    2    0    0 -0.12206099743E+03  0.23715996838E+03  0.47374628328E+03  0.54958756770E+03  0.80419002446E+02 0.  1.
        -24    1    1    2    0    0  0.12206099743E+03 -0.23715996838E+03  0.17989126476E+04  0.18203564671E+04  0.80419002446E+02 0. -1.
<mgrwt>
<rscale>  0 0.27858743E+03</rscale>
<asrwt>0</asrwt>
<pdfrwt beam="1">  1        1 0.35712322E+00 0.27858743E+03</pdfrwt>
<pdfrwt beam="2">  1       -1 0.74834713E-02 0.27858743E+03</pdfrwt>
<totfact> 0.19834902E+02</totfact>
</mgrwt>
</event>
<event>
 4    1  0.5124795E-001  0.8179142E+02  0.7546771E-02  0.1324043E+00
          2   -1    0    0  501    0  0.00000000000E+00  0.00000000000E+00  0.16500158169E+02  0.16500158169E+02  0.00000000000E+00 0. -1.
         -2   -1    0    0    0  501 -0.00000000000E+00 -0.00000000000E+00 -0.41632465387E+03  0.41632465387E+03  0.00000000000E+00 0.  1.
         24    1    1    2    0    0  0.14881121856E+02  0.10813112676E+01 -0.23490375928E+03  0.24873602292E+03  0.80419002446E+02 0.  0.
        -24    1    1    2    0    0 -0.14881121856E+02 -0.10813112676E+01 -0.16492073642E+03  0.18408878912E+03  0.80419002446E+02 0.  0.
<mgrwt>
<rscale>  0 0.81791409E+02</rscale>
<asrwt>0</asrwt>
<pdfrwt beam="1">  1        2 0.25384859E-02 0.81791420E+02</pdfrwt>
<pdfrwt beam="2">  1       -2 0.64049945E-01 0.81791420E+02</pdfrwt>
<totfact> 0.80788062E+03</totfact>
</mgrwt>
</event>
<event>
 4    1  0.5124795E-001  0.8107770E+02  0.7546771E-02  0.1326021E+00
         -1   -1    0    0    0  501 -0.00000000000E+00  0.00000000000E+00  0.16666890782E+03  0.16666890782E+03  0.00000000000E+00 0.  1.
          1   -1    0    0  501    0  0.00000000000E+00 -0.00000000000E+00 -0.40560786368E+02  0.40560786368E+02  0.00000000000E+00 0. -1.
         24    1    1    2    0    0  0.90274894625E+01  0.49881319860E+01  0.80270013295E+02  0.11409148967E+03  0.80419002446E+02 0.  1.
        -24    1    1    2    0    0 -0.90274894625E+01 -0.49881319860E+01  0.45838108158E+02  0.93138204517E+02  0.80419002446E+02 0. -1.
<mgrwt>
<rscale>  0 0.81077697E+02</rscale>
<asrwt>0</asrwt>
<pdfrwt beam="1">  1        1 0.62401210E-02 0.81077697E+02</pdfrwt>
<pdfrwt beam="2">  1       -1 0.25641370E-01 0.81077697E+02</pdfrwt>
<totfact> 0.14414807E+04</totfact>
</mgrwt>
</event>
<event>
 4    1  0.5124795E-001  0.1127452E+03  0.7546771E-02  0.1255569E+00
          2   -1    0    0  501    0  0.00000000000E+00  0.00000000000E+00  0.59904173294E+03  0.59904173294E+03  0.00000000000E+00 0. -1.
         -2   -1    0    0    0  501 -0.00000000000E+00 -0.00000000000E+00 -0.43480932133E+02  0.43480932133E+02  0.00000000000E+00 0.  1.
         24    1    1    2    0    0 -0.78452255936E+02  0.94603906523E+01  0.50765123256E+03  0.52002042780E+03  0.80419002446E+02 0. -1.
        -24    1    1    2    0    0  0.78452255936E+02 -0.94603906523E+01  0.47909568242E+02  0.12250223727E+03  0.80419002446E+02 0.  1.
<mgrwt>
<rscale>  0 0.11274516E+03</rscale>
<asrwt>0</asrwt>
<pdfrwt beam="1">  1        2 0.92160260E-01 0.11274516E+03</pdfrwt>
<pdfrwt beam="2">  1       -2 0.66893746E-02 0.11274516E+03</pdfrwt>
<totfact> 0.60285286E+03</totfact>
</mgrwt>
</event>
<event>
 4    1  0.5124795E-001  0.8604817E+02  0.7546771E-02  0.1312714E+00
         -2   -1    0    0    0  501 -0.00000000000E+00  0.00000000000E+00  0.16330964938E+03  0.16330964938E+03  0.00000000000E+00 0.  1.
          2   -1    0    0  501    0  0.00000000000E+00 -0.00000000000E+00 -0.97938877230E+02  0.97938877230E+02  0.00000000000E+00 0. -1.
         24    1    1    2    0    0 -0.63911449268E+01 -0.29937008178E+02 -0.63042592343E+02  0.10667078136E+03  0.80419002446E+02 0.  0.
        -24    1    1    2    0    0  0.63911449268E+01  0.29937008178E+02  0.12841336449E+03  0.15457774525E+03  0.80419002446E+02 0.  1.
<mgrwt>
<rscale>  0 0.86048168E+02</rscale>
<asrwt>0</asrwt>
<pdfrwt beam="1">  1        2 0.15067520E-01 0.86048168E+02</pdfrwt>
<pdfrwt beam="2">  1       -2 0.25124562E-01 0.86048168E+02</pdfrwt>
<totfact> 0.50283308E+03</totfact>
</mgrwt>
</event>
<event>
 4    1  0.5124795E-001  0.8202757E+02  0.7546771E-02  0.1323394E+00
         -2   -1    0    0    0  501 -0.00000000000E+00  0.00000000000E+00  0.14500859087E+03  0.14500859087E+03  0.00000000000E+00 0.  1.
          2   -1    0    0  501    0  0.00000000000E+00 -0.00000000000E+00 -0.46644041245E+02  0.46644041245E+02  0.00000000000E+00 0. -1.
         24    1    1    2    0    0 -0.12103325919E+02 -0.10715181346E+02  0.42262968074E+02  0.92275023893E+02  0.80419002446E+02 0.  1.
        -24    1    1    2    0    0  0.12103325919E+02  0.10715181346E+02  0.56101581556E+02  0.99377608227E+02  0.80419002446E+02 0.  0.
<mgrwt>
<rscale>  0 0.82027566E+02</rscale>
<asrwt>0</asrwt>
<pdfrwt beam="1">  1        2 0.71760064E-02 0.82027566E+02</pdfrwt>
<pdfrwt beam="2">  1       -2 0.22309014E-01 0.82027566E+02</pdfrwt>
<totfact> 0.14973452E+04</totfact>
</mgrwt>
</event>
<event>
 4    1  0.5124795E-001  0.9038957E+02  0.7546771E-02  0.1301911E+00
         -2   -1    0    0    0  501 -0.00000000000E+00  0.00000000000E+00  0.38606933115E+01  0.38606933115E+01  0.00000000000E+00 0.  1.
          2   -1    0    0  501    0  0.00000000000E+00 -0.00000000000E+00 -0.39265529039E+04  0.39265529039E+04  0.00000000000E+00 0. -1.
         24    1    1    2    0    0  0.21936517346E+02  0.34954947189E+02 -0.32957139899E+04  0.32969532872E+04  0.80419002446E+02 0. -1.
        -24    1    1    2    0    0 -0.21936517346E+02 -0.34954947189E+02 -0.62697822075E+03  0.63346031002E+03  0.80419002446E+02 0.  1.
<mgrwt>
<rscale>  0 0.90389574E+02</rscale>
<asrwt>0</asrwt>
<pdfrwt beam="1">  1        2 0.60408632E+00 0.90389574E+02</pdfrwt>
<pdfrwt beam="2">  1       -2 0.59395158E-03 0.90389574E+02</pdfrwt>
<totfact> 0.24081553E+03</totfact>
</mgrwt>
</event>
<event>
 4    1  0.5124795E-001  0.8955864E+02  0.7546771E-02  0.1303924E+00
         -2   -1    0    0    0  501 -0.00000000000E+00  0.00000000000E+00  0.20887045219E+02  0.20887045219E+02  0.00000000000E+00 0.  1.
          2   -1    0    0  501    0  0.00000000000E+00 -0.00000000000E+00 -0.56571430243E+03  0.56571430243E+03  0.00000000000E+00 0. -1.
         24    1    1    2    0    0 -0.25735049284E+02 -0.29853677600E+02 -0.43864074131E+03  0.44769012801E+03  0.80419002446E+02 0. -1.
        -24    1    1    2    0    0  0.25735049284E+02  0.29853677600E+02 -0.10618651591E+03  0.13891121964E+03  0.80419002446E+02 0.  1.
<mgrwt>
<rscale>  0 0.89558644E+02</rscale>
<asrwt>0</asrwt>
<pdfrwt beam="1">  1        2 0.87032951E-01 0.89558644E+02</pdfrwt>
<pdfrwt beam="2">  1       -2 0.32133923E-02 0.89558644E+02</pdfrwt>
<totfact> 0.18762926E+04</totfact>
</mgrwt>
</event>
<event>
 4    1  0.5124795E-001  0.9592869E+02  0.7546771E-02  0.1289098E+00
         -2   -1    0    0    0  501 -0.00000000000E+00  0.00000000000E+00  0.14026022167E+02  0.14026022167E+02  0.00000000000E+00 0.  1.
          2   -1    0    0  501    0  0.00000000000E+00 -0.00000000000E+00 -0.11590515969E+04  0.11590515969E+04  0.00000000000E+00 0. -1.
         24    1    1    2    0    0 -0.43496476879E+02 -0.29037131864E+02 -0.95889163967E+03  0.96367810555E+03  0.80419002446E+02 0. -1.
        -24    1    1    2    0    0  0.43496476879E+02  0.29037131864E+02 -0.18613393511E+03  0.20939951356E+03  0.80419002446E+02 0. -1.
<mgrwt>
<rscale>  0 0.95928695E+02</rscale>
<asrwt>0</asrwt>
<pdfrwt beam="1">  1        2 0.17831559E+00 0.95928695E+02</pdfrwt>
<pdfrwt beam="2">  1       -2 0.21578500E-02 0.95928695E+02</pdfrwt>
<totfact> 0.13727775E+04</totfact>
</mgrwt>
</event>
<event>
 4    1  0.5124795E-001  0.8882469E+02  0.7546771E-02  0.1305723E+00
         -2   -1    0    0    0  501 -0.00000000000E+00  0.00000000000E+00  0.51000027947E+03  0.51000027947E+03  0.00000000000E+00 0.  1.
          2   -1    0    0  501    0  0.00000000000E+00 -0.00000000000E+00 -0.15470291926E+02  0.15470291926E+02  0.00000000000E+00 0. -1.
         24    1    1    2    0    0 -0.34167156325E+02 -0.15975335347E+02  0.24778863947E+03  0.26322809826E+03  0.80419002446E+02 0.  0.
        -24    1    1    2    0    0  0.34167156325E+02  0.15975335347E+02  0.24674134807E+03  0.26224247313E+03  0.80419002446E+02 0.  1.
<mgrwt>
<rscale>  0 0.88824680E+02</rscale>
<asrwt>0</asrwt>
<pdfrwt beam="1">  1        2 0.23800453E-02 0.88824691E+02</pdfrwt>
<pdfrwt beam="2">  1       -2 0.78461569E-01 0.88824691E+02</pdfrwt>
<totfact> 0.57890302E+03</totfact>
</mgrwt>
</event>
<event>
 4    1  0.5124795E-001  0.9256291E+02  0.7546771E-02  0.1296761E+00
          1   -1    0    0  501    0  0.00000000000E+00  0.00000000000E+00  0.10656825183E+03  0.10656825183E+03  0.00000000000E+00 0. -1.
         -1   -1    0    0    0  501 -0.00000000000E+00 -0.00000000000E+00 -0.14245994525E+03  0.14245994525E+03  0.00000000000E+00 0.  1.
         24    1    1    2    0    0 -0.37533116817E+02  0.26304795531E+02 -0.10012926816E+03  0.13635895065E+03  0.80419002446E+02 0.  1.
        -24    1    1    2    0    0  0.37533116817E+02 -0.26304795531E+02  0.64237574742E+02  0.11266924642E+03  0.80419002446E+02 0. -1.
<mgrwt>
<rscale>  0 0.92562914E+02</rscale>
<asrwt>0</asrwt>
<pdfrwt beam="1">  1        1 0.16395116E-01 0.92562914E+02</pdfrwt>
<pdfrwt beam="2">  1       -1 0.21916915E-01 0.92562914E+02</pdfrwt>
<totfact> 0.53267847E+03</totfact>
</mgrwt>
</event>
<event>
 4    1  0.5124795E-001  0.9208270E+02  0.7546771E-02  0.1297885E+00
          2   -1    0    0  501    0  0.00000000000E+00  0.00000000000E+00  0.26136672772E+03  0.26136672772E+03  0.00000000000E+00 0. -1.
         -2   -1    0    0    0  501 -0.00000000000E+00 -0.00000000000E+00 -0.32946560909E+02  0.32946560909E+02  0.00000000000E+00 0.  1.
         24    1    1    2    0    0  0.72433455507E+01 -0.44266655045E+02  0.95996369460E+02  0.13302075668E+03  0.80419002446E+02 0. -1.
        -24    1    1    2    0    0 -0.72433455507E+01  0.44266655045E+02  0.13242379735E+03  0.16129253195E+03  0.80419002446E+02 0.  1.
<mgrwt>
<rscale>  0 0.92082685E+02</rscale>
<asrwt>0</asrwt>
<pdfrwt beam="1">  1        2 0.40210264E-01 0.92082697E+02</pdfrwt>
<pdfrwt beam="2">  1       -2 0.50687019E-02 0.92082697E+02</pdfrwt>
<totfact> 0.21805774E+04</totfact>
</mgrwt>
</event>
<event>
 4    1  0.5124795E-001  0.8286572E+02  0.7546771E-02  0.1321110E+00
         -2   -1    0    0    0  501 -0.00000000000E+00  0.00000000000E+00  0.48608898889E+01  0.48608898889E+01  0.00000000000E+00 0.  1.
          2   -1    0    0  501    0  0.00000000000E+00 -0.00000000000E+00 -0.19232770514E+04  0.19232770514E+04  0.00000000000E+00 0. -1.
         24    1    1    2    0    0  0.18469852494E+02 -0.76404202697E+01 -0.14559603370E+04  0.14583165741E+04  0.80419002446E+02 0. -1.
        -24    1    1    2    0    0 -0.18469852494E+02  0.76404202697E+01 -0.46245582453E+03  0.46982136719E+03  0.80419002446E+02 0.  0.
<mgrwt>
<rscale>  0 0.82865719E+02</rscale>
<asrwt>0</asrwt>
<pdfrwt beam="1">  1        2 0.29588870E+00 0.82865719E+02</pdfrwt>
<pdfrwt beam="2">  1       -2 0.74782941E-03 0.82865719E+02</pdfrwt>
<totfact> 0.24825844E+04</totfact>
</mgrwt>
</event>
<event>
 4    1  0.5124795E-001  0.1292029E+03  0.7546771E-02  0.1228643E+00
         -3   -1    0    0    0  501 -0.00000000000E+00  0.00000000000E+00  0.30054003104E+03  0.30054003104E+03  0.00000000000E+00 0.  1.
          3   -1    0    0  501    0  0.00000000000E+00 -0.00000000000E+00 -0.64364060730E+02  0.64364060730E+02  0.00000000000E+00 0. -1.
         24    1    1    2    0    0  0.49494591772E+02  0.88184219615E+02  0.50550154750E+02  0.13873970341E+03  0.80419002446E+02 0. -1.
        -24    1    1    2    0    0 -0.49494591772E+02 -0.88184219615E+02  0.18562581556E+03  0.22616438835E+03  0.80419002446E+02 0.  1.
<mgrwt>
<rscale>  0 0.12920291E+03</rscale>
<asrwt>0</asrwt>
<pdfrwt beam="1">  1        3 0.99021634E-02 0.12920292E+03</pdfrwt>
<pdfrwt beam="2">  1       -3 0.46236927E-01 0.12920292E+03</pdfrwt>
<totfact> 0.80327828E+02</totfact>
</mgrwt>
</event>
<event>
 4    1  0.5124795E-001  0.8772873E+02  0.7546771E-02  0.1308447E+00
         -1   -1    0    0    0  501 -0.00000000000E+00  0.00000000000E+00  0.14842368300E+03  0.14842368300E+03  0.00000000000E+00 0.  1.
          1   -1    0    0  501    0  0.00000000000E+00 -0.00000000000E+00 -0.73358667426E+02  0.73358667426E+02  0.00000000000E+00 0. -1.
         24    1    1    2    0    0 -0.10489586717E+02  0.33452684407E+02  0.97572388932E+02  0.13121242533E+03  0.80419002446E+02 0.  1.
        -24    1    1    2    0    0  0.10489586717E+02 -0.33452684407E+02 -0.22507373356E+02  0.90569925104E+02  0.80419002446E+02 0. -1.
<mgrwt>
<rscale>  0 0.87728727E+02</rscale>
<asrwt>0</asrwt>
<pdfrwt beam="1">  1        1 0.11285949E-01 0.87728727E+02</pdfrwt>
<pdfrwt beam="2">  1       -1 0.22834413E-01 0.87728727E+02</pdfrwt>
<totfact> 0.80255631E+03</totfact>
</mgrwt>
</event>
<event>
 4    1  0.5124795E-001  0.1060185E+03  0.7546771E-02  0.1268126E+00
         -1   -1    0    0    0  501 -0.00000000000E+00  0.00000000000E+00  0.35860441386E+02  0.35860441386E+02  0.00000000000E+00 0.  1.
          1   -1    0    0  501    0  0.00000000000E+00 -0.00000000000E+00 -0.39348060426E+03  0.39348060426E+03  0.00000000000E+00 0. -1.
         24    1    1    2    0    0 -0.16004789137E+02 -0.67205347788E+02 -0.81987045867E+02  0.13402165381E+03  0.80419002446E+02 0.  1.
        -24    1    1    2    0    0  0.16004789137E+02  0.67205347788E+02 -0.27563311701E+03  0.29531939183E+03  0.80419002446E+02 0. -1.
<mgrwt>
<rscale>  0 0.10601853E+03</rscale>
<asrwt>0</asrwt>
<pdfrwt beam="1">  1        1 0.60535479E-01 0.10601853E+03</pdfrwt>
<pdfrwt beam="2">  1       -1 0.55169908E-02 0.10601853E+03</pdfrwt>
<totfact> 0.87696214E+03</totfact>
</mgrwt>
</event>
<event>
 4    1  0.5124795E-001  0.8258624E+02  0.7546771E-02  0.1321868E+00
          2   -1    0    0  501    0  0.00000000000E+00  0.00000000000E+00  0.18140226192E+04  0.18140226192E+04  0.00000000000E+00 0. -1.
         -2   -1    0    0    0  501 -0.00000000000E+00 -0.00000000000E+00 -0.10795238853E+02  0.10795238853E+02  0.00000000000E+00 0.  1.
         24    1    1    2    0    0 -0.12046703553E+02  0.14427321557E+02  0.16381885280E+04  0.16402689231E+04  0.80419002446E+02 0. -1.
        -24    1    1    2    0    0  0.12046703553E+02 -0.14427321557E+02  0.16503885230E+03  0.18454893497E+03  0.80419002446E+02 0.  0.
<mgrwt>
<rscale>  0 0.82586238E+02</rscale>
<asrwt>0</asrwt>
<pdfrwt beam="1">  1        2 0.27908016E+00 0.82586238E+02</pdfrwt>
<pdfrwt beam="2">  1       -2 0.16608074E-02 0.82586238E+02</pdfrwt>
<totfact> 0.91007390E+03</totfact>
</mgrwt>
</event>
<event>
 4    1  0.5124795E-001  0.1109322E+03  0.7546771E-02  0.1258853E+00
          1   -1    0    0  501    0  0.00000000000E+00  0.00000000000E+00  0.31755223529E+03  0.31755223529E+03  0.00000000000E+00 0. -1.
         -1   -1    0    0    0  501 -0.00000000000E+00 -0.00000000000E+00 -0.38782622331E+02  0.38782622331E+02  0.00000000000E+00 0.  1.
         24    1    1    2    0    0  0.70397388389E+02 -0.29714330975E+02  0.14434846111E+03  0.18205061916E+03  0.80419002446E+02 0.  0.
        -24    1    1    2    0    0 -0.70397388389E+02  0.29714330975E+02  0.13442115185E+03  0.17428423847E+03  0.80419002446E+02 0. -1.
<mgrwt>
<rscale>  0 0.11093220E+03</rscale>
<asrwt>0</asrwt>
<pdfrwt beam="1">  1        1 0.48854188E-01 0.11093221E+03</pdfrwt>
<pdfrwt beam="2">  1       -1 0.59665575E-02 0.11093221E+03</pdfrwt>
<totfact> 0.10223916E+04</totfact>
</mgrwt>
</event>
<event>
 4    1  0.5124795E-001  0.8132506E+02  0.7546771E-02  0.1325333E+00
          1   -1    0    0  501    0  0.00000000000E+00  0.00000000000E+00  0.41334545421E+02  0.41334545421E+02  0.00000000000E+00 0. -1.
         -1   -1    0    0    0  501 -0.00000000000E+00 -0.00000000000E+00 -0.34882054523E+03  0.34882054523E+03  0.00000000000E+00 0.  1.
         24    1    1    2    0    0  0.10518870820E+02 -0.59919260881E+01 -0.29726690473E+03  0.30819049049E+03  0.80419002446E+02 0.  1.
        -24    1    1    2    0    0 -0.10518870820E+02  0.59919260881E+01 -0.10219095075E+02  0.81964600164E+02  0.80419002446E+02 0. -1.
<mgrwt>
<rscale>  0 0.81325062E+02</rscale>
<asrwt>0</asrwt>
<pdfrwt beam="1">  1        1 0.63591610E-02 0.81325062E+02</pdfrwt>
<pdfrwt beam="2">  1       -1 0.53664698E-01 0.81325062E+02</pdfrwt>
<totfact> 0.39651592E+03</totfact>
</mgrwt>
</event>
<event>
 4    1  0.5124795E-001  0.9673527E+02  0.7546771E-02  0.1287315E+00
          2   -1    0    0  501    0  0.00000000000E+00  0.00000000000E+00  0.25851345361E+04  0.25851345361E+04  0.00000000000E+00 0. -1.
         -2   -1    0    0    0  501 -0.00000000000E+00 -0.00000000000E+00 -0.18713083959E+02  0.18713083959E+02  0.00000000000E+00 0.  1.
         24    1    1    2    0    0 -0.53642341358E+02  0.36050414122E+01  0.24524530252E+04  0.24543601108E+04  0.80419002446E+02 0.  1.
        -24    1    1    2    0    0  0.53642341358E+02 -0.36050414122E+01  0.11396842698E+03  0.14948750922E+03  0.80419002446E+02 0. -1.
<mgrwt>
<rscale>  0 0.96735273E+02</rscale>
<asrwt>0</asrwt>
<pdfrwt beam="1">  1        2 0.39771272E+00 0.96735273E+02</pdfrwt>
<pdfrwt beam="2">  1       -2 0.28789380E-02 0.96735273E+02</pdfrwt>
<totfact> 0.16675215E+03</totfact>
</mgrwt>
</event>
<event>
 4    1  0.5124795E-001  0.8143530E+02  0.7546771E-02  0.1325027E+00
         -2   -1    0    0    0  501 -0.00000000000E+00  0.00000000000E+00  0.11039000644E+02  0.11039000644E+02  0.00000000000E+00 0.  1.
          2   -1    0    0  501    0  0.00000000000E+00 -0.00000000000E+00 -0.20438852103E+04  0.20438852103E+04  0.00000000000E+00 0. -1.
         24    1    1    2    0    0 -0.10030997405E+02 -0.79919966334E+01 -0.18797806240E+04  0.18815437553E+04  0.80419002446E+02 0. -1.
        -24    1    1    2    0    0  0.10030997405E+02  0.79919966334E+01 -0.15306558562E+03  0.17338045557E+03  0.80419002446E+02 0.  0.
<mgrwt>
<rscale>  0 0.81435305E+02</rscale>
<asrwt>0</asrwt>
<pdfrwt beam="1">  1        2 0.31444350E+00 0.81435305E+02</pdfrwt>
<pdfrwt beam="2">  1       -2 0.16983098E-02 0.81435305E+02</pdfrwt>
<totfact> 0.67643103E+03</totfact>
</mgrwt>
</event>
<event>
 4    1  0.5124795E-001  0.8408566E+02  0.7546771E-02  0.1317841E+00
         -4   -1    0    0    0  501 -0.00000000000E+00  0.00000000000E+00  0.43034871534E+02  0.43034871534E+02  0.00000000000E+00 0.  1.
          4   -1    0    0  501    0  0.00000000000E+00 -0.00000000000E+00 -0.22546054585E+03  0.22546054585E+03  0.00000000000E+00 0. -1.
         24    1    1    2    0    0  0.17274343497E+02 -0.17457938376E+02 -0.16113684756E+03  0.18175665642E+03  0.80419002446E+02 0. -1.
        -24    1    1    2    0    0 -0.17274343497E+02  0.17457938376E+02 -0.21288826759E+02  0.86738760971E+02  0.80419002446E+02 0.  1.
<mgrwt>
<rscale>  0 0.84085662E+02</rscale>
<asrwt>0</asrwt>
<pdfrwt beam="1">  1        4 0.34686238E-01 0.84085662E+02</pdfrwt>
<pdfrwt beam="2">  1       -4 0.66207494E-02 0.84085662E+02</pdfrwt>
<totfact> 0.17761047E+03</totfact>
</mgrwt>
</event>
<event>
 4    1  0.5124795E-001  0.1139757E+03  0.7546771E-02  0.1253380E+00
          2   -1    0    0  501    0  0.00000000000E+00  0.00000000000E+00  0.39472145475E+03  0.39472145475E+03  0.00000000000E+00 0. -1.
         -2   -1    0    0    0  501 -0.00000000000E+00 -0.00000000000E+00 -0.74402385675E+02  0.74402385675E+02  0.00000000000E+00 0.  1.
         24    1    1    2    0    0 -0.67480317305E+02 -0.44380785193E+02  0.33532395298E+03  0.35416467457E+03  0.80419002446E+02 0. -1.
        -24    1    1    2    0    0  0.67480317305E+02  0.44380785193E+02 -0.15004883907E+02  0.11495916585E+03  0.80419002446E+02 0.  1.
<mgrwt>
<rscale>  0 0.11397571E+03</rscale>
<asrwt>0</asrwt>
<pdfrwt beam="1">  1        2 0.60726377E-01 0.11397571E+03</pdfrwt>
<pdfrwt beam="2">  1       -2 0.11446521E-01 0.11397571E+03</pdfrwt>
<totfact> 0.41344514E+03</totfact>
</mgrwt>
</event>
<event>
 4    1  0.5124795E-001  0.9411428E+02  0.7546771E-02  0.1293184E+00
          1   -1    0    0  501    0  0.00000000000E+00  0.00000000000E+00  0.27962085019E+04  0.27962085019E+04  0.00000000000E+00 0. -1.
         -1   -1    0    0    0  501 -0.00000000000E+00 -0.00000000000E+00 -0.34215734006E+01  0.34215734006E+01  0.00000000000E+00 0.  1.
         24    1    1    2    0    0  0.38440328780E+02 -0.30209639387E+02  0.10150797795E+04  0.10194333994E+04  0.80419002446E+02 0.  1.
        -24    1    1    2    0    0 -0.38440328780E+02  0.30209639387E+02  0.17777071490E+04  0.17801966759E+04  0.80419002446E+02 0.  1.
<mgrwt>
<rscale>  0 0.94114277E+02</rscale>
<asrwt>0</asrwt>
<pdfrwt beam="1">  1        1 0.43018410E+00 0.94114277E+02</pdfrwt>
<pdfrwt beam="2">  1       -1 0.52639814E-03 0.94114277E+02</pdfrwt>
<totfact> 0.46989785E+03</totfact>
</mgrwt>
</event>
<event>
 4    1  0.5124795E-001  0.8053388E+02  0.7546771E-02  0.1327543E+00
          2   -1    0    0  501    0  0.00000000000E+00  0.00000000000E+00  0.31742295388E+04  0.31742295388E+04  0.00000000000E+00 0. -1.
         -2   -1    0    0    0  501 -0.00000000000E+00 -0.00000000000E+00 -0.22183996650E+01  0.22183996650E+01  0.00000000000E+00 0.  1.
         24    1    1    2    0    0  0.32497183610E+01  0.28159122440E+01  0.20322898095E+04  0.20338848482E+04  0.80419002446E+02 0.  0.
        -24    1    1    2    0    0 -0.32497183610E+01 -0.28159122440E+01  0.11397213296E+04  0.11425630903E+04  0.80419002446E+02 0.  1.
<mgrwt>
<rscale>  0 0.80533881E+02</rscale>
<asrwt>0</asrwt>
<pdfrwt beam="1">  1        2 0.48833937E+00 0.80533881E+02</pdfrwt>
<pdfrwt beam="2">  1       -2 0.34129480E-03 0.80533881E+02</pdfrwt>
<totfact> 0.16047612E+04</totfact>
</mgrwt>
</event>
<event>
 4    1  0.5124795E-001  0.8544365E+02  0.7546771E-02  0.1314276E+00
         -2   -1    0    0    0  501 -0.00000000000E+00  0.00000000000E+00  0.17098810022E+01  0.17098810022E+01  0.00000000000E+00 0.  1.
          2   -1    0    0  501    0  0.00000000000E+00 -0.00000000000E+00 -0.43178583037E+04  0.43178583037E+04  0.00000000000E+00 0. -1.
         24    1    1    2    0    0 -0.91012503870E+01  0.27396521792E+02 -0.23862512805E+04  0.23877805158E+04  0.80419002446E+02 0.  1.
        -24    1    1    2    0    0  0.91012503870E+01 -0.27396521792E+02 -0.19298971422E+04  0.19317876689E+04  0.80419002446E+02 0. -1.
<mgrwt>
<rscale>  0 0.85443655E+02</rscale>
<asrwt>0</asrwt>
<pdfrwt beam="1">  1        2 0.66427775E+00 0.85443655E+02</pdfrwt>
<pdfrwt beam="2">  1       -2 0.26306184E-03 0.85443655E+02</pdfrwt>
<totfact> 0.37502436E+03</totfact>
</mgrwt>
</event>
<event>
 4    1  0.5124795E-001  0.1117427E+03  0.7546771E-02  0.1257376E+00
         -2   -1    0    0    0  501 -0.00000000000E+00  0.00000000000E+00  0.30918933000E+02  0.30918933000E+02  0.00000000000E+00 0.  1.
          2   -1    0    0  501    0  0.00000000000E+00 -0.00000000000E+00 -0.57054143608E+03  0.57054143608E+03  0.00000000000E+00 0. -1.
         24    1    1    2    0    0  0.77409197660E+02  0.51980840570E+01 -0.43236542495E+03  0.44657169705E+03  0.80419002446E+02 0. -1.
        -24    1    1    2    0    0 -0.77409197660E+02 -0.51980840570E+01 -0.10725707813E+03  0.15488867203E+03  0.80419002446E+02 0.  1.
<mgrwt>
<rscale>  0 0.11174265E+03</rscale>
<asrwt>0</asrwt>
<pdfrwt beam="1">  1        2 0.87775606E-01 0.11174265E+03</pdfrwt>
<pdfrwt beam="2">  1       -2 0.47567589E-02 0.11174265E+03</pdfrwt>
<totfact> 0.10627042E+04</totfact>
</mgrwt>
</event>
<event>
 4    1  0.5124795E-001  0.1379732E+03  0.7546771E-02  0.1216082E+00
         -2   -1    0    0    0  501 -0.00000000000E+00  0.00000000000E+00  0.30047459338E+02  0.30047459338E+02  0.00000000000E+00 0.  1.
          2   -1    0    0  501    0  0.00000000000E+00 -0.00000000000E+00 -0.65058319276E+03  0.65058319276E+03  0.00000000000E+00 0. -1.
         24    1    1    2    0    0  0.10422502498E+03 -0.41310146507E+02 -0.36533145224E+03  0.39051718270E+03  0.80419002446E+02 0. -1.
        -24    1    1    2    0    0 -0.10422502498E+03  0.41310146507E+02 -0.25520428118E+03  0.29011346939E+03  0.80419002446E+02 0.  1.
<mgrwt>
<rscale>  0 0.13797319E+03</rscale>
<asrwt>0</asrwt>
<pdfrwt beam="1">  1        2 0.10008970E+00 0.13797319E+03</pdfrwt>
<pdfrwt beam="2">  1       -2 0.46226870E-02 0.13797319E+03</pdfrwt>
<totfact> 0.96895408E+03</totfact>
</mgrwt>
</event>
<event>
 4    1  0.5124795E-001  0.8260649E+02  0.7546771E-02  0.1321813E+00
         -1   -1    0    0    0  501 -0.00000000000E+00  0.00000000000E+00  0.38511381204E+03  0.38511381204E+03  0.00000000000E+00 0.  1.
          1   -1    0    0  501    0  0.00000000000E+00 -0.00000000000E+00 -0.19994568004E+02  0.19994568004E+02  0.00000000000E+00 0. -1.
         24    1    1    2    0    0  0.14684355727E+02  0.11873771758E+02  0.25089252340E+03  0.26414180096E+03  0.80419002446E+02 0.  0.
        -24    1    1    2    0    0 -0.14684355727E+02 -0.11873771758E+02  0.11422672064E+03  0.14096657909E+03  0.80419002446E+02 0.  0.
<mgrwt>
<rscale>  0 0.82606493E+02</rscale>
<asrwt>0</asrwt>
<pdfrwt beam="1">  1        1 0.30760877E-02 0.82606493E+02</pdfrwt>
<pdfrwt beam="2">  1       -1 0.59248273E-01 0.82606493E+02</pdfrwt>
<totfact> 0.88189874E+03</totfact>
</mgrwt>
</event>
<event>
 4    1  0.5124795E-001  0.9166481E+02  0.7546771E-02  0.1298869E+00
         -2   -1    0    0    0  501 -0.00000000000E+00  0.00000000000E+00  0.69709358443E+01  0.69709358443E+01  0.00000000000E+00 0.  1.
          2   -1    0    0  501    0  0.00000000000E+00 -0.00000000000E+00 -0.17225224859E+04  0.17225224859E+04  0.00000000000E+00 0. -1.
         24    1    1    2    0    0 -0.25173973666E+02  0.36076199124E+02 -0.13316062600E+04  0.13347575318E+04  0.80419002446E+02 0. -1.
        -24    1    1    2    0    0  0.25173973666E+02 -0.36076199124E+02 -0.38394529007E+03  0.39473588995E+03  0.80419002446E+02 0.  1.
<mgrwt>
<rscale>  0 0.91664808E+02</rscale>
<asrwt>0</asrwt>
<pdfrwt beam="1">  1        2 0.26500349E+00 0.91664808E+02</pdfrwt>
<pdfrwt beam="2">  1       -2 0.10724516E-02 0.91664808E+02</pdfrwt>
<totfact> 0.18937707E+04</totfact>
</mgrwt>
</event>
<event>
 4    1  0.5124795E-001  0.1045831E+03  0.7546771E-02  0.1270943E+00
         -2   -1    0    0    0  501 -0.00000000000E+00  0.00000000000E+00  0.16714483003E+03  0.16714483003E+03  0.00000000000E+00 0.  1.
          2   -1    0    0  501    0  0.00000000000E+00 -0.00000000000E+00 -0.32045113383E+03  0.32045113383E+03  0.00000000000E+00 0. -1.
         24    1    1    2    0    0 -0.33886557186E+02  0.57637791931E+02 -0.29413871918E+03  0.31217817972E+03  0.80419002446E+02 0. -1.
        -24    1    1    2    0    0  0.33886557186E+02 -0.57637791931E+02  0.14083241538E+03  0.17541778414E+03  0.80419002446E+02 0.  1.
<mgrwt>
<rscale>  0 0.10458312E+03</rscale>
<asrwt>0</asrwt>
<pdfrwt beam="1">  1        2 0.49300174E-01 0.10458312E+03</pdfrwt>
<pdfrwt beam="2">  1       -2 0.25714589E-01 0.10458312E+03</pdfrwt>
<totfact> 0.13446438E+03</totfact>
</mgrwt>
</event>
<event>
 4    1  0.5124795E-001  0.9135757E+02  0.7546771E-02  0.1299597E+00
         -2   -1    0    0    0  501 -0.00000000000E+00  0.00000000000E+00  0.10881623130E+02  0.10881623130E+02  0.00000000000E+00 0.  1.
          2   -1    0    0  501    0  0.00000000000E+00 -0.00000000000E+00 -0.13415641805E+04  0.13415641805E+04  0.00000000000E+00 0. -1.
         24    1    1    2    0    0  0.93828837833E+01  0.42319626588E+02 -0.11078821747E+04  0.11116425317E+04  0.80419002446E+02 0. -1.
        -24    1    1    2    0    0 -0.93828837833E+01 -0.42319626588E+02 -0.22280038268E+03  0.24080327195E+03  0.80419002446E+02 0.  1.
<mgrwt>
<rscale>  0 0.91357568E+02</rscale>
<asrwt>0</asrwt>
<pdfrwt beam="1">  1        2 0.20639453E+00 0.91357568E+02</pdfrwt>
<pdfrwt beam="2">  1       -2 0.16740955E-02 0.91357568E+02</pdfrwt>
<totfact> 0.15720134E+04</totfact>
</mgrwt>
</event>
<event>
 4    1  0.5124795E-001  0.1040074E+03  0.7546771E-02  0.1272088E+00
         -1   -1    0    0    0  501 -0.00000000000E+00  0.00000000000E+00  0.81541758151E+02  0.81541758151E+02  0.00000000000E+00 0.  1.
          1   -1    0    0  501    0  0.00000000000E+00 -0.00000000000E+00 -0.32644526856E+03  0.32644526856E+03  0.00000000000E+00 0. -1.
         24    1    1    2    0    0  0.61400592019E+02 -0.24088925296E+02 -0.27962146953E+03  0.29833821612E+03  0.80419002446E+02 0. -1.
        -24    1    1    2    0    0 -0.61400592019E+02  0.24088925296E+02  0.34717959127E+02  0.10964881058E+03  0.80419002446E+02 0.  0.
<mgrwt>
<rscale>  0 0.10400734E+03</rscale>
<asrwt>0</asrwt>
<pdfrwt beam="1">  1        1 0.50222350E-01 0.10400736E+03</pdfrwt>
<pdfrwt beam="2">  1       -1 0.12544886E-01 0.10400736E+03</pdfrwt>
<totfact> 0.32122381E+03</totfact>
</mgrwt>
</event>
<event>
 4    1  0.5124795E-001  0.9791625E+02  0.7546771E-02  0.1284740E+00
         -2   -1    0    0    0  501 -0.00000000000E+00  0.00000000000E+00  0.26343196269E+02  0.26343196269E+02  0.00000000000E+00 0.  1.
          2   -1    0    0  501    0  0.00000000000E+00 -0.00000000000E+00 -0.22281382883E+04  0.22281382883E+04  0.00000000000E+00 0. -1.
         24    1    1    2    0    0  0.29395518473E+02 -0.47500309562E+02 -0.21319732605E+04  0.21342206013E+04  0.80419002446E+02 0. -1.
        -24    1    1    2    0    0 -0.29395518473E+02  0.47500309562E+02 -0.69821831552E+02  0.12026088321E+03  0.80419002446E+02 0.  1.
<mgrwt>
<rscale>  0 0.97916249E+02</rscale>
<asrwt>0</asrwt>
<pdfrwt beam="1">  1        2 0.34279058E+00 0.97916249E+02</pdfrwt>
<pdfrwt beam="2">  1       -2 0.40527985E-02 0.97916249E+02</pdfrwt>
<totfact> 0.15508210E+03</totfact>
</mgrwt>
</event>
<event>
 4    1  0.5124795E-001  0.8814343E+02  0.7546771E-02  0.1307411E+00
          2   -1    0    0  501    0  0.00000000000E+00  0.00000000000E+00  0.11929361535E+03  0.11929361535E+03  0.00000000000E+00 0. -1.
         -2   -1    0    0    0  501 -0.00000000000E+00 -0.00000000000E+00 -0.72951658423E+02  0.72951658423E+02  0.00000000000E+00 0.  1.
         24    1    1    2    0    0  0.33119726691E+02 -0.14322435670E+02  0.54650926687E+02  0.10371108042E+03  0.80419002446E+02 0. -1.
        -24    1    1    2    0    0 -0.33119726691E+02  0.14322435670E+02 -0.83089697622E+01  0.88534193352E+02  0.80419002446E+02 0.  1.
<mgrwt>
<rscale>  0 0.88143431E+02</rscale>
<asrwt>0</asrwt>
<pdfrwt beam="1">  1        2 0.18352864E-01 0.88143431E+02</pdfrwt>
<pdfrwt beam="2">  1       -2 0.11223332E-01 0.88143431E+02</pdfrwt>
<totfact> 0.15104621E+04</totfact>
</mgrwt>
</event>
<event>
 4    1  0.5124795E-001  0.9572458E+02  0.7546771E-02  0.1289552E+00
          1   -1    0    0  501    0  0.00000000000E+00  0.00000000000E+00  0.64353467361E+03  0.64353467361E+03  0.00000000000E+00 0. -1.
         -1   -1    0    0    0  501 -0.00000000000E+00 -0.00000000000E+00 -0.40740565074E+02  0.40740565074E+02  0.00000000000E+00 0.  1.
         24    1    1    2    0    0  0.20567775543E+02  0.47675415080E+02  0.25450939176E+02  0.99050213796E+02  0.80419002446E+02 0.  1.
        -24    1    1    2    0    0 -0.20567775543E+02 -0.47675415080E+02  0.57734316936E+03  0.58522502489E+03  0.80419002446E+02 0. -1.
<mgrwt>
<rscale>  0 0.95724577E+02</rscale>
<asrwt>0</asrwt>
<pdfrwt beam="1">  1        1 0.99005327E-01 0.95724577E+02</pdfrwt>
<pdfrwt beam="2">  1       -1 0.62677797E-02 0.95724577E+02</pdfrwt>
<totfact> 0.38126686E+03</totfact>
</mgrwt>
</event>
<event>
 4    1  0.5124795E-001  0.9761382E+02  0.7546771E-02  0.1285395E+00
         -3   -1    0    0    0  501 -0.00000000000E+00  0.00000000000E+00  0.24543544696E+03  0.24543544696E+03  0.00000000000E+00 0.  1.
          3   -1    0    0  501    0  0.00000000000E+00 -0.00000000000E+00 -0.18332236459E+03  0.18332236459E+03  0.00000000000E+00 0. -1.
         24    1    1    2    0    0  0.10321798746E+02  0.54357177720E+02  0.22138678156E+03  0.24195157636E+03  0.80419002446E+02 0.  1.
        -24    1    1    2    0    0 -0.10321798746E+02 -0.54357177720E+02 -0.15927369919E+03  0.18680623519E+03  0.80419002446E+02 0. -1.
<mgrwt>
<rscale>  0 0.97613822E+02</rscale>
<asrwt>0</asrwt>
<pdfrwt beam="1">  1        3 0.28203441E-01 0.97613822E+02</pdfrwt>
<pdfrwt beam="2">  1       -3 0.37759300E-01 0.97613822E+02</pdfrwt>
<totfact> 0.18723318E+02</totfact>
</mgrwt>
</event>
<event>
 4    1  0.5124795E-001  0.8066273E+02  0.7546771E-02  0.1327181E+00
          3   -1    0    0  501    0  0.00000000000E+00  0.00000000000E+00  0.51854027433E+02  0.51854027433E+02  0.00000000000E+00 0. -1.
         -3   -1    0    0    0  501 -0.00000000000E+00 -0.00000000000E+00 -0.19386093894E+03  0.19386093894E+03  0.00000000000E+00 0.  1.
         24    1    1    2    0    0  0.40767650783E+00 -0.62524866562E+01 -0.14397175990E+03  0.16502831088E+03  0.80419002446E+02 0.  1.
        -24    1    1    2    0    0 -0.40767650783E+00  0.62524866562E+01  0.19648484001E+01  0.80686655484E+02  0.80419002446E+02 0.  0.
<mgrwt>
<rscale>  0 0.80662728E+02</rscale>
<asrwt>0</asrwt>
<pdfrwt beam="1">  1        3 0.79775427E-02 0.80662728E+02</pdfrwt>
<pdfrwt beam="2">  1       -3 0.29824760E-01 0.80662728E+02</pdfrwt>
<totfact> 0.24006545E+03</totfact>
</mgrwt>
</event>
<event>
 4    1  0.5124795E-001  0.1097538E+03  0.7546771E-02  0.1261027E+00
         -1   -1    0    0    0  501 -0.00000000000E+00  0.00000000000E+00  0.61230844307E+01  0.61230844307E+01  0.00000000000E+00 0.  1.
          1   -1    0    0  501    0  0.00000000000E+00 -0.00000000000E+00 -0.20288818153E+04  0.20288818153E+04  0.00000000000E+00 0. -1.
         24    1    1    2    0    0 -0.31316598474E+02 -0.67808154246E+02 -0.83409770620E+03  0.84128762892E+03  0.80419002446E+02 0.  1.
        -24    1    1    2    0    0  0.31316598474E+02  0.67808154246E+02 -0.11886610246E+04  0.11937172708E+04  0.80419002446E+02 0. -1.
<mgrwt>
<rscale>  0 0.10975377E+03</rscale>
<asrwt>0</asrwt>
<pdfrwt beam="1">  1        1 0.31213564E+00 0.10975377E+03</pdfrwt>
<pdfrwt beam="2">  1       -1 0.94201306E-03 0.10975377E+03</pdfrwt>
<totfact> 0.64816315E+03</totfact>
</mgrwt>
</event>
<event>
 4    1  0.5124795E-001  0.1640630E+03  0.7546771E-02  0.1184185E+00
         -2   -1    0    0    0  501 -0.00000000000E+00  0.00000000000E+00  0.58054496546E+03  0.58054496546E+03  0.00000000000E+00 0.  1.
          2   -1    0    0  501    0  0.00000000000E+00 -0.00000000000E+00 -0.49033631123E+02  0.49033631123E+02  0.00000000000E+00 0. -1.
         24    1    1    2    0    0 -0.25021228057E+02  0.14079559088E+03  0.19231138291E+03  0.25278517404E+03  0.80419002446E+02 0.  1.
        -24    1    1    2    0    0  0.25021228057E+02 -0.14079559088E+03  0.33919995143E+03  0.37679342254E+03  0.80419002446E+02 0. -1.
<mgrwt>
<rscale>  0 0.16406303E+03</rscale>
<asrwt>0</asrwt>
<pdfrwt beam="1">  1        2 0.75436360E-02 0.16406303E+03</pdfrwt>
<pdfrwt beam="2">  1       -2 0.89314605E-01 0.16406303E+03</pdfrwt>
<totfact> 0.10012441E+03</totfact>
</mgrwt>
</event>
<event>
 4    1  0.5124795E-001  0.1580280E+03  0.7546771E-02  0.1190941E+00
         -4   -1    0    0    0  501 -0.00000000000E+00  0.00000000000E+00  0.17551635741E+03  0.17551635741E+03  0.00000000000E+00 0.  1.
          4   -1    0    0  501    0  0.00000000000E+00 -0.00000000000E+00 -0.15232068984E+03  0.15232068984E+03  0.00000000000E+00 0. -1.
         24    1    1    2    0    0  0.77608668630E+02 -0.11172515345E+03  0.53678781030E+02  0.16689590423E+03  0.80419002446E+02 0.  1.
        -24    1    1    2    0    0 -0.77608668630E+02  0.11172515345E+03 -0.30483113459E+02  0.16094114303E+03  0.80419002446E+02 0. -1.
<mgrwt>
<rscale>  0 0.15802796E+03</rscale>
<asrwt>0</asrwt>
<pdfrwt beam="1">  1        4 0.23433952E-01 0.15802798E+03</pdfrwt>
<pdfrwt beam="2">  1       -4 0.27002517E-01 0.15802798E+03</pdfrwt>
<totfact> 0.37451743E+02</totfact>
</mgrwt>
</event>
<event>
 4    1  0.5124795E-001  0.8320308E+02  0.7546771E-02  0.1320200E+00
          1   -1    0    0  501    0  0.00000000000E+00  0.00000000000E+00  0.12911552514E+03  0.12911552514E+03  0.00000000000E+00 0. -1.
         -1   -1    0    0    0  501 -0.00000000000E+00 -0.00000000000E+00 -0.84346919844E+03  0.84346919844E+03  0.00000000000E+00 0.  1.
         24    1    1    2    0    0  0.18754368709E+02 -0.10188712848E+02 -0.82775939265E+03  0.83193050448E+03  0.80419002446E+02 0.  1.
        -24    1    1    2    0    0 -0.18754368709E+02  0.10188712848E+02  0.11340571935E+03  0.14065421910E+03  0.80419002446E+02 0. -1.
<mgrwt>
<rscale>  0 0.83203078E+02</rscale>
<asrwt>0</asrwt>
<pdfrwt beam="1">  1        1 0.19863926E-01 0.83203078E+02</pdfrwt>
<pdfrwt beam="2">  1       -1 0.12976450E+00 0.83203078E+02</pdfrwt>
<totfact> 0.14604528E+02</totfact>
</mgrwt>
</event>
<event>
 4    1  0.5124795E-001  0.9056846E+02  0.7546771E-02  0.1301481E+00
          2   -1    0    0  501    0  0.00000000000E+00  0.00000000000E+00  0.12397563051E+04  0.12397563051E+04  0.00000000000E+00 0. -1.
         -2   -1    0    0    0  501 -0.00000000000E+00 -0.00000000000E+00 -0.66190664256E+01  0.66190664256E+01  0.00000000000E+00 0.  1.
         24    1    1    2    0    0  0.27766419579E+01 -0.41565858190E+02  0.62922204230E+03  0.63570671286E+03  0.80419002446E+02 0.  1.
        -24    1    1    2    0    0 -0.27766419579E+01  0.41565858190E+02  0.60391519640E+03  0.61066865869E+03  0.80419002446E+02 0. -1.
<mgrwt>
<rscale>  0 0.90568462E+02</rscale>
<asrwt>0</asrwt>
<pdfrwt beam="1">  1        2 0.19073156E+00 0.90568462E+02</pdfrwt>
<pdfrwt beam="2">  1       -2 0.10183189E-02 0.90568462E+02</pdfrwt>
<totfact> 0.36080811E+04</totfact>
</mgrwt>
</event>
<event>
 4    1  0.5124795E-001  0.1479658E+03  0.7546771E-02  0.1202995E+00
         -2   -1    0    0    0  501 -0.00000000000E+00  0.00000000000E+00  0.14983369486E+03  0.14983369486E+03  0.00000000000E+00 0.  1.
          2   -1    0    0  501    0  0.00000000000E+00 -0.00000000000E+00 -0.56737497008E+03  0.56737497008E+03  0.00000000000E+00 0. -1.
         24    1    1    2    0    0  0.27966666698E+02 -0.12101454122E+03 -0.51776629754E+03  0.53849401896E+03  0.80419002446E+02 0. -1.
        -24    1    1    2    0    0 -0.27966666698E+02  0.12101454122E+03  0.10022502232E+03  0.17871464598E+03  0.80419002446E+02 0.  1.
<mgrwt>
<rscale>  0 0.14796577E+03</rscale>
<asrwt>0</asrwt>
<pdfrwt beam="1">  1        2 0.87288457E-01 0.14796577E+03</pdfrwt>
<pdfrwt beam="2">  1       -2 0.23051338E-01 0.14796577E+03</pdfrwt>
<totfact> 0.88419714E+02</totfact>
</mgrwt>
</event>
<event>
 4    1  0.5124795E-001  0.8316030E+02  0.7546771E-02  0.1320315E+00
         -2   -1    0    0    0  501 -0.00000000000E+00  0.00000000000E+00  0.19180781700E+02  0.19180781700E+02  0.00000000000E+00 0.  1.
          2   -1    0    0  501    0  0.00000000000E+00 -0.00000000000E+00 -0.46119023108E+03  0.46119023108E+03  0.00000000000E+00 0. -1.
         24    1    1    2    0    0  0.19740873014E+02 -0.76627197684E+01 -0.33320451852E+03  0.34342522688E+03  0.80419002446E+02 0. -1.
        -24    1    1    2    0    0 -0.19740873014E+02  0.76627197684E+01 -0.10880493086E+03  0.13694578590E+03  0.80419002446E+02 0.  1.
<mgrwt>
<rscale>  0 0.83160299E+02</rscale>
<asrwt>0</asrwt>
<pdfrwt beam="1">  1        2 0.70952339E-01 0.83160299E+02</pdfrwt>
<pdfrwt beam="2">  1       -2 0.29508897E-02 0.83160299E+02</pdfrwt>
<totfact> 0.26289467E+04</totfact>
</mgrwt>
</event>
<event>
 4    1  0.5124795E-001  0.2064751E+03  0.7546771E-02  0.1144388E+00
          1   -1    0    0  501    0  0.00000000000E+00  0.00000000000E+00  0.16949229062E+03  0.16949229062E+03  0.00000000000E+00 0.  1.
         -1   -1    0    0    0  501 -0.00000000000E+00 -0.00000000000E+00 -0.25653771066E+03  0.25653771066E+03  0.00000000000E+00 0. -1.
         24    1    1    2    0    0 -0.18434615501E+03  0.46703643947E+02 -0.73291962577E+02  0.21909738237E+03  0.80419002446E+02 0.  0.
        -24    1    1    2    0    0  0.18434615501E+03 -0.46703643947E+02 -0.13753457460E+02  0.20693261892E+03  0.80419002446E+02 0.  0.
<mgrwt>
<rscale>  0 0.20647506E+03</rscale>
<asrwt>0</asrwt>
<pdfrwt beam="1">  1        1 0.26075737E-01 0.20647506E+03</pdfrwt>
<pdfrwt beam="2">  1       -1 0.39467340E-01 0.20647506E+03</pdfrwt>
<totfact> 0.11412780E+03</totfact>
</mgrwt>
</event>
<event>
 4    1  0.5124795E-001  0.8799536E+02  0.7546771E-02  0.1307780E+00
          2   -1    0    0  501    0  0.00000000000E+00  0.00000000000E+00  0.19705667012E+02  0.19705667012E+02  0.00000000000E+00 0. -1.
         -2   -1    0    0    0  501 -0.00000000000E+00 -0.00000000000E+00 -0.44473332811E+03  0.44473332811E+03  0.00000000000E+00 0.  1.
         24    1    1    2    0    0  0.32829541965E+02 -0.14077931526E+02 -0.13326777816E+03  0.15969810152E+03  0.80419002446E+02 0. -1.
        -24    1    1    2    0    0 -0.32829541965E+02  0.14077931526E+02 -0.29175988294E+03  0.30474089360E+03  0.80419002446E+02 0.  1.
<mgrwt>
<rscale>  0 0.87995357E+02</rscale>
<asrwt>0</asrwt>
<pdfrwt beam="1">  1        2 0.30316411E-02 0.87995357E+02</pdfrwt>
<pdfrwt beam="2">  1       -2 0.68420512E-01 0.87995357E+02</pdfrwt>
<totfact> 0.56065622E+03</totfact>
</mgrwt>
</event>
<event>
 4    1  0.5124795E-001  0.8259455E+02  0.7546771E-02  0.1321846E+00
         -2   -1    0    0    0  501 -0.00000000000E+00  0.00000000000E+00  0.49701058283E+03  0.49701058283E+03  0.00000000000E+00 0.  1.
          2   -1    0    0  501    0  0.00000000000E+00 -0.00000000000E+00 -0.19233459576E+02  0.19233459576E+02  0.00000000000E+00 0. -1.
         24    1    1    2    0    0 -0.66348531205E+01  0.17624501534E+02  0.10076095144E+03  0.13028672081E+03  0.80419002446E+02 0.  0.
        -24    1    1    2    0    0  0.66348531205E+01 -0.17624501534E+02  0.37701617181E+03  0.38595732160E+03  0.80419002446E+02 0.  1.
<mgrwt>
<rscale>  0 0.82594554E+02</rscale>
<asrwt>0</asrwt>
<pdfrwt beam="1">  1        2 0.29589941E-02 0.82594554E+02</pdfrwt>
<pdfrwt beam="2">  1       -2 0.76463157E-01 0.82594554E+02</pdfrwt>
<totfact> 0.45443147E+03</totfact>
</mgrwt>
</event>
<event>
 4    1  0.5124795E-001  0.8928229E+02  0.7546771E-02  0.1304599E+00
         -2   -1    0    0    0  501 -0.00000000000E+00  0.00000000000E+00  0.89083388587E+02  0.89083388587E+02  0.00000000000E+00 0.  1.
          2   -1    0    0  501    0  0.00000000000E+00 -0.00000000000E+00 -0.11433636911E+03  0.11433636911E+03  0.00000000000E+00 0. -1.
         24    1    1    2    0    0  0.38146697362E+02 -0.69957426607E+01 -0.60048017443E+02  0.10759689256E+03  0.80419002446E+02 0. -1.
        -24    1    1    2    0    0 -0.38146697362E+02  0.69957426607E+01  0.34795036920E+02  0.95822865140E+02  0.80419002446E+02 0.  1.
<mgrwt>
<rscale>  0 0.89282288E+02</rscale>
<asrwt>0</asrwt>
<pdfrwt beam="1">  1        2 0.17590211E-01 0.89282288E+02</pdfrwt>
<pdfrwt beam="2">  1       -2 0.13705137E-01 0.89282288E+02</pdfrwt>
<totfact> 0.11561560E+04</totfact>
</mgrwt>
</event>
<event>
 4    1  0.5124795E-001  0.9036012E+02  0.7546771E-02  0.1301982E+00
         -2   -1    0    0    0  501 -0.00000000000E+00  0.00000000000E+00  0.51518267774E+02  0.51518267774E+02  0.00000000000E+00 0.  1.
          2   -1    0    0  501    0  0.00000000000E+00 -0.00000000000E+00 -0.57086298253E+03  0.57086298253E+03  0.00000000000E+00 0. -1.
         24    1    1    2    0    0 -0.37724772747E+02  0.16570344092E+02 -0.52416128809E+03  0.53189285262E+03  0.80419002446E+02 0. -1.
        -24    1    1    2    0    0  0.37724772747E+02 -0.16570344092E+02  0.48165733357E+01  0.90488397683E+02  0.80419002446E+02 0.  1.
<mgrwt>
<rscale>  0 0.90360117E+02</rscale>
<asrwt>0</asrwt>
<pdfrwt beam="1">  1        2 0.87825082E-01 0.90360117E+02</pdfrwt>
<pdfrwt beam="2">  1       -2 0.79258866E-02 0.90360117E+02</pdfrwt>
<totfact> 0.48513519E+03</totfact>
</mgrwt>
</event>
<event>
 4    1  0.5124795E-001  0.9501705E+02  0.7546771E-02  0.1291138E+00
         -3   -1    0    0    0  501 -0.00000000000E+00  0.00000000000E+00  0.35341722975E+03  0.35341722975E+03  0.00000000000E+00 0.  1.
          3   -1    0    0  501    0  0.00000000000E+00 -0.00000000000E+00 -0.13320082360E+03  0.13320082360E+03  0.00000000000E+00 0. -1.
         24    1    1    2    0    0 -0.48187570358E+02  0.15459028647E+02  0.32884528281E+03  0.34229732614E+03  0.80419002446E+02 0.  1.
        -24    1    1    2    0    0  0.48187570358E+02 -0.15459028647E+02 -0.10862887665E+03  0.14432072720E+03  0.80419002446E+02 0. -1.
<mgrwt>
<rscale>  0 0.95017048E+02</rscale>
<asrwt>0</asrwt>
<pdfrwt beam="1">  1        3 0.20492435E-01 0.95017048E+02</pdfrwt>
<pdfrwt beam="2">  1       -3 0.54371881E-01 0.95017048E+02</pdfrwt>
<totfact> 0.16199527E+02</totfact>
</mgrwt>
</event>
<event>
 4    1  0.5124795E-001  0.8387883E+02  0.7546771E-02  0.1318391E+00
          2   -1    0    0  501    0  0.00000000000E+00  0.00000000000E+00  0.13815948635E+04  0.13815948635E+04  0.00000000000E+00 0. -1.
         -2   -1    0    0    0  501 -0.00000000000E+00 -0.00000000000E+00 -0.54177090317E+01  0.54177090317E+01  0.00000000000E+00 0.  1.
         24    1    1    2    0    0  0.51400658471E+00 -0.23836420079E+02  0.51815457480E+03  0.52489981755E+03  0.80419002446E+02 0.  1.
        -24    1    1    2    0    0 -0.51400658471E+00  0.23836420079E+02  0.85802257972E+03  0.86211275503E+03  0.80419002446E+02 0.  0.
<mgrwt>
<rscale>  0 0.83878822E+02</rscale>
<asrwt>0</asrwt>
<pdfrwt beam="1">  1        2 0.21255277E+00 0.83878833E+02</pdfrwt>
<pdfrwt beam="2">  1       -2 0.83349480E-03 0.83878833E+02</pdfrwt>
<totfact> 0.40009112E+04</totfact>
</mgrwt>
</event>
<event>
 4    1  0.5124795E-001  0.1597203E+03  0.7546771E-02  0.1189013E+00
          1   -1    0    0  501    0  0.00000000000E+00  0.00000000000E+00  0.57162553049E+03  0.57162553049E+03  0.00000000000E+00 0. -1.
         -1   -1    0    0    0  501 -0.00000000000E+00 -0.00000000000E+00 -0.20872838147E+03  0.20872838147E+03  0.00000000000E+00 0.  1.
         24    1    1    2    0    0  0.12105011873E+03  0.66258704865E+02 -0.16451113374E+03  0.22929124775E+03  0.80419002446E+02 0.  1.
        -24    1    1    2    0    0 -0.12105011873E+03 -0.66258704865E+02  0.52740828276E+03  0.55106266422E+03  0.80419002446E+02 0. -1.
<mgrwt>
<rscale>  0 0.15972027E+03</rscale>
<asrwt>0</asrwt>
<pdfrwt beam="1">  1        1 0.87942388E-01 0.15972027E+03</pdfrwt>
<pdfrwt beam="2">  1       -1 0.32112059E-01 0.15972027E+03</pdfrwt>
<totfact> 0.34842692E+02</totfact>
</mgrwt>
</event>
<event>
 4    1  0.5124795E-001  0.8138415E+02  0.7546771E-02  0.1325169E+00
         -1   -1    0    0    0  501 -0.00000000000E+00  0.00000000000E+00  0.41122310003E+03  0.41122310003E+03  0.00000000000E+00 0.  1.
          1   -1    0    0  501    0  0.00000000000E+00 -0.00000000000E+00 -0.17980159914E+02  0.17980159914E+02  0.00000000000E+00 0. -1.
         24    1    1    2    0    0 -0.12415514094E+02 -0.14206277573E+01  0.26589664051E+03  0.27807265699E+03  0.80419002446E+02 0.  0.
        -24    1    1    2    0    0  0.12415514094E+02  0.14206277573E+01  0.12734629960E+03  0.15113060296E+03  0.80419002446E+02 0. -1.
<mgrwt>
<rscale>  0 0.81384145E+02</rscale>
<asrwt>0</asrwt>
<pdfrwt beam="1">  1        1 0.27661788E-02 0.81384145E+02</pdfrwt>
<pdfrwt beam="2">  1       -1 0.63265085E-01 0.81384145E+02</pdfrwt>
<totfact> 0.89962139E+03</totfact>
</mgrwt>
</event>
<event>
 4    1  0.5124795E-001  0.8291544E+02  0.7546771E-02  0.1320976E+00
         -2   -1    0    0    0  501 -0.00000000000E+00  0.00000000000E+00  0.13368337220E+03  0.13368337220E+03  0.00000000000E+00 0.  1.
          2   -1    0    0  501    0  0.00000000000E+00 -0.00000000000E+00 -0.31557996283E+03  0.31557996283E+03  0.00000000000E+00 0. -1.
         24    1    1    2    0    0  0.19715435130E+02 -0.43653300613E+01 -0.29646342267E+03  0.30784010692E+03  0.80419002446E+02 0. -1.
        -24    1    1    2    0    0 -0.19715435130E+02  0.43653300613E+01  0.11456683204E+03  0.14142322811E+03  0.80419002446E+02 0.  1.
<mgrwt>
<rscale>  0 0.82915442E+02</rscale>
<asrwt>0</asrwt>
<pdfrwt beam="1">  1        2 0.48550763E-01 0.82915442E+02</pdfrwt>
<pdfrwt beam="2">  1       -2 0.20566673E-01 0.82915442E+02</pdfrwt>
<totfact> 0.19844492E+03</totfact>
</mgrwt>
</event>
<event>
 4    1  0.5124795E-001  0.1319645E+03  0.7546771E-02  0.1224570E+00
         -1   -1    0    0    0  501 -0.00000000000E+00  0.00000000000E+00  0.63143696872E+03  0.63143696872E+03  0.00000000000E+00 0.  1.
          1   -1    0    0  501    0  0.00000000000E+00 -0.00000000000E+00 -0.29194677896E+02  0.29194677896E+02  0.00000000000E+00 0. -1.
         24    1    1    2    0    0  0.60038833791E+02 -0.85689891174E+02  0.37881826920E+03  0.40114575412E+03  0.80419002446E+02 0.  0.
        -24    1    1    2    0    0 -0.60038833791E+02  0.85689891174E+02  0.22342402162E+03  0.25948589250E+03  0.80419002446E+02 0.  1.
<mgrwt>
<rscale>  0 0.13196452E+03</rscale>
<asrwt>0</asrwt>
<pdfrwt beam="1">  1        1 0.44914894E-02 0.13196452E+03</pdfrwt>
<pdfrwt beam="2">  1       -1 0.97144138E-01 0.13196452E+03</pdfrwt>
<totfact> 0.20151129E+03</totfact>
</mgrwt>
</event>
<event>
 4    1  0.5124795E-001  0.8654880E+02  0.7546771E-02  0.1311431E+00
         -2   -1    0    0    0  501 -0.00000000000E+00  0.00000000000E+00  0.21067629842E+02  0.21067629842E+02  0.00000000000E+00 0.  1.
          2   -1    0    0  501    0  0.00000000000E+00 -0.00000000000E+00 -0.38991770893E+03  0.38991770893E+03  0.00000000000E+00 0. -1.
         24    1    1    2    0    0 -0.20568042811E+01  0.31925668196E+02 -0.24542864201E+03  0.26024202775E+03  0.80419002446E+02 0.  0.
        -24    1    1    2    0    0  0.20568042811E+01 -0.31925668196E+02 -0.12342143708E+03  0.15074331103E+03  0.80419002446E+02 0.  0.
<mgrwt>
<rscale>  0 0.86548799E+02</rscale>
<asrwt>0</asrwt>
<pdfrwt beam="1">  1        2 0.59987337E-01 0.86548799E+02</pdfrwt>
<pdfrwt beam="2">  1       -2 0.32411740E-02 0.86548799E+02</pdfrwt>
<totfact> 0.27511204E+04</totfact>
</mgrwt>
</event>
<event>
 4    1  0.5124795E-001  0.8271180E+02  0.7546771E-02  0.1321527E+00
          1   -1    0    0  501    0  0.00000000000E+00  0.00000000000E+00  0.33304612715E+03  0.33304612715E+03  0.00000000000E+00 0. -1.
         -1   -1    0    0    0  501 -0.00000000000E+00 -0.00000000000E+00 -0.44233296884E+02  0.44233296884E+02  0.00000000000E+00 0.  1.
         24    1    1    2    0    0  0.12518402981E+02  0.14741633569E+02  0.63495031453E+01  0.82955158478E+02  0.80419002446E+02 0. -1.
        -24    1    1    2    0    0 -0.12518402981E+02 -0.14741633569E+02  0.28246332712E+03  0.29432426556E+03  0.80419002446E+02 0. -1.
<mgrwt>
<rscale>  0 0.82711802E+02</rscale>
<asrwt>0</asrwt>
<pdfrwt beam="1">  1        1 0.51237864E-01 0.82711802E+02</pdfrwt>
<pdfrwt beam="2">  1       -1 0.68051228E-02 0.82711802E+02</pdfrwt>
<totfact> 0.77503629E+03</totfact>
</mgrwt>
</event>
<event>
 4    1  0.5124795E-001  0.8229653E+02  0.7546771E-02  0.1322658E+00
          2   -1    0    0  501    0  0.00000000000E+00  0.00000000000E+00  0.84321493405E+03  0.84321493405E+03  0.00000000000E+00 0. -1.
         -2   -1    0    0    0  501 -0.00000000000E+00 -0.00000000000E+00 -0.82474928223E+01  0.82474928223E+01  0.00000000000E+00 0.  1.
         24    1    1    2    0    0 -0.17466578200E+02  0.64911195044E+00  0.48629687061E+03  0.49321127828E+03  0.80419002446E+02 0.  1.
        -24    1    1    2    0    0  0.17466578200E+02 -0.64911195044E+00  0.34867057061E+03  0.35825114859E+03  0.80419002446E+02 0.  0.
<mgrwt>
<rscale>  0 0.82296529E+02</rscale>
<asrwt>0</asrwt>
<pdfrwt beam="1">  1        2 0.12972531E+00 0.82296529E+02</pdfrwt>
<pdfrwt beam="2">  1       -2 0.12688457E-02 0.82296529E+02</pdfrwt>
<totfact> 0.44356768E+04</totfact>
</mgrwt>
</event>
<event>
 4    1  0.5124795E-001  0.8090515E+02  0.7546771E-02  0.1326502E+00
         -1   -1    0    0    0  501 -0.00000000000E+00  0.00000000000E+00  0.65766870598E+01  0.65766870598E+01  0.00000000000E+00 0.  1.
          1   -1    0    0  501    0  0.00000000000E+00 -0.00000000000E+00 -0.10646641164E+04  0.10646641164E+04  0.00000000000E+00 0. -1.
         24    1    1    2    0    0  0.60699384638E+01  0.64484763259E+01 -0.39230803522E+03  0.40056364969E+03  0.80419002446E+02 0.  1.
        -24    1    1    2    0    0 -0.60699384638E+01 -0.64484763259E+01 -0.66577939409E+03  0.67067715374E+03  0.80419002446E+02 0.  0.
<mgrwt>
<rscale>  0 0.80905148E+02</rscale>
<asrwt>0</asrwt>
<pdfrwt beam="1">  1        1 0.16379458E+00 0.80905148E+02</pdfrwt>
<pdfrwt beam="2">  1       -1 0.10117974E-02 0.80905148E+02</pdfrwt>
<totfact> 0.24085632E+04</totfact>
</mgrwt>
</event>
<event>
 4    1  0.5124795E-001  0.1056031E+03  0.7546771E-02  0.1268936E+00
         -2   -1    0    0    0  501 -0.00000000000E+00  0.00000000000E+00  0.13960458823E+02  0.13960458823E+02  0.00000000000E+00 0.  1.
          2   -1    0    0  501    0  0.00000000000E+00 -0.00000000000E+00 -0.94069950860E+03  0.94069950860E+03  0.00000000000E+00 0. -1.
         24    1    1    2    0    0 -0.57254799119E+02  0.37505961679E+02 -0.64873919904E+03  0.65727815536E+03  0.80419002446E+02 0. -1.
        -24    1    1    2    0    0  0.57254799119E+02 -0.37505961679E+02 -0.27799985073E+03  0.29738181206E+03  0.80419002446E+02 0.  0.
<mgrwt>
<rscale>  0 0.10560315E+03</rscale>
<asrwt>0</asrwt>
<pdfrwt beam="1">  1        2 0.14472304E+00 0.10560315E+03</pdfrwt>
<pdfrwt beam="2">  1       -2 0.21477624E-02 0.10560315E+03</pdfrwt>
<totfact> 0.18607781E+04</totfact>
</mgrwt>
</event>
<event>
 4    1  0.5124795E-001  0.1003083E+03  0.7546771E-02  0.1279649E+00
         -1   -1    0    0    0  501 -0.00000000000E+00  0.00000000000E+00  0.28232666741E+02  0.28232666741E+02  0.00000000000E+00 0.  1.
          1   -1    0    0  501    0  0.00000000000E+00 -0.00000000000E+00 -0.38611131698E+03  0.38611131698E+03  0.00000000000E+00 0. -1.
         24    1    1    2    0    0  0.28230175686E+02 -0.52892236392E+02 -0.12145720510E+03  0.15752333197E+03  0.80419002446E+02 0.  1.
        -24    1    1    2    0    0 -0.28230175686E+02  0.52892236392E+02 -0.23642144514E+03  0.25682065175E+03  0.80419002446E+02 0. -1.
<mgrwt>
<rscale>  0 0.10030826E+03</rscale>
<asrwt>0</asrwt>
<pdfrwt beam="1">  1        1 0.59401743E-01 0.10030826E+03</pdfrwt>
<pdfrwt beam="2">  1       -1 0.43434870E-02 0.10030826E+03</pdfrwt>
<totfact> 0.12694964E+04</totfact>
</mgrwt>
</event>
<event>
 4    1  0.5124795E-001  0.9477526E+02  0.7546771E-02  0.1291683E+00
          1   -1    0    0  501    0  0.00000000000E+00  0.00000000000E+00  0.15837341854E+03  0.15837341854E+03  0.00000000000E+00 0. -1.
         -1   -1    0    0    0  501 -0.00000000000E+00 -0.00000000000E+00 -0.70702486526E+02  0.70702486526E+02  0.00000000000E+00 0.  1.
         24    1    1    2    0    0 -0.42680120218E+02  0.26335156963E+02 -0.71072669647E+01  0.95041371792E+02  0.80419002446E+02 0.  1.
        -24    1    1    2    0    0  0.42680120218E+02 -0.26335156963E+02  0.94778198982E+02  0.13403453328E+03  0.80419002446E+02 0. -1.
<mgrwt>
<rscale>  0 0.94775256E+02</rscale>
<asrwt>0</asrwt>
<pdfrwt beam="1">  1        1 0.24365141E-01 0.94775256E+02</pdfrwt>
<pdfrwt beam="2">  1       -1 0.10877306E-01 0.94775256E+02</pdfrwt>
<totfact> 0.96550664E+03</totfact>
</mgrwt>
</event>
<event>
 4    1  0.5124795E-001  0.1505872E+03  0.7546771E-02  0.1199753E+00
          2   -1    0    0  501    0  0.00000000000E+00  0.00000000000E+00  0.56960831712E+03  0.56960831712E+03  0.00000000000E+00 0. -1.
         -2   -1    0    0    0  501 -0.00000000000E+00 -0.00000000000E+00 -0.10524499197E+03  0.10524499197E+03  0.00000000000E+00 0.  1.
         24    1    1    2    0    0  0.11110065287E+03  0.62176572442E+02  0.49824278602E+03  0.52050203747E+03  0.80419002446E+02 0. -1.
        -24    1    1    2    0    0 -0.11110065287E+03 -0.62176572442E+02 -0.33879460875E+02  0.15435127163E+03  0.80419002446E+02 0.  1.
<mgrwt>
<rscale>  0 0.15058717E+03</rscale>
<asrwt>0</asrwt>
<pdfrwt beam="1">  1        2 0.87632047E-01 0.15058717E+03</pdfrwt>
<pdfrwt beam="2">  1       -2 0.16191538E-01 0.15058717E+03</pdfrwt>
<totfact> 0.15988318E+03</totfact>
</mgrwt>
</event>
<event>
 4    1  0.5124795E-001  0.9722656E+02  0.7546771E-02  0.1286239E+00
          2   -1    0    0  501    0  0.00000000000E+00  0.00000000000E+00  0.33210754023E+03  0.33210754023E+03  0.00000000000E+00 0. -1.
         -2   -1    0    0    0  501 -0.00000000000E+00 -0.00000000000E+00 -0.29083249878E+02  0.29083249878E+02  0.00000000000E+00 0.  1.
         24    1    1    2    0    0 -0.53026479503E+02 -0.13190182031E+02  0.17787112682E+03  0.20270950185E+03  0.80419002446E+02 0. -1.
        -24    1    1    2    0    0  0.53026479503E+02  0.13190182031E+02  0.12515316353E+03  0.15848128825E+03  0.80419002446E+02 0.  1.
<mgrwt>
<rscale>  0 0.97226562E+02</rscale>
<asrwt>0</asrwt>
<pdfrwt beam="1">  1        2 0.51093465E-01 0.97226562E+02</pdfrwt>
<pdfrwt beam="2">  1       -2 0.44743464E-02 0.97226562E+02</pdfrwt>
<totfact> 0.20534719E+04</totfact>
</mgrwt>
</event>
<event>
 4    1  0.5124795E-001  0.8567940E+02  0.7546771E-02  0.1313665E+00
         -1   -1    0    0    0  501 -0.00000000000E+00  0.00000000000E+00  0.14906904699E+02  0.14906904699E+02  0.00000000000E+00 0.  1.
          1   -1    0    0  501    0  0.00000000000E+00 -0.00000000000E+00 -0.67733588929E+03  0.67733588929E+03  0.00000000000E+00 0. -1.
         24    1    1    2    0    0  0.17988276197E+02  0.23455602889E+02 -0.15038301800E+03  0.17307805016E+03  0.80419002446E+02 0.  1.
        -24    1    1    2    0    0 -0.17988276197E+02 -0.23455602889E+02 -0.51204596659E+03  0.51916474384E+03  0.80419002446E+02 0. -1.
<mgrwt>
<rscale>  0 0.85679399E+02</rscale>
<asrwt>0</asrwt>
<pdfrwt beam="1">  1        1 0.10420549E+00 0.85679399E+02</pdfrwt>
<pdfrwt beam="2">  1       -1 0.22933706E-02 0.85679399E+02</pdfrwt>
<totfact> 0.15162574E+04</totfact>
</mgrwt>
</event>
<event>
 4    1  0.5124795E-001  0.1160766E+03  0.7546771E-02  0.1249714E+00
          2   -1    0    0  501    0  0.00000000000E+00  0.00000000000E+00  0.24852271837E+04  0.24852271837E+04  0.00000000000E+00 0. -1.
         -2   -1    0    0    0  501 -0.00000000000E+00 -0.00000000000E+00 -0.67014491362E+01  0.67014491362E+01  0.00000000000E+00 0.  1.
         24    1    1    2    0    0 -0.83597726346E+02 -0.42391522071E+01  0.17837784221E+04  0.17875511812E+04  0.80419002446E+02 0. -1.
        -24    1    1    2    0    0  0.83597726346E+02  0.42391522071E+01  0.69474731251E+03  0.70437745170E+03  0.80419002446E+02 0.  1.
<mgrwt>
<rscale>  0 0.11607655E+03</rscale>
<asrwt>0</asrwt>
<pdfrwt beam="1">  1        2 0.38234191E+00 0.11607655E+03</pdfrwt>
<pdfrwt beam="2">  1       -2 0.10309942E-02 0.11607655E+03</pdfrwt>
<totfact> 0.82482057E+03</totfact>
</mgrwt>
</event>
<event>
 4    1  0.5124795E-001  0.8827552E+02  0.7546771E-02  0.1307082E+00
          2   -1    0    0  501    0  0.00000000000E+00  0.00000000000E+00  0.20080234999E+04  0.20080234999E+04  0.00000000000E+00 0. -1.
         -2   -1    0    0    0  501 -0.00000000000E+00 -0.00000000000E+00 -0.38876757084E+01  0.38876757084E+01  0.00000000000E+00 0.  1.
         24    1    1    2    0    0 -0.14563747153E+02  0.33365384373E+02  0.10446327040E+04  0.10483558813E+04  0.80419002446E+02 0.  0.
        -24    1    1    2    0    0  0.14563747153E+02 -0.33365384373E+02  0.95950312020E+03  0.96355529433E+03  0.80419002446E+02 0. -1.
<mgrwt>
<rscale>  0 0.88275521E+02</rscale>
<asrwt>0</asrwt>
<pdfrwt beam="1">  1        2 0.30892586E+00 0.88275521E+02</pdfrwt>
<pdfrwt beam="2">  1       -2 0.59810556E-03 0.88275521E+02</pdfrwt>
<totfact> 0.30951516E+04</totfact>
</mgrwt>
</event>
<event>
 4    1  0.5124795E-001  0.9101683E+02  0.7546771E-02  0.1300408E+00
          1   -1    0    0  501    0  0.00000000000E+00  0.00000000000E+00  0.75688533938E+02  0.75688533938E+02  0.00000000000E+00 0. -1.
         -1   -1    0    0    0  501 -0.00000000000E+00 -0.00000000000E+00 -0.11109849671E+03  0.11109849671E+03  0.00000000000E+00 0.  1.
         24    1    1    2    0    0  0.32276624842E+02 -0.27840037071E+02 -0.29083521860E+02  0.95550590650E+02  0.80419002446E+02 0. -1.
        -24    1    1    2    0    0 -0.32276624842E+02  0.27840037071E+02 -0.63264409151E+01  0.91236440003E+02  0.80419002446E+02 0.  1.
<mgrwt>
<rscale>  0 0.91016834E+02</rscale>
<asrwt>0</asrwt>
<pdfrwt beam="1">  1        1 0.11644390E-01 0.91016834E+02</pdfrwt>
<pdfrwt beam="2">  1       -1 0.17092076E-01 0.91016834E+02</pdfrwt>
<totfact> 0.12244634E+04</totfact>
</mgrwt>
</event>
<event>
 4    1  0.5124795E-001  0.1265746E+03  0.7546771E-02  0.1232629E+00
         -1   -1    0    0    0  501 -0.00000000000E+00  0.00000000000E+00  0.35343672534E+02  0.35343672534E+02  0.00000000000E+00 0.  1.
          1   -1    0    0  501    0  0.00000000000E+00 -0.00000000000E+00 -0.46091367884E+03  0.46091367884E+03  0.00000000000E+00 0. -1.
         24    1    1    2    0    0 -0.97692839154E+02 -0.31659462595E+01 -0.18088498698E+03  0.22077252662E+03  0.80419002446E+02 0. -1.
        -24    1    1    2    0    0  0.97692839154E+02  0.31659462595E+01 -0.24468501932E+03  0.27548482476E+03  0.80419002446E+02 0.  1.
<mgrwt>
<rscale>  0 0.12657460E+03</rscale>
<asrwt>0</asrwt>
<pdfrwt beam="1">  1        1 0.70909799E-01 0.12657460E+03</pdfrwt>
<pdfrwt beam="2">  1       -1 0.54374879E-02 0.12657460E+03</pdfrwt>
<totfact> 0.74286870E+03</totfact>
</mgrwt>
</event>
<event>
 4    1  0.5124795E-001  0.1000470E+03  0.7546771E-02  0.1280197E+00
         -2   -1    0    0    0  501 -0.00000000000E+00  0.00000000000E+00  0.13803230635E+03  0.13803230635E+03  0.00000000000E+00 0.  1.
          2   -1    0    0  501    0  0.00000000000E+00 -0.00000000000E+00 -0.80531507464E+02  0.80531507464E+02  0.00000000000E+00 0. -1.
         24    1    1    2    0    0  0.55853225969E+01  0.59253613113E+02  0.63229820221E+02  0.11835291553E+03  0.80419002446E+02 0.  1.
        -24    1    1    2    0    0 -0.55853225969E+01 -0.59253613113E+02 -0.57290213309E+01  0.10021089829E+03  0.80419002446E+02 0. -1.
<mgrwt>
<rscale>  0 0.10004701E+03</rscale>
<asrwt>0</asrwt>
<pdfrwt beam="1">  1        2 0.12389463E-01 0.10004703E+03</pdfrwt>
<pdfrwt beam="2">  1       -2 0.21235739E-01 0.10004703E+03</pdfrwt>
<totfact> 0.85376711E+03</totfact>
</mgrwt>
</event>
<event>
 4    1  0.5124795E-001  0.1192608E+03  0.7546771E-02  0.1244321E+00
          1   -1    0    0  501    0  0.00000000000E+00  0.00000000000E+00  0.19889781063E+03  0.19889781063E+03  0.00000000000E+00 0. -1.
         -1   -1    0    0    0  501 -0.00000000000E+00 -0.00000000000E+00 -0.12620430285E+03  0.12620430285E+03  0.00000000000E+00 0.  1.
         24    1    1    2    0    0 -0.85400549246E+02  0.21509810555E+02 -0.70663297956E+02  0.13862338689E+03  0.80419002446E+02 0.  1.
        -24    1    1    2    0    0  0.85400549246E+02 -0.21509810555E+02  0.14335680574E+03  0.18647872658E+03  0.80419002446E+02 0. -1.
<mgrwt>
<rscale>  0 0.11926081E+03</rscale>
<asrwt>0</asrwt>
<pdfrwt beam="1">  1        1 0.30599663E-01 0.11926081E+03</pdfrwt>
<pdfrwt beam="2">  1       -1 0.19416047E-01 0.11926081E+03</pdfrwt>
<totfact> 0.30044968E+03</totfact>
</mgrwt>
</event>
<event>
 4    1  0.5124795E-001  0.9408523E+02  0.7546771E-02  0.1293250E+00
         -2   -1    0    0    0  501 -0.00000000000E+00  0.00000000000E+00  0.70570374174E+01  0.70570374174E+01  0.00000000000E+00 0.  1.
          2   -1    0    0  501    0  0.00000000000E+00 -0.00000000000E+00 -0.16168733784E+04  0.16168733784E+04  0.00000000000E+00 0. -1.
         24    1    1    2    0    0  0.20124039263E+02  0.44495357027E+02 -0.11893799509E+04  0.11930954267E+04  0.80419002446E+02 0. -1.
        -24    1    1    2    0    0 -0.20124039263E+02 -0.44495357027E+02 -0.42043639013E+03  0.43083498912E+03  0.80419002446E+02 0.  1.
<mgrwt>
<rscale>  0 0.94085226E+02</rscale>
<asrwt>0</asrwt>
<pdfrwt beam="1">  1        2 0.24874990E+00 0.94085226E+02</pdfrwt>
<pdfrwt beam="2">  1       -2 0.10856974E-02 0.94085226E+02</pdfrwt>
<totfact> 0.21075998E+04</totfact>
</mgrwt>
</event>
<event>
 4    1  0.5124795E-001  0.9044444E+02  0.7546771E-02  0.1301779E+00
         -2   -1    0    0    0  501 -0.00000000000E+00  0.00000000000E+00  0.36017378766E+01  0.36017378766E+01  0.00000000000E+00 0.  1.
          2   -1    0    0  501    0  0.00000000000E+00 -0.00000000000E+00 -0.22862017862E+04  0.22862017862E+04  0.00000000000E+00 0. -1.
         24    1    1    2    0    0  0.41380389057E+02 -0.79950980703E+00 -0.10484921505E+04  0.10523858519E+04  0.80419002446E+02 0. -1.
        -24    1    1    2    0    0 -0.41380389057E+02  0.79950980703E+00 -0.12341078979E+04  0.12374176722E+04  0.80419002446E+02 0.  0.
<mgrwt>
<rscale>  0 0.90444424E+02</rscale>
<asrwt>0</asrwt>
<pdfrwt beam="1">  1        2 0.35172386E+00 0.90444435E+02</pdfrwt>
<pdfrwt beam="2">  1       -2 0.55411271E-03 0.90444435E+02</pdfrwt>
<totfact> 0.24944628E+04</totfact>
</mgrwt>
</event>
<event>
 4    1  0.5124795E-001  0.8509990E+02  0.7546771E-02  0.1315171E+00
         -1   -1    0    0    0  501 -0.00000000000E+00  0.00000000000E+00  0.20680236078E+02  0.20680236078E+02  0.00000000000E+00 0.  1.
          1   -1    0    0  501    0  0.00000000000E+00 -0.00000000000E+00 -0.43311509245E+03  0.43311509245E+03  0.00000000000E+00 0. -1.
         24    1    1    2    0    0  0.26185353689E+02  0.94395204301E+01 -0.10693469904E+03  0.13666390564E+03  0.80419002446E+02 0. -1.
        -24    1    1    2    0    0 -0.26185353689E+02 -0.94395204301E+01 -0.30550015734E+03  0.31713142289E+03  0.80419002446E+02 0. -1.
<mgrwt>
<rscale>  0 0.85099902E+02</rscale>
<asrwt>0</asrwt>
<pdfrwt beam="1">  1        1 0.66633085E-01 0.85099902E+02</pdfrwt>
<pdfrwt beam="2">  1       -1 0.31815751E-02 0.85099902E+02</pdfrwt>
<totfact> 0.17010048E+04</totfact>
</mgrwt>
</event>
<event>
 4    1  0.5124795E-001  0.8859325E+02  0.7546771E-02  0.1306295E+00
         -2   -1    0    0    0  501 -0.00000000000E+00  0.00000000000E+00  0.92958180253E+01  0.92958180253E+01  0.00000000000E+00 0.  1.
          2   -1    0    0  501    0  0.00000000000E+00 -0.00000000000E+00 -0.26137371951E+04  0.26137371951E+04  0.00000000000E+00 0. -1.
         24    1    1    2    0    0  0.61381028307E+01  0.36658849926E+02 -0.23813074377E+04  0.23829548624E+04  0.80419002446E+02 0. -1.
        -24    1    1    2    0    0 -0.61381028307E+01 -0.36658849926E+02 -0.22313393934E+03  0.24007815066E+03  0.80419002446E+02 0.  1.
<mgrwt>
<rscale>  0 0.88593248E+02</rscale>
<asrwt>0</asrwt>
<pdfrwt beam="1">  1        2 0.40211357E+00 0.88593248E+02</pdfrwt>
<pdfrwt beam="2">  1       -2 0.14301253E-02 0.88593248E+02</pdfrwt>
<totfact> 0.44070528E+03</totfact>
</mgrwt>
</event>
<event>
 4    1  0.5124795E-001  0.8228956E+02  0.7546771E-02  0.1322677E+00
         -1   -1    0    0    0  501 -0.00000000000E+00  0.00000000000E+00  0.65429910214E+03  0.65429910214E+03  0.00000000000E+00 0.  1.
          1   -1    0    0  501    0  0.00000000000E+00 -0.00000000000E+00 -0.14562474112E+02  0.14562474112E+02  0.00000000000E+00 0. -1.
         24    1    1    2    0    0  0.14341893677E+02 -0.99330701409E+01  0.49975154939E+03  0.50648117722E+03  0.80419002446E+02 0.  0.
        -24    1    1    2    0    0 -0.14341893677E+02  0.99330701409E+01  0.13998507863E+03  0.16238039903E+03  0.80419002446E+02 0. -1.
<mgrwt>
<rscale>  0 0.82289560E+02</rscale>
<asrwt>0</asrwt>
<pdfrwt beam="1">  1        1 0.22403811E-02 0.82289560E+02</pdfrwt>
<pdfrwt beam="2">  1       -1 0.10066138E+00 0.82289560E+02</pdfrwt>
<totfact> 0.46936340E+03</totfact>
</mgrwt>
</event>
<event>
 4    1  0.5124795E-001  0.8493952E+02  0.7546771E-02  0.1315591E+00
         -2   -1    0    0    0  501 -0.00000000000E+00  0.00000000000E+00  0.21063833945E+02  0.21063833945E+02  0.00000000000E+00 0.  1.
          2   -1    0    0  501    0  0.00000000000E+00 -0.00000000000E+00 -0.75664396281E+03  0.75664396281E+03  0.00000000000E+00 0. -1.
         24    1    1    2    0    0 -0.43783361486E+01  0.26987690531E+02 -0.65546857730E+03  0.66094914861E+03  0.80419002446E+02 0. -1.
        -24    1    1    2    0    0  0.43783361486E+01 -0.26987690531E+02 -0.80111551562E+02  0.11675864814E+03  0.80419002446E+02 0.  1.
<mgrwt>
<rscale>  0 0.84939515E+02</rscale>
<asrwt>0</asrwt>
<pdfrwt beam="1">  1        2 0.11640675E+00 0.84939515E+02</pdfrwt>
<pdfrwt beam="2">  1       -2 0.32405902E-02 0.84939515E+02</pdfrwt>
<totfact> 0.13225611E+04</totfact>
</mgrwt>
</event>
<event>
 4    1  0.5124795E-001  0.8934478E+02  0.7546771E-02  0.1304446E+00
         -1   -1    0    0    0  501 -0.00000000000E+00  0.00000000000E+00  0.69468126445E+01  0.69468126445E+01  0.00000000000E+00 0.  1.
          1   -1    0    0  501    0  0.00000000000E+00 -0.00000000000E+00 -0.11728317599E+04  0.11728317599E+04  0.00000000000E+00 0. -1.
         24    1    1    2    0    0  0.27569177306E+02 -0.27481089139E+02 -0.66687782222E+03  0.67283617287E+03  0.80419002446E+02 0.  0.
        -24    1    1    2    0    0 -0.27569177306E+02  0.27481089139E+02 -0.49900712500E+03  0.50694239964E+03  0.80419002446E+02 0. -1.
<mgrwt>
<rscale>  0 0.89344769E+02</rscale>
<asrwt>0</asrwt>
<pdfrwt beam="1">  1        1 0.18043565E+00 0.89344780E+02</pdfrwt>
<pdfrwt beam="2">  1       -1 0.10687404E-02 0.89344780E+02</pdfrwt>
<totfact> 0.18957424E+04</totfact>
</mgrwt>
</event>
<event>
 4    1  0.5124795E-001  0.8753234E+02  0.7546771E-02  0.1308940E+00
          2   -1    0    0  501    0  0.00000000000E+00  0.00000000000E+00  0.10834697637E+04  0.10834697637E+04  0.00000000000E+00 0. -1.
         -2   -1    0    0    0  501 -0.00000000000E+00 -0.00000000000E+00 -0.71475807742E+01  0.71475807742E+01  0.00000000000E+00 0.  1.
         24    1    1    2    0    0 -0.33982269872E+02  0.63163684121E+01  0.48195246270E+03  0.48983679264E+03  0.80419002446E+02 0.  1.
        -24    1    1    2    0    0  0.33982269872E+02 -0.63163684121E+01  0.59436972021E+03  0.60078055181E+03  0.80419002446E+02 0. -1.
<mgrwt>
<rscale>  0 0.87532331E+02</rscale>
<asrwt>0</asrwt>
<pdfrwt beam="1">  1        2 0.16668753E+00 0.87532342E+02</pdfrwt>
<pdfrwt beam="2">  1       -2 0.10996287E-02 0.87532342E+02</pdfrwt>
<totfact> 0.39304658E+04</totfact>
</mgrwt>
</event>
<event>
 4    1  0.5124795E-001  0.8207168E+02  0.7546771E-02  0.1323273E+00
          1   -1    0    0  501    0  0.00000000000E+00  0.00000000000E+00  0.16569411583E+04  0.16569411583E+04  0.00000000000E+00 0. -1.
         -1   -1    0    0    0  501 -0.00000000000E+00 -0.00000000000E+00 -0.11054103423E+02  0.11054103423E+02  0.00000000000E+00 0.  1.
         24    1    1    2    0    0  0.16199498053E+02 -0.24739747108E+01  0.15979888134E+03  0.17964254151E+03  0.80419002446E+02 0.  1.
        -24    1    1    2    0    0 -0.16199498053E+02  0.24739747108E+01  0.14860881735E+04  0.14883527202E+04  0.80419002446E+02 0. -1.
<mgrwt>
<rscale>  0 0.82071677E+02</rscale>
<asrwt>0</asrwt>
<pdfrwt beam="1">  1        1 0.25491383E+00 0.82071677E+02</pdfrwt>
<pdfrwt beam="2">  1       -1 0.17006326E-02 0.82071677E+02</pdfrwt>
<totfact> 0.47564738E+03</totfact>
</mgrwt>
</event>
<event>
 4    1  0.5124795E-001  0.1083357E+03  0.7546771E-02  0.1263683E+00
          2   -1    0    0  501    0  0.00000000000E+00  0.00000000000E+00  0.27742825858E+04  0.27742825858E+04  0.00000000000E+00 0. -1.
         -2   -1    0    0    0  501 -0.00000000000E+00 -0.00000000000E+00 -0.44214953004E+01  0.44214953004E+01  0.00000000000E+00 0.  1.
         24    1    1    2    0    0 -0.41310380351E+01 -0.72472974595E+02  0.16736888963E+04  0.16771914426E+04  0.80419002446E+02 0. -1.
        -24    1    1    2    0    0  0.41310380351E+01  0.72472974595E+02  0.10961721941E+04  0.11015126385E+04  0.80419002446E+02 0.  1.
<mgrwt>
<rscale>  0 0.10833565E+03</rscale>
<asrwt>0</asrwt>
<pdfrwt beam="1">  1        2 0.42681131E+00 0.10833565E+03</pdfrwt>
<pdfrwt beam="2">  1       -2 0.68023226E-03 0.10833565E+03</pdfrwt>
<totfact> 0.10378541E+04</totfact>
</mgrwt>
</event>
<event>
 4    1  0.5124795E-001  0.9861566E+02  0.7546771E-02  0.1283234E+00
         -3   -1    0    0    0  501 -0.00000000000E+00  0.00000000000E+00  0.91315646378E+01  0.91315646378E+01  0.00000000000E+00 0.  1.
          3   -1    0    0  501    0  0.00000000000E+00 -0.00000000000E+00 -0.10961405135E+04  0.10961405135E+04  0.00000000000E+00 0. -1.
         24    1    1    2    0    0  0.19325702290E+02  0.53706139464E+02 -0.45034628345E+03  0.46101716146E+03  0.80419002446E+02 0.  1.
        -24    1    1    2    0    0 -0.19325702290E+02 -0.53706139464E+02 -0.63666266543E+03  0.64425491670E+03  0.80419002446E+02 0.  0.
<mgrwt>
<rscale>  0 0.98615659E+02</rscale>
<asrwt>0</asrwt>
<pdfrwt beam="1">  1        3 0.16863709E+00 0.98615659E+02</pdfrwt>
<pdfrwt beam="2">  1       -3 0.14048554E-02 0.98615659E+02</pdfrwt>
<totfact> 0.91665245E+02</totfact>
</mgrwt>
</event>
<event>
 4    1  0.5124795E-001  0.1359901E+03  0.7546771E-02  0.1218829E+00
         -2   -1    0    0    0  501 -0.00000000000E+00  0.00000000000E+00  0.23428371238E+02  0.23428371238E+02  0.00000000000E+00 0.  1.
          2   -1    0    0  501    0  0.00000000000E+00 -0.00000000000E+00 -0.99971679619E+03  0.99971679619E+03  0.00000000000E+00 0. -1.
         24    1    1    2    0    0  0.51751083610E+02 -0.96684675874E+02 -0.72281094898E+03  0.73549234199E+03  0.80419002446E+02 0. -1.
        -24    1    1    2    0    0 -0.51751083610E+02  0.96684675874E+02 -0.25347747597E+03  0.28765282544E+03  0.80419002446E+02 0.  1.
<mgrwt>
<rscale>  0 0.13599014E+03</rscale>
<asrwt>0</asrwt>
<pdfrwt beam="1">  1        2 0.15380257E+00 0.13599014E+03</pdfrwt>
<pdfrwt beam="2">  1       -2 0.36043652E-02 0.13599014E+03</pdfrwt>
<totfact> 0.81766785E+03</totfact>
</mgrwt>
</event>
<event>
 4    1  0.5124795E-001  0.9972090E+02  0.7546771E-02  0.1280884E+00
         -1   -1    0    0    0  501 -0.00000000000E+00  0.00000000000E+00  0.39217813016E+03  0.39217813016E+03  0.00000000000E+00 0.  1.
          1   -1    0    0  501    0  0.00000000000E+00 -0.00000000000E+00 -0.25666891797E+02  0.25666891797E+02  0.00000000000E+00 0. -1.
         24    1    1    2    0    0 -0.41103326899E+02  0.42279533504E+02  0.20623112455E+03  0.22907539179E+03  0.80419002446E+02 0.  0.
        -24    1    1    2    0    0  0.41103326899E+02 -0.42279533504E+02  0.16028011381E+03  0.18876963017E+03  0.80419002446E+02 0. -1.
<mgrwt>
<rscale>  0 0.99720902E+02</rscale>
<asrwt>0</asrwt>
<pdfrwt beam="1">  1        1 0.39487529E-02 0.99720902E+02</pdfrwt>
<pdfrwt beam="2">  1       -1 0.60335093E-01 0.99720902E+02</pdfrwt>
<totfact> 0.61693610E+03</totfact>
</mgrwt>
</event>
<event>
 4    1  0.5124795E-001  0.8330650E+02  0.7546771E-02  0.1319922E+00
          3   -1    0    0  501    0  0.00000000000E+00  0.00000000000E+00  0.26744751993E+02  0.26744751993E+02  0.00000000000E+00 0. -1.
         -3   -1    0    0    0  501 -0.00000000000E+00 -0.00000000000E+00 -0.40173016807E+03  0.40173016807E+03  0.00000000000E+00 0.  1.
         24    1    1    2    0    0  0.17004498435E+02  0.13550070766E+02 -0.31497227866E+03  0.32580286933E+03  0.80419002446E+02 0.  0.
        -24    1    1    2    0    0 -0.17004498435E+02 -0.13550070766E+02 -0.60013137416E+02  0.10267205073E+03  0.80419002446E+02 0.  0.
<mgrwt>
<rscale>  0 0.83306502E+02</rscale>
<asrwt>0</asrwt>
<pdfrwt beam="1">  1        3 0.41145774E-02 0.83306502E+02</pdfrwt>
<pdfrwt beam="2">  1       -3 0.61804638E-01 0.83306502E+02</pdfrwt>
<totfact> 0.16828619E+03</totfact>
</mgrwt>
</event>
<event>
 4    1  0.5124795E-001  0.1165429E+03  0.7546771E-02  0.1248912E+00
         -2   -1    0    0    0  501 -0.00000000000E+00  0.00000000000E+00  0.43839447616E+02  0.43839447616E+02  0.00000000000E+00 0.  1.
          2   -1    0    0  501    0  0.00000000000E+00 -0.00000000000E+00 -0.36485402997E+03  0.36485402997E+03  0.00000000000E+00 0. -1.
         24    1    1    2    0    0  0.24769189242E+01 -0.84314263491E+02 -0.23987284205E+03  0.26668563228E+03  0.80419002446E+02 0. -1.
        -24    1    1    2    0    0 -0.24769189242E+01  0.84314263491E+02 -0.81141740302E+02  0.14200784531E+03  0.80419002446E+02 0.  1.
<mgrwt>
<rscale>  0 0.11654289E+03</rscale>
<asrwt>0</asrwt>
<pdfrwt beam="1">  1        2 0.56131393E-01 0.11654289E+03</pdfrwt>
<pdfrwt beam="2">  1       -2 0.67445299E-02 0.11654289E+03</pdfrwt>
<totfact> 0.10215185E+04</totfact>
</mgrwt>
</event>
<event>
 4    1  0.5124795E-001  0.8662851E+02  0.7546771E-02  0.1311228E+00
         -2   -1    0    0    0  501 -0.00000000000E+00  0.00000000000E+00  0.48890552516E+03  0.48890552516E+03  0.00000000000E+00 0.  1.
          2   -1    0    0  501    0  0.00000000000E+00 -0.00000000000E+00 -0.41015671160E+02  0.41015671160E+02  0.00000000000E+00 0. -1.
         24    1    1    2    0    0 -0.29285929672E+02  0.13402129692E+02  0.14347388930E+02  0.87808577488E+02  0.80419002446E+02 0. -1.
        -24    1    1    2    0    0  0.29285929672E+02 -0.13402129692E+02  0.43354246507E+03  0.44211261884E+03  0.80419002446E+02 0.  1.
<mgrwt>
<rscale>  0 0.86628510E+02</rscale>
<asrwt>0</asrwt>
<pdfrwt beam="1">  1        2 0.63101036E-02 0.86628510E+02</pdfrwt>
<pdfrwt beam="2">  1       -2 0.75216231E-01 0.86628510E+02</pdfrwt>
<totfact> 0.17690949E+03</totfact>
</mgrwt>
</event>
<event>
 4    1  0.5124795E-001  0.1210078E+03  0.7546771E-02  0.1241444E+00
          2   -1    0    0  501    0  0.00000000000E+00  0.00000000000E+00  0.20353430809E+03  0.20353430809E+03  0.00000000000E+00 0. -1.
         -2   -1    0    0    0  501 -0.00000000000E+00 -0.00000000000E+00 -0.11727660967E+03  0.11727660967E+03  0.00000000000E+00 0.  1.
         24    1    1    2    0    0 -0.83201369730E+02  0.35400591698E+02  0.14285824597E+03  0.18722009564E+03  0.80419002446E+02 0. -1.
        -24    1    1    2    0    0  0.83201369730E+02 -0.35400591698E+02 -0.56600547545E+02  0.13359082212E+03  0.80419002446E+02 0.  1.
<mgrwt>
<rscale>  0 0.12100779E+03</rscale>
<asrwt>0</asrwt>
<pdfrwt beam="1">  1        2 0.31312970E-01 0.12100779E+03</pdfrwt>
<pdfrwt beam="2">  1       -2 0.18042555E-01 0.12100779E+03</pdfrwt>
<totfact> 0.40017035E+03</totfact>
</mgrwt>
</event>
<event>
 4    1  0.5124795E-001  0.1031595E+03  0.7546771E-02  0.1273789E+00
         -1   -1    0    0    0  501 -0.00000000000E+00  0.00000000000E+00  0.27656472155E+02  0.27656472155E+02  0.00000000000E+00 0.  1.
          1   -1    0    0  501    0  0.00000000000E+00 -0.00000000000E+00 -0.43580548451E+03  0.43580548451E+03  0.00000000000E+00 0. -1.
         24    1    1    2    0    0  0.28075092384E+02 -0.58193318831E+02 -0.12478866253E+03  0.16190768796E+03  0.80419002446E+02 0.  1.
        -24    1    1    2    0    0 -0.28075092384E+02  0.58193318831E+02 -0.28336034982E+03  0.30155426871E+03  0.80419002446E+02 0. -1.
<mgrwt>
<rscale>  0 0.10315953E+03</rscale>
<asrwt>0</asrwt>
<pdfrwt beam="1">  1        1 0.67046994E-01 0.10315953E+03</pdfrwt>
<pdfrwt beam="2">  1       -1 0.42548421E-02 0.10315953E+03</pdfrwt>
<totfact> 0.11270455E+04</totfact>
</mgrwt>
</event>
<event>
 4    1  0.5124795E-001  0.1157107E+03  0.7546771E-02  0.1250346E+00
          1   -1    0    0  501    0  0.00000000000E+00  0.00000000000E+00  0.88874288132E+02  0.88874288132E+02  0.00000000000E+00 0. -1.
         -1   -1    0    0    0  501 -0.00000000000E+00 -0.00000000000E+00 -0.38978127247E+03  0.38978127247E+03  0.00000000000E+00 0.  1.
         24    1    1    2    0    0  0.77871453613E+02 -0.29288021775E+02 -0.33790987994E+03  0.35717230355E+03  0.80419002446E+02 0.  1.
        -24    1    1    2    0    0 -0.77871453613E+02  0.29288021775E+02  0.37002895600E+02  0.12148325705E+03  0.80419002446E+02 0. -1.
<mgrwt>
<rscale>  0 0.11571071E+03</rscale>
<asrwt>0</asrwt>
<pdfrwt beam="1">  1        1 0.13672967E-01 0.11571071E+03</pdfrwt>
<pdfrwt beam="2">  1       -1 0.59966349E-01 0.11571071E+03</pdfrwt>
<totfact> 0.11998078E+03</totfact>
</mgrwt>
</event>
<event>
 4    1  0.5124795E-001  0.8455586E+02  0.7546771E-02  0.1316598E+00
          2   -1    0    0  501    0  0.00000000000E+00  0.00000000000E+00  0.16142278975E+03  0.16142278975E+03  0.00000000000E+00 0. -1.
         -2   -1    0    0    0  501 -0.00000000000E+00 -0.00000000000E+00 -0.15899119475E+03  0.15899119475E+03  0.00000000000E+00 0.  1.
         24    1    1    2    0    0 -0.50171465733E+00 -0.26119460598E+02  0.13728994892E+03  0.16123964764E+03  0.80419002446E+02 0. -1.
        -24    1    1    2    0    0  0.50171465733E+00  0.26119460598E+02 -0.13485835393E+03  0.15917433687E+03  0.80419002446E+02 0.  1.
<mgrwt>
<rscale>  0 0.84555863E+02</rscale>
<asrwt>0</asrwt>
<pdfrwt beam="1">  1        2 0.24834275E-01 0.84555863E+02</pdfrwt>
<pdfrwt beam="2">  1       -2 0.24460184E-01 0.84555863E+02</pdfrwt>
<totfact> 0.30061459E+03</totfact>
</mgrwt>
</event>
<event>
 4    1  0.5124795E-001  0.1102495E+03  0.7546771E-02  0.1260109E+00
         -4   -1    0    0    0  501 -0.00000000000E+00  0.00000000000E+00  0.78375058381E+02  0.78375058381E+02  0.00000000000E+00 0.  1.
          4   -1    0    0  501    0  0.00000000000E+00 -0.00000000000E+00 -0.15780329853E+03  0.15780329853E+03  0.00000000000E+00 0. -1.
         24    1    1    2    0    0 -0.11257565414E+02 -0.74572109267E+02 -0.24220768838E+02  0.11287866874E+03  0.80419002446E+02 0. -1.
        -24    1    1    2    0    0  0.11257565414E+02  0.74572109267E+02 -0.55207471313E+02  0.12329968817E+03  0.80419002446E+02 0.  0.
<mgrwt>
<rscale>  0 0.11024950E+03</rscale>
<asrwt>0</asrwt>
<pdfrwt beam="1">  1        4 0.24277430E-01 0.11024951E+03</pdfrwt>
<pdfrwt beam="2">  1       -4 0.12057701E-01 0.11024951E+03</pdfrwt>
<totfact> 0.13701229E+03</totfact>
</mgrwt>
</event>
<event>
 4    1  0.5124795E-001  0.8820504E+02  0.7546771E-02  0.1307258E+00
          2   -1    0    0  501    0  0.00000000000E+00  0.00000000000E+00  0.31515614602E+03  0.31515614602E+03  0.00000000000E+00 0. -1.
         -2   -1    0    0    0  501 -0.00000000000E+00 -0.00000000000E+00 -0.46890569584E+02  0.46890569584E+02  0.00000000000E+00 0.  1.
         24    1    1    2    0    0  0.28043961661E+02 -0.22944501517E+02  0.25870101800E+03  0.27332461763E+03  0.80419002446E+02 0. -1.
        -24    1    1    2    0    0 -0.28043961661E+02  0.22944501517E+02  0.95645584336E+01  0.88722097969E+02  0.80419002446E+02 0.  1.
<mgrwt>
<rscale>  0 0.88205045E+02</rscale>
<asrwt>0</asrwt>
<pdfrwt beam="1">  1        2 0.48485560E-01 0.88205045E+02</pdfrwt>
<pdfrwt beam="2">  1       -2 0.72139340E-02 0.88205045E+02</pdfrwt>
<totfact> 0.10512607E+04</totfact>
</mgrwt>
</event>
<event>
 4    1  0.5124795E-001  0.1254578E+03  0.7546771E-02  0.1234356E+00
         -1   -1    0    0    0  501 -0.00000000000E+00  0.00000000000E+00  0.97427806214E+02  0.97427806214E+02  0.00000000000E+00 0.  1.
          1   -1    0    0  501    0  0.00000000000E+00 -0.00000000000E+00 -0.19651205910E+03  0.19651205910E+03  0.00000000000E+00 0. -1.
         24    1    1    2    0    0  0.68587428308E+02  0.67588544255E+02  0.12447584530E+02  0.12607380755E+03  0.80419002446E+02 0.  1.
        -24    1    1    2    0    0 -0.68587428308E+02 -0.67588544255E+02 -0.11153183742E+03  0.16786605776E+03  0.80419002446E+02 0. -1.
<mgrwt>
<rscale>  0 0.12545781E+03</rscale>
<asrwt>0</asrwt>
<pdfrwt beam="1">  1        1 0.30232624E-01 0.12545781E+03</pdfrwt>
<pdfrwt beam="2">  1       -1 0.14988893E-01 0.12545781E+03</pdfrwt>
<totfact> 0.46020667E+03</totfact>
</mgrwt>
</event>
<event>
 4    1  0.5124795E-001  0.1389870E+03  0.7546771E-02  0.1214699E+00
         -1   -1    0    0    0  501 -0.00000000000E+00  0.00000000000E+00  0.23378437302E+03  0.23378437302E+03  0.00000000000E+00 0.  1.
          1   -1    0    0  501    0  0.00000000000E+00 -0.00000000000E+00 -0.17900395676E+03  0.17900395676E+03  0.00000000000E+00 0. -1.
         24    1    1    2    0    0  0.79094747021E+02 -0.81204627953E+02  0.17883279796E+03  0.22649184574E+03  0.80419002446E+02 0. -1.
        -24    1    1    2    0    0 -0.79094747021E+02  0.81204627953E+02 -0.12405238169E+03  0.18629648404E+03  0.80419002446E+02 0.  0.
<mgrwt>
<rscale>  0 0.13898700E+03</rscale>
<asrwt>0</asrwt>
<pdfrwt beam="1">  1        1 0.27539070E-01 0.13898700E+03</pdfrwt>
<pdfrwt beam="2">  1       -1 0.35966827E-01 0.13898700E+03</pdfrwt>
<totfact> 0.12425694E+03</totfact>
</mgrwt>
</event>
<event>
 4    1  0.5124795E-001  0.8415220E+02  0.7546771E-02  0.1317665E+00
         -1   -1    0    0    0  501 -0.00000000000E+00  0.00000000000E+00  0.11576758006E+02  0.11576758006E+02  0.00000000000E+00 0.  1.
          1   -1    0    0  501    0  0.00000000000E+00 -0.00000000000E+00 -0.95171711522E+03  0.95171711522E+03  0.00000000000E+00 0. -1.
         24    1    1    2    0    0 -0.19697576210E+02  0.15046009528E+02 -0.18218434977E+03  0.20068066715E+03  0.80419002446E+02 0.  1.
        -24    1    1    2    0    0  0.19697576210E+02 -0.15046009528E+02 -0.75795600744E+03  0.76261320608E+03  0.80419002446E+02 0. -1.
<mgrwt>
<rscale>  0 0.84152201E+02</rscale>
<asrwt>0</asrwt>
<pdfrwt beam="1">  1        1 0.14641809E+00 0.84152201E+02</pdfrwt>
<pdfrwt beam="2">  1       -1 0.17810388E-02 0.84152201E+02</pdfrwt>
<totfact> 0.13092622E+04</totfact>
</mgrwt>
</event>
<event>
 4    1  0.5124795E-001  0.8070636E+02  0.7546771E-02  0.1327059E+00
         -4   -1    0    0    0  501 -0.00000000000E+00  0.00000000000E+00  0.34531998363E+02  0.34531998363E+02  0.00000000000E+00 0.  1.
          4   -1    0    0  501    0  0.00000000000E+00 -0.00000000000E+00 -0.24514485799E+03  0.24514485799E+03  0.00000000000E+00 0. -1.
         24    1    1    2    0    0 -0.35331681592E+01 -0.58152824480E+01 -0.17245313889E+03  0.19040378635E+03  0.80419002446E+02 0.  0.
        -24    1    1    2    0    0  0.35331681592E+01  0.58152824480E+01 -0.38159720735E+02  0.89273070005E+02  0.80419002446E+02 0.  1.
<mgrwt>
<rscale>  0 0.80706361E+02</rscale>
<asrwt>0</asrwt>
<pdfrwt beam="1">  1        4 0.37714593E-01 0.80706361E+02</pdfrwt>
<pdfrwt beam="2">  1       -4 0.53126152E-02 0.80706361E+02</pdfrwt>
<totfact> 0.21303309E+03</totfact>
</mgrwt>
</event>
<event>
 4    1  0.5124795E-001  0.8221780E+02  0.7546771E-02  0.1322873E+00
          1   -1    0    0  501    0  0.00000000000E+00  0.00000000000E+00  0.63149960482E+03  0.63149960482E+03  0.00000000000E+00 0. -1.
         -1   -1    0    0    0  501 -0.00000000000E+00 -0.00000000000E+00 -0.50632113158E+02  0.50632113158E+02  0.00000000000E+00 0.  1.
         24    1    1    2    0    0 -0.36196274670E+01 -0.16716750128E+02 -0.12440908019E+02  0.83153734640E+02  0.80419002446E+02 0.  0.
        -24    1    1    2    0    0  0.36196274670E+01  0.16716750128E+02  0.59330839968E+03  0.59897798334E+03  0.80419002446E+02 0. -1.
<mgrwt>
<rscale>  0 0.82217805E+02</rscale>
<asrwt>0</asrwt>
<pdfrwt beam="1">  1        1 0.97153779E-01 0.82217805E+02</pdfrwt>
<pdfrwt beam="2">  1       -1 0.77895564E-02 0.82217805E+02</pdfrwt>
<totfact> 0.28145588E+03</totfact>
</mgrwt>
</event>
<event>
 4    1  0.5124795E-001  0.8526890E+02  0.7546771E-02  0.1314731E+00
         -1   -1    0    0    0  501 -0.00000000000E+00  0.00000000000E+00  0.13506197763E+02  0.13506197763E+02  0.00000000000E+00 0.  1.
          1   -1    0    0  501    0  0.00000000000E+00 -0.00000000000E+00 -0.63004516298E+03  0.63004516298E+03  0.00000000000E+00 0. -1.
         24    1    1    2    0    0  0.10893607017E+02  0.26170582908E+02 -0.18550043274E+03  0.20415973301E+03  0.80419002446E+02 0.  1.
        -24    1    1    2    0    0 -0.10893607017E+02 -0.26170582908E+02 -0.43103853248E+03  0.43939162773E+03  0.80419002446E+02 0. -1.
<mgrwt>
<rscale>  0 0.85268904E+02</rscale>
<asrwt>0</asrwt>
<pdfrwt beam="1">  1        1 0.96930008E-01 0.85268904E+02</pdfrwt>
<pdfrwt beam="2">  1       -1 0.20778769E-02 0.85268904E+02</pdfrwt>
<totfact> 0.19267406E+04</totfact>
</mgrwt>
</event>
<event>
 4    1  0.5124795E-001  0.8965570E+02  0.7546771E-02  0.1303688E+00
         -1   -1    0    0    0  501 -0.00000000000E+00  0.00000000000E+00  0.64487831032E+01  0.64487831032E+01  0.00000000000E+00 0.  1.
          1   -1    0    0  501    0  0.00000000000E+00 -0.00000000000E+00 -0.25816603882E+04  0.25816603882E+04  0.00000000000E+00 0. -1.
         24    1    1    2    0    0 -0.19778155947E+02  0.34347539354E+02 -0.35697719288E+03  0.36806366447E+03  0.80419002446E+02 0.  1.
        -24    1    1    2    0    0  0.19778155947E+02 -0.34347539354E+02 -0.22182344122E+04  0.22200455068E+04  0.80419002446E+02 0. -1.
<mgrwt>
<rscale>  0 0.89655702E+02</rscale>
<asrwt>0</asrwt>
<pdfrwt beam="1">  1        1 0.39717870E+00 0.89655702E+02</pdfrwt>
<pdfrwt beam="2">  1       -1 0.99212003E-03 0.89655702E+02</pdfrwt>
<totfact> 0.26639964E+03</totfact>
</mgrwt>
</event>
<event>
 4    1  0.5124795E-001  0.9021728E+02  0.7546771E-02  0.1302326E+00
          1   -1    0    0  501    0  0.00000000000E+00  0.00000000000E+00  0.23123564703E+03  0.23123564703E+03  0.00000000000E+00 0. -1.
         -1   -1    0    0    0  501 -0.00000000000E+00 -0.00000000000E+00 -0.15681632294E+03  0.15681632294E+03  0.00000000000E+00 0.  1.
         24    1    1    2    0    0  0.76767730981E+01  0.40162271564E+02 -0.13365915282E+03  0.16125732848E+03  0.80419002446E+02 0.  1.
        -24    1    1    2    0    0 -0.76767730981E+01 -0.40162271564E+02  0.20807847691E+03  0.22679464149E+03  0.80419002446E+02 0. -1.
<mgrwt>
<rscale>  0 0.90217276E+02</rscale>
<asrwt>0</asrwt>
<pdfrwt beam="1">  1        1 0.35574715E-01 0.90217276E+02</pdfrwt>
<pdfrwt beam="2">  1       -1 0.24125588E-01 0.90217276E+02</pdfrwt>
<totfact> 0.17390971E+03</totfact>
</mgrwt>
</event>
<event>
 4    1  0.5124795E-001  0.1017528E+03  0.7546771E-02  0.1276653E+00
         -2   -1    0    0    0  501 -0.00000000000E+00  0.00000000000E+00  0.37015469131E+02  0.37015469131E+02  0.00000000000E+00 0.  1.
          2   -1    0    0  501    0  0.00000000000E+00 -0.00000000000E+00 -0.34117672546E+03  0.34117672546E+03  0.00000000000E+00 0. -1.
         24    1    1    2    0    0 -0.43044138124E+02  0.45095716492E+02 -0.23234245404E+03  0.25364670977E+03  0.80419002446E+02 0.  1.
        -24    1    1    2    0    0  0.43044138124E+02 -0.45095716492E+02 -0.71818802285E+02  0.12454548482E+03  0.80419002446E+02 0.  0.
<mgrwt>
<rscale>  0 0.10175283E+03</rscale>
<asrwt>0</asrwt>
<pdfrwt beam="1">  1        2 0.52488727E-01 0.10175283E+03</pdfrwt>
<pdfrwt beam="2">  1       -2 0.56946876E-02 0.10175283E+03</pdfrwt>
<totfact> 0.13996974E+04</totfact>
</mgrwt>
</event>
<event>
 4    1  0.5124795E-001  0.9682868E+02  0.7546771E-02  0.1287110E+00
          2   -1    0    0  501    0  0.00000000000E+00  0.00000000000E+00  0.29973817460E+03  0.29973817460E+03  0.00000000000E+00 0. -1.
         -2   -1    0    0    0  501 -0.00000000000E+00 -0.00000000000E+00 -0.87200352162E+02  0.87200352162E+02  0.00000000000E+00 0.  1.
         24    1    1    2    0    0 -0.49279769078E+02  0.21910767723E+02  0.26119980446E+03  0.27856979589E+03  0.80419002446E+02 0. -1.
        -24    1    1    2    0    0  0.49279769078E+02 -0.21910767723E+02 -0.48661982014E+02  0.10836873087E+03  0.80419002446E+02 0.  1.
<mgrwt>
<rscale>  0 0.96828680E+02</rscale>
<asrwt>0</asrwt>
<pdfrwt beam="1">  1        2 0.46113565E-01 0.96828680E+02</pdfrwt>
<pdfrwt beam="2">  1       -2 0.13415439E-01 0.96828680E+02</pdfrwt>
<totfact> 0.42506002E+03</totfact>
</mgrwt>
</event>
<event>
 4    1  0.5124795E-001  0.1044780E+03  0.7546771E-02  0.1271152E+00
         -2   -1    0    0    0  501 -0.00000000000E+00  0.00000000000E+00  0.19114724580E+02  0.19114724580E+02  0.00000000000E+00 0.  1.
          2   -1    0    0  501    0  0.00000000000E+00 -0.00000000000E+00 -0.58860007732E+03  0.58860007732E+03  0.00000000000E+00 0. -1.
         24    1    1    2    0    0 -0.49443488247E+02  0.44763518543E+02 -0.23228847277E+03  0.25470292825E+03  0.80419002446E+02 0.  1.
        -24    1    1    2    0    0  0.49443488247E+02 -0.44763518543E+02 -0.33719687997E+03  0.35301187365E+03  0.80419002446E+02 0. -1.
<mgrwt>
<rscale>  0 0.10447799E+03</rscale>
<asrwt>0</asrwt>
<pdfrwt beam="1">  1        2 0.90553856E-01 0.10447800E+03</pdfrwt>
<pdfrwt beam="2">  1       -2 0.29407269E-02 0.10447800E+03</pdfrwt>
<totfact> 0.20729841E+04</totfact>
</mgrwt>
</event>
<event>
 4    1  0.5124795E-001  0.9064992E+02  0.7546771E-02  0.1301285E+00
         -2   -1    0    0    0  501 -0.00000000000E+00  0.00000000000E+00  0.45158374459E+02  0.45158374459E+02  0.00000000000E+00 0.  1.
          2   -1    0    0  501    0  0.00000000000E+00 -0.00000000000E+00 -0.19152537182E+03  0.19152537182E+03  0.00000000000E+00 0. -1.
         24    1    1    2    0    0 -0.38337104213E+02  0.16746917028E+02 -0.99618516021E+02  0.13468948540E+03  0.80419002446E+02 0.  0.
        -24    1    1    2    0    0  0.38337104213E+02 -0.16746917028E+02 -0.46748481335E+02  0.10199426087E+03  0.80419002446E+02 0.  1.
<mgrwt>
<rscale>  0 0.90649924E+02</rscale>
<asrwt>0</asrwt>
<pdfrwt beam="1">  1        2 0.29465442E-01 0.90649924E+02</pdfrwt>
<pdfrwt beam="2">  1       -2 0.69474421E-02 0.90649924E+02</pdfrwt>
<totfact> 0.18856528E+04</totfact>
</mgrwt>
</event>
<event>
 4    1  0.5124795E-001  0.2210735E+03  0.7546771E-02  0.1133085E+00
         -2   -1    0    0    0  501 -0.00000000000E+00  0.00000000000E+00  0.72381144902E+02  0.72381144902E+02  0.00000000000E+00 0.  1.
          2   -1    0    0  501    0  0.00000000000E+00 -0.00000000000E+00 -0.97094714575E+03  0.97094714575E+03  0.00000000000E+00 0. -1.
         24    1    1    2    0    0 -0.14046463853E+03  0.15058537065E+03 -0.73717915850E+03  0.76961457640E+03  0.80419002446E+02 0. -1.
        -24    1    1    2    0    0  0.14046463853E+03 -0.15058537065E+03 -0.16138684235E+03  0.27371371425E+03  0.80419002446E+02 0.  1.
<mgrwt>
<rscale>  0 0.22107348E+03</rscale>
<asrwt>0</asrwt>
<pdfrwt beam="1">  1        2 0.14937648E+00 0.22107348E+03</pdfrwt>
<pdfrwt beam="2">  1       -2 0.11135561E-01 0.22107348E+03</pdfrwt>
<totfact> 0.15274258E+03</totfact>
</mgrwt>
</event>
<event>
 4    1  0.5124795E-001  0.9489957E+02  0.7546771E-02  0.1291402E+00
          1   -1    0    0  501    0  0.00000000000E+00  0.00000000000E+00  0.16550282018E+02  0.16550282018E+02  0.00000000000E+00 0. -1.
         -1   -1    0    0    0  501 -0.00000000000E+00 -0.00000000000E+00 -0.80602811029E+03  0.80602811029E+03  0.00000000000E+00 0.  1.
         24    1    1    2    0    0 -0.33896583950E+02  0.37279134567E+02 -0.62917107122E+03  0.63628780052E+03  0.80419002446E+02 0.  1.
        -24    1    1    2    0    0  0.33896583950E+02 -0.37279134567E+02 -0.16030675705E+03  0.18629059179E+03  0.80419002446E+02 0. -1.
<mgrwt>
<rscale>  0 0.94899569E+02</rscale>
<asrwt>0</asrwt>
<pdfrwt beam="1">  1        1 0.25461978E-02 0.94899569E+02</pdfrwt>
<pdfrwt beam="2">  1       -1 0.12400430E+00 0.94899569E+02</pdfrwt>
<totfact> 0.24818155E+03</totfact>
</mgrwt>
</event>
<event>
 4    1  0.5124795E-001  0.1186711E+03  0.7546771E-02  0.1245306E+00
         -2   -1    0    0    0  501 -0.00000000000E+00  0.00000000000E+00  0.17806504070E+02  0.17806504070E+02  0.00000000000E+00 0.  1.
          2   -1    0    0  501    0  0.00000000000E+00 -0.00000000000E+00 -0.98886239478E+03  0.98886239478E+03  0.00000000000E+00 0. -1.
         24    1    1    2    0    0 -0.87225809075E+02  0.26947199023E+01 -0.71074502119E+03  0.72058400231E+03  0.80419002446E+02 0. -1.
        -24    1    1    2    0    0  0.87225809075E+02 -0.26947199023E+01 -0.26031086952E+03  0.28608489654E+03  0.80419002446E+02 0.  1.
<mgrwt>
<rscale>  0 0.11867105E+03</rscale>
<asrwt>0</asrwt>
<pdfrwt beam="1">  1        2 0.15213276E+00 0.11867105E+03</pdfrwt>
<pdfrwt beam="2">  1       -2 0.27394607E-02 0.11867105E+03</pdfrwt>
<totfact> 0.12325802E+04</totfact>
</mgrwt>
</event>
<event>
 4    1  0.5124795E-001  0.9042762E+02  0.7546771E-02  0.1301819E+00
         -3   -1    0    0    0  501 -0.00000000000E+00  0.00000000000E+00  0.14934431752E+03  0.14934431752E+03  0.00000000000E+00 0.  1.
          3   -1    0    0  501    0  0.00000000000E+00 -0.00000000000E+00 -0.55727150624E+02  0.55727150624E+02  0.00000000000E+00 0. -1.
         24    1    1    2    0    0 -0.23689863641E+02  0.33892901681E+02  0.60360420232E+02  0.10872228248E+03  0.80419002446E+02 0.  1.
        -24    1    1    2    0    0  0.23689863641E+02 -0.33892901681E+02  0.33256746660E+02  0.96349185655E+02  0.80419002446E+02 0.  0.
<mgrwt>
<rscale>  0 0.90427620E+02</rscale>
<asrwt>0</asrwt>
<pdfrwt beam="1">  1        3 0.85734079E-02 0.90427620E+02</pdfrwt>
<pdfrwt beam="2">  1       -3 0.22976049E-01 0.90427620E+02</pdfrwt>
<totfact> 0.35027139E+03</totfact>
</mgrwt>
</event>
<event>
 4    1  0.5124795E-001  0.8325573E+02  0.7546771E-02  0.1320058E+00
          2   -1    0    0  501    0  0.00000000000E+00  0.00000000000E+00  0.22082173632E+03  0.22082173632E+03  0.00000000000E+00 0. -1.
         -2   -1    0    0    0  501 -0.00000000000E+00 -0.00000000000E+00 -0.14904790627E+03  0.14904790627E+03  0.00000000000E+00 0.  1.
         24    1    1    2    0    0  0.17708307884E+02 -0.12276674326E+02  0.20019803554E+03  0.21681967229E+03  0.80419002446E+02 0. -1.
        -24    1    1    2    0    0 -0.17708307884E+02  0.12276674326E+02 -0.12842420549E+03  0.15304997031E+03  0.80419002446E+02 0.  1.
<mgrwt>
<rscale>  0 0.83255732E+02</rscale>
<asrwt>0</asrwt>
<pdfrwt beam="1">  1        2 0.33972575E-01 0.83255732E+02</pdfrwt>
<pdfrwt beam="2">  1       -2 0.22930447E-01 0.83255732E+02</pdfrwt>
<totfact> 0.23989296E+03</totfact>
</mgrwt>
</event>
<event>
 4    1  0.5124795E-001  0.9349953E+02  0.7546771E-02  0.1294592E+00
          1   -1    0    0  501    0  0.00000000000E+00  0.00000000000E+00  0.19567884039E+03  0.19567884039E+03  0.00000000000E+00 0. -1.
         -1   -1    0    0    0  501 -0.00000000000E+00 -0.00000000000E+00 -0.48543003459E+02  0.48543003459E+02  0.00000000000E+00 0.  1.
         24    1    1    2    0    0 -0.21948048553E+02  0.42346548998E+02  0.39103248249E+02  0.10134706224E+03  0.80419002446E+02 0. -1.
        -24    1    1    2    0    0  0.21948048553E+02 -0.42346548998E+02  0.10803258868E+03  0.14287478160E+03  0.80419002446E+02 0.  1.
<mgrwt>
<rscale>  0 0.93499535E+02</rscale>
<asrwt>0</asrwt>
<pdfrwt beam="1">  1        1 0.30104437E-01 0.93499535E+02</pdfrwt>
<pdfrwt beam="2">  1       -1 0.74681545E-02 0.93499535E+02</pdfrwt>
<totfact> 0.13067091E+04</totfact>
</mgrwt>
</event>
<event>
 4    1  0.5124795E-001  0.1108002E+03  0.7546771E-02  0.1259095E+00
          2   -1    0    0  501    0  0.00000000000E+00  0.00000000000E+00  0.18789133875E+04  0.18789133875E+04  0.00000000000E+00 0. -1.
         -2   -1    0    0    0  501 -0.00000000000E+00 -0.00000000000E+00 -0.82587130629E+01  0.82587130629E+01  0.00000000000E+00 0.  1.
         24    1    1    2    0    0 -0.74499608127E+02  0.16101886445E+02  0.13665417304E+04  0.13710262504E+04  0.80419002446E+02 0. -1.
        -24    1    1    2    0    0  0.74499608127E+02 -0.16101886445E+02  0.50411294402E+03  0.51614585016E+03  0.80419002446E+02 0.  1.
<mgrwt>
<rscale>  0 0.11080017E+03</rscale>
<asrwt>0</asrwt>
<pdfrwt beam="1">  1        2 0.28906326E+00 0.11080017E+03</pdfrwt>
<pdfrwt beam="2">  1       -2 0.12705727E-02 0.11080017E+03</pdfrwt>
<totfact> 0.12536802E+04</totfact>
</mgrwt>
</event>
<event>
 4    1  0.5124795E-001  0.8056820E+02  0.7546771E-02  0.1327447E+00
          2   -1    0    0  501    0  0.00000000000E+00  0.00000000000E+00  0.13061880429E+04  0.13061880429E+04  0.00000000000E+00 0. -1.
         -2   -1    0    0    0  501 -0.00000000000E+00 -0.00000000000E+00 -0.51738104873E+01  0.51738104873E+01  0.00000000000E+00 0.  1.
         24    1    1    2    0    0 -0.47374965000E+01  0.12547681312E+01  0.78077115647E+03  0.78491708673E+03  0.80419002446E+02 0.  0.
        -24    1    1    2    0    0  0.47374965000E+01 -0.12547681312E+01  0.52024307590E+03  0.52644476661E+03  0.80419002446E+02 0.  0.
<mgrwt>
<rscale>  0 0.80568196E+02</rscale>
<asrwt>0</asrwt>
<pdfrwt beam="1">  1        2 0.20095174E+00 0.80568196E+02</pdfrwt>
<pdfrwt beam="2">  1       -2 0.79597189E-03 0.80568196E+02</pdfrwt>
<totfact> 0.46543345E+04</totfact>
</mgrwt>
</event>
<event>
 4    1  0.5124795E-001  0.1187231E+03  0.7546771E-02  0.1245219E+00
          1   -1    0    0  501    0  0.00000000000E+00  0.00000000000E+00  0.54647145329E+03  0.54647145329E+03  0.00000000000E+00 0. -1.
         -1   -1    0    0    0  501 -0.00000000000E+00 -0.00000000000E+00 -0.39451131449E+02  0.39451131449E+02  0.00000000000E+00 0.  1.
         24    1    1    2    0    0  0.65858867078E+02 -0.57363486806E+02  0.81134852207E+02  0.14379860983E+03  0.80419002446E+02 0.  0.
        -24    1    1    2    0    0 -0.65858867078E+02  0.57363486806E+02  0.42588546963E+03  0.44212397491E+03  0.80419002446E+02 0. -1.
<mgrwt>
<rscale>  0 0.11872311E+03</rscale>
<asrwt>0</asrwt>
<pdfrwt beam="1">  1        1 0.84072526E-01 0.11872311E+03</pdfrwt>
<pdfrwt beam="2">  1       -1 0.60694052E-02 0.11872311E+03</pdfrwt>
<totfact> 0.50378162E+03</totfact>
</mgrwt>
</event>
<event>
 4    1  0.5124795E-001  0.8854782E+02  0.7546771E-02  0.1306407E+00
         -2   -1    0    0    0  501 -0.00000000000E+00  0.00000000000E+00  0.87311029587E+02  0.87311029587E+02  0.00000000000E+00 0.  1.
          2   -1    0    0  501    0  0.00000000000E+00 -0.00000000000E+00 -0.89878622596E+02  0.89878622596E+02  0.00000000000E+00 0. -1.
         24    1    1    2    0    0 -0.26208900154E+02 -0.26202933086E+02 -0.38684387347E+01  0.88632279234E+02  0.80419002446E+02 0.  0.
        -24    1    1    2    0    0  0.26208900154E+02  0.26202933086E+02  0.13008457261E+01  0.88557372949E+02  0.80419002446E+02 0.  1.
<mgrwt>
<rscale>  0 0.88547818E+02</rscale>
<asrwt>0</asrwt>
<pdfrwt beam="1">  1        2 0.13827480E-01 0.88547818E+02</pdfrwt>
<pdfrwt beam="2">  1       -2 0.13432466E-01 0.88547818E+02</pdfrwt>
<totfact> 0.15733744E+04</totfact>
</mgrwt>
</event>
<event>
 4    1  0.5124795E-001  0.8860675E+02  0.7546771E-02  0.1306261E+00
          1   -1    0    0  501    0  0.00000000000E+00  0.00000000000E+00  0.99218758561E+02  0.99218758561E+02  0.00000000000E+00 0. -1.
         -1   -1    0    0    0  501 -0.00000000000E+00 -0.00000000000E+00 -0.81695591333E+02  0.81695591333E+02  0.00000000000E+00 0.  1.
         24    1    1    2    0    0 -0.35928421508E+02  0.96482503051E+01 -0.72693234540E+01  0.88904438719E+02  0.80419002446E+02 0.  1.
        -24    1    1    2    0    0  0.35928421508E+02 -0.96482503051E+01  0.24792490682E+02  0.92009911176E+02  0.80419002446E+02 0. -1.
<mgrwt>
<rscale>  0 0.88606750E+02</rscale>
<asrwt>0</asrwt>
<pdfrwt beam="1">  1        1 0.15264424E-01 0.88606750E+02</pdfrwt>
<pdfrwt beam="2">  1       -1 0.12568552E-01 0.88606750E+02</pdfrwt>
<totfact> 0.13866530E+04</totfact>
</mgrwt>
</event>
<event>
 4    1  0.5124795E-001  0.1392039E+03  0.7546771E-02  0.1214404E+00
          2   -1    0    0  501    0  0.00000000000E+00  0.00000000000E+00  0.16183252165E+04  0.16183252165E+04  0.00000000000E+00 0. -1.
         -2   -1    0    0    0  501 -0.00000000000E+00 -0.00000000000E+00 -0.12292481805E+02  0.12292481805E+02  0.00000000000E+00 0.  1.
         24    1    1    2    0    0  0.40753590079E+02  0.10606435702E+03  0.67176922256E+03  0.68604052889E+03  0.80419002446E+02 0.  1.
        -24    1    1    2    0    0 -0.40753590079E+02 -0.10606435702E+03  0.93426351208E+03  0.94457716937E+03  0.80419002446E+02 0. -1.
<mgrwt>
<rscale>  0 0.13920389E+03</rscale>
<asrwt>0</asrwt>
<pdfrwt beam="1">  1        2 0.24897294E+00 0.13920391E+03</pdfrwt>
<pdfrwt beam="2">  1       -2 0.18911523E-02 0.13920391E+03</pdfrwt>
<totfact> 0.96925714E+03</totfact>
</mgrwt>
</event>
<event>
 4    1  0.5124795E-001  0.8459558E+02  0.7546771E-02  0.1316494E+00
         -2   -1    0    0    0  501 -0.00000000000E+00  0.00000000000E+00  0.30701948903E+02  0.30701948903E+02  0.00000000000E+00 0.  1.
          2   -1    0    0  501    0  0.00000000000E+00 -0.00000000000E+00 -0.52596991684E+03  0.52596991684E+03  0.00000000000E+00 0. -1.
         24    1    1    2    0    0 -0.17464932016E+02  0.19600335436E+02 -0.45533150351E+03  0.46312330004E+03  0.80419002446E+02 0.  0.
        -24    1    1    2    0    0  0.17464932016E+02 -0.19600335436E+02 -0.39936464429E+02  0.93548565703E+02  0.80419002446E+02 0.  0.
<mgrwt>
<rscale>  0 0.84595585E+02</rscale>
<asrwt>0</asrwt>
<pdfrwt beam="1">  1        2 0.80918450E-01 0.84595585E+02</pdfrwt>
<pdfrwt beam="2">  1       -2 0.47233767E-02 0.84595585E+02</pdfrwt>
<totfact> 0.11487528E+04</totfact>
</mgrwt>
</event>
<event>
 4    1  0.5124795E-001  0.8120389E+02  0.7546771E-02  0.1325669E+00
          1   -1    0    0  501    0  0.00000000000E+00  0.00000000000E+00  0.83845687577E+03  0.83845687577E+03  0.00000000000E+00 0. -1.
         -1   -1    0    0    0  501 -0.00000000000E+00 -0.00000000000E+00 -0.79901718146E+01  0.79901718146E+01  0.00000000000E+00 0.  1.
         24    1    1    2    0    0  0.82599513128E+01  0.76567722408E+01  0.46830462983E+03  0.47529285208E+03  0.80419002446E+02 0. -1.
        -24    1    1    2    0    0 -0.82599513128E+01 -0.76567722408E+01  0.36216207412E+03  0.37115419550E+03  0.80419002446E+02 0.  1.
<mgrwt>
<rscale>  0 0.81203883E+02</rscale>
<asrwt>0</asrwt>
<pdfrwt beam="1">  1        1 0.12899330E+00 0.81203893E+02</pdfrwt>
<pdfrwt beam="2">  1       -1 0.12292579E-02 0.81203893E+02</pdfrwt>
<totfact> 0.26856948E+04</totfact>
</mgrwt>
</event>
<event>
 4    1  0.5124795E-001  0.8552103E+02  0.7546771E-02  0.1314076E+00
          2   -1    0    0  501    0  0.00000000000E+00  0.00000000000E+00  0.77718760740E+03  0.77718760740E+03  0.00000000000E+00 0. -1.
         -2   -1    0    0    0  501 -0.00000000000E+00 -0.00000000000E+00 -0.39294327579E+02  0.39294327579E+02  0.00000000000E+00 0.  1.
         24    1    1    2    0    0  0.11518426304E+02  0.26719973691E+02  0.72496190003E+03  0.72998876949E+03  0.80419002446E+02 0. -1.
        -24    1    1    2    0    0 -0.11518426304E+02 -0.26719973691E+02  0.12931379796E+02  0.86493165489E+02  0.80419002446E+02 0.  1.
<mgrwt>
<rscale>  0 0.85521033E+02</rscale>
<asrwt>0</asrwt>
<pdfrwt beam="1">  1        2 0.11956731E+00 0.85521033E+02</pdfrwt>
<pdfrwt beam="2">  1       -2 0.60452817E-02 0.85521033E+02</pdfrwt>
<totfact> 0.51077065E+03</totfact>
</mgrwt>
</event>
<event>
 4    1  0.5124795E-001  0.9300036E+02  0.7546771E-02  0.1295744E+00
         -1   -1    0    0    0  501 -0.00000000000E+00  0.00000000000E+00  0.85918117976E+01  0.85918117976E+01  0.00000000000E+00 0.  1.
          1   -1    0    0  501    0  0.00000000000E+00 -0.00000000000E+00 -0.10361463217E+04  0.10361463217E+04  0.00000000000E+00 0. -1.
         24    1    1    2    0    0  0.43324906180E+02  0.17458628265E+02 -0.42566259711E+03  0.43570369947E+03  0.80419002446E+02 0.  1.
        -24    1    1    2    0    0 -0.43324906180E+02 -0.17458628265E+02 -0.60189191283E+03  0.60903443407E+03  0.80419002446E+02 0. -1.
<mgrwt>
<rscale>  0 0.93000361E+02</rscale>
<asrwt>0</asrwt>
<pdfrwt beam="1">  1        1 0.15940713E+00 0.93000361E+02</pdfrwt>
<pdfrwt beam="2">  1       -1 0.13218171E-02 0.93000361E+02</pdfrwt>
<totfact> 0.17514245E+04</totfact>
</mgrwt>
</event>
<event>
 4    1  0.5124795E-001  0.8068756E+02  0.7546771E-02  0.1327111E+00
          1   -1    0    0  501    0  0.00000000000E+00  0.00000000000E+00  0.40268063505E+03  0.40268063505E+03  0.00000000000E+00 0. -1.
         -1   -1    0    0    0  501 -0.00000000000E+00 -0.00000000000E+00 -0.23638570415E+02  0.23638570415E+02  0.00000000000E+00 0.  1.
         24    1    1    2    0    0  0.58329975554E+01 -0.30402820446E+01  0.69688338706E+02  0.10661588850E+03  0.80419002446E+02 0.  1.
        -24    1    1    2    0    0 -0.58329975554E+01  0.30402820446E+01  0.30935372593E+03  0.31970331696E+03  0.80419002446E+02 0.  0.
<mgrwt>
<rscale>  0 0.80687565E+02</rscale>
<asrwt>0</asrwt>
<pdfrwt beam="1">  1        1 0.61950862E-01 0.80687565E+02</pdfrwt>
<pdfrwt beam="2">  1       -1 0.36367034E-02 0.80687565E+02</pdfrwt>
<totfact> 0.15277709E+04</totfact>
</mgrwt>
</event>
<event>
 4    1  0.5124795E-001  0.9162966E+02  0.7546771E-02  0.1298953E+00
          1   -1    0    0  501    0  0.00000000000E+00  0.00000000000E+00  0.14870823048E+04  0.14870823048E+04  0.00000000000E+00 0. -1.
         -1   -1    0    0    0  501 -0.00000000000E+00 -0.00000000000E+00 -0.58923184179E+01  0.58923184179E+01  0.00000000000E+00 0.  1.
         24    1    1    2    0    0  0.40232822602E+02  0.17609593863E+02  0.58795406499E+03  0.59505123839E+03  0.80419002446E+02 0.  1.
        -24    1    1    2    0    0 -0.40232822602E+02 -0.17609593863E+02  0.89323592138E+03  0.89792338482E+03  0.80419002446E+02 0. -1.
<mgrwt>
<rscale>  0 0.91629655E+02</rscale>
<asrwt>0</asrwt>
<pdfrwt beam="1">  1        1 0.22878159E+00 0.91629655E+02</pdfrwt>
<pdfrwt beam="2">  1       -1 0.90651171E-03 0.91629655E+02</pdfrwt>
<totfact> 0.14909894E+04</totfact>
</mgrwt>
</event>
<event>
 4    1  0.5124795E-001  0.9273504E+02  0.7546771E-02  0.1296360E+00
         -3   -1    0    0    0  501 -0.00000000000E+00  0.00000000000E+00  0.40174219217E+03  0.40174219217E+03  0.00000000000E+00 0.  1.
          3   -1    0    0  501    0  0.00000000000E+00 -0.00000000000E+00 -0.26197468654E+03  0.26197468654E+03  0.00000000000E+00 0. -1.
         24    1    1    2    0    0 -0.38694883201E+01  0.46017382771E+02  0.38789504152E+03  0.39882621735E+03  0.80419002446E+02 0.  1.
        -24    1    1    2    0    0  0.38694883201E+01 -0.46017382771E+02 -0.24812753589E+03  0.26489066136E+03  0.80419002446E+02 0. -1.
<mgrwt>
<rscale>  0 0.92735044E+02</rscale>
<asrwt>0</asrwt>
<pdfrwt beam="1">  1        3 0.40303798E-01 0.92735044E+02</pdfrwt>
<pdfrwt beam="2">  1       -3 0.61806491E-01 0.92735044E+02</pdfrwt>
<totfact> 0.36226583E+01</totfact>
</mgrwt>
</event>
<event>
 4    1  0.5124795E-001  0.8281418E+02  0.7546771E-02  0.1321250E+00
          1   -1    0    0  501    0  0.00000000000E+00  0.00000000000E+00  0.74656242405E+03  0.74656242405E+03  0.00000000000E+00 0. -1.
         -1   -1    0    0    0  501 -0.00000000000E+00 -0.00000000000E+00 -0.10806715144E+02  0.10806715144E+02  0.00000000000E+00 0.  1.
         24    1    1    2    0    0  0.74461117480E+01 -0.18317407604E+02  0.22124325954E+03  0.23623456108E+03  0.80419002446E+02 0.  1.
        -24    1    1    2    0    0 -0.74461117480E+01  0.18317407604E+02  0.51451244936E+03  0.52113457812E+03  0.80419002446E+02 0. -1.
<mgrwt>
<rscale>  0 0.82814177E+02</rscale>
<asrwt>0</asrwt>
<pdfrwt beam="1">  1        1 0.11485572E+00 0.82814177E+02</pdfrwt>
<pdfrwt beam="2">  1       -1 0.16625721E-02 0.82814177E+02</pdfrwt>
<totfact> 0.20824673E+04</totfact>
</mgrwt>
</event>
<event>
 4    1  0.5124795E-001  0.1011006E+03  0.7546771E-02  0.1277998E+00
         -1   -1    0    0    0  501 -0.00000000000E+00  0.00000000000E+00  0.11924641753E+02  0.11924641753E+02  0.00000000000E+00 0.  1.
          1   -1    0    0  501    0  0.00000000000E+00 -0.00000000000E+00 -0.87603517601E+03  0.87603517601E+03  0.00000000000E+00 0. -1.
         24    1    1    2    0    0 -0.22593945047E+02  0.56952787019E+02 -0.49722584762E+03  0.50740010425E+03  0.80419002446E+02 0.  1.
        -24    1    1    2    0    0  0.22593945047E+02 -0.56952787019E+02 -0.36688468664E+03  0.38055971351E+03  0.80419002446E+02 0.  0.
<mgrwt>
<rscale>  0 0.10110057E+03</rscale>
<asrwt>0</asrwt>
<pdfrwt beam="1">  1        1 0.13477469E+00 0.10110058E+03</pdfrwt>
<pdfrwt beam="2">  1       -1 0.18345596E-02 0.10110058E+03</pdfrwt>
<totfact> 0.14516324E+04</totfact>
</mgrwt>
</event>
<event>
 4    1  0.5124795E-001  0.1394053E+03  0.7546771E-02  0.1214131E+00
          2   -1    0    0  501    0  0.00000000000E+00  0.00000000000E+00  0.48954663560E+03  0.48954663560E+03  0.00000000000E+00 0. -1.
         -2   -1    0    0    0  501 -0.00000000000E+00 -0.00000000000E+00 -0.40461053213E+02  0.40461053213E+02  0.00000000000E+00 0.  1.
         24    1    1    2    0    0  0.84307765168E+02  0.76542946374E+02  0.18814138111E+03  0.23416023819E+03  0.80419002446E+02 0.  0.
        -24    1    1    2    0    0 -0.84307765168E+02 -0.76542946374E+02  0.26094420127E+03  0.29584745062E+03  0.80419002446E+02 0.  0.
<mgrwt>
<rscale>  0 0.13940532E+03</rscale>
<asrwt>0</asrwt>
<pdfrwt beam="1">  1        2 0.75314863E-01 0.13940534E+03</pdfrwt>
<pdfrwt beam="2">  1       -2 0.62247778E-02 0.13940534E+03</pdfrwt>
<totfact> 0.85251977E+03</totfact>
</mgrwt>
</event>
<event>
 4    1  0.5124795E-001  0.1075039E+03  0.7546771E-02  0.1265263E+00
          1   -1    0    0  501    0  0.00000000000E+00  0.00000000000E+00  0.22755396599E+03  0.22755396599E+03  0.00000000000E+00 0. -1.
         -1   -1    0    0    0  501 -0.00000000000E+00 -0.00000000000E+00 -0.81236163503E+02  0.81236163503E+02  0.00000000000E+00 0.  1.
         24    1    1    2    0    0  0.71237136660E+02  0.38903836850E+01 -0.21364006633E+02  0.10960611962E+03  0.80419002446E+02 0.  1.
        -24    1    1    2    0    0 -0.71237136660E+02 -0.38903836850E+01  0.16768180912E+03  0.19918400987E+03  0.80419002446E+02 0. -1.
<mgrwt>
<rscale>  0 0.10750386E+03</rscale>
<asrwt>0</asrwt>
<pdfrwt beam="1">  1        1 0.35008302E-01 0.10750386E+03</pdfrwt>
<pdfrwt beam="2">  1       -1 0.12497871E-01 0.10750386E+03</pdfrwt>
<totfact> 0.50408676E+03</totfact>
</mgrwt>
</event>
<event>
 4    1  0.5124795E-001  0.8269900E+02  0.7546771E-02  0.1321562E+00
         -2   -1    0    0    0  501 -0.00000000000E+00  0.00000000000E+00  0.32204265912E+02  0.32204265912E+02  0.00000000000E+00 0.  1.
          2   -1    0    0  501    0  0.00000000000E+00 -0.00000000000E+00 -0.46799575503E+03  0.46799575503E+03  0.00000000000E+00 0. -1.
         24    1    1    2    0    0  0.18185164259E+00  0.19284093079E+02 -0.40273642327E+03  0.41113957715E+03  0.80419002446E+02 0.  0.
        -24    1    1    2    0    0 -0.18185164259E+00 -0.19284093079E+02 -0.33055065848E+02  0.89060443793E+02  0.80419002446E+02 0.  1.
<mgrwt>
<rscale>  0 0.82699004E+02</rscale>
<asrwt>0</asrwt>
<pdfrwt beam="1">  1        2 0.71999345E-01 0.82699004E+02</pdfrwt>
<pdfrwt beam="2">  1       -2 0.49545026E-02 0.82699004E+02</pdfrwt>
<totfact> 0.12112576E+04</totfact>
</mgrwt>
</event>
<event>
 4    1  0.5124795E-001  0.9228881E+02  0.7546771E-02  0.1297402E+00
         -1   -1    0    0    0  501 -0.00000000000E+00  0.00000000000E+00  0.17186817084E+03  0.17186817084E+03  0.00000000000E+00 0.  1.
          1   -1    0    0  501    0  0.00000000000E+00 -0.00000000000E+00 -0.54624745500E+02  0.54624745500E+02  0.00000000000E+00 0. -1.
         24    1    1    2    0    0  0.16593191850E+01  0.45246610501E+02  0.93116125188E+02  0.13110239443E+03  0.80419002446E+02 0. -1.
        -24    1    1    2    0    0 -0.16593191850E+01 -0.45246610501E+02  0.24127300149E+02  0.95390521903E+02  0.80419002446E+02 0.  1.
<mgrwt>
<rscale>  0 0.92288813E+02</rscale>
<asrwt>0</asrwt>
<pdfrwt beam="1">  1        1 0.84038071E-02 0.92288813E+02</pdfrwt>
<pdfrwt beam="2">  1       -1 0.26441257E-01 0.92288813E+02</pdfrwt>
<totfact> 0.93570127E+03</totfact>
</mgrwt>
</event>
<event>
 4    1  0.5124795E-001  0.9281724E+02  0.7546771E-02  0.1296169E+00
          1   -1    0    0  501    0  0.00000000000E+00  0.00000000000E+00  0.50242926074E+03  0.50242926074E+03  0.00000000000E+00 0. -1.
         -1   -1    0    0    0  501 -0.00000000000E+00 -0.00000000000E+00 -0.30991407868E+02  0.30991407868E+02  0.00000000000E+00 0.  1.
         24    1    1    2    0    0 -0.41150013091E+02 -0.21318997508E+02  0.57456429861E+02  0.10916171728E+03  0.80419002446E+02 0.  1.
        -24    1    1    2    0    0  0.41150013091E+02  0.21318997508E+02  0.41398142301E+03  0.42425895133E+03  0.80419002446E+02 0. -1.
<mgrwt>
<rscale>  0 0.92817235E+02</rscale>
<asrwt>0</asrwt>
<pdfrwt beam="1">  1        1 0.77296803E-01 0.92817235E+02</pdfrwt>
<pdfrwt beam="2">  1       -1 0.47679093E-02 0.92817235E+02</pdfrwt>
<totfact> 0.78966353E+03</totfact>
</mgrwt>
</event>
<event>
 4    1  0.5124795E-001  0.1147649E+03  0.7546771E-02  0.1251992E+00
         -1   -1    0    0    0  501 -0.00000000000E+00  0.00000000000E+00  0.80328277564E+03  0.80328277564E+03  0.00000000000E+00 0.  1.
          1   -1    0    0  501    0  0.00000000000E+00 -0.00000000000E+00 -0.23994464362E+02  0.23994464362E+02  0.00000000000E+00 0. -1.
         24    1    1    2    0    0  0.40623176222E+02 -0.71088072480E+02  0.62240830110E+03  0.63290051804E+03  0.80419002446E+02 0.  1.
        -24    1    1    2    0    0 -0.40623176222E+02  0.71088072480E+02  0.15688001017E+03  0.19437672197E+03  0.80419002446E+02 0. -1.
<mgrwt>
<rscale>  0 0.11476486E+03</rscale>
<asrwt>0</asrwt>
<pdfrwt beam="1">  1        1 0.36914567E-02 0.11476486E+03</pdfrwt>
<pdfrwt beam="2">  1       -1 0.12358194E+00 0.11476486E+03</pdfrwt>
<totfact> 0.15177734E+03</totfact>
</mgrwt>
</event>
<event>
 4    1  0.5124795E-001  0.8274774E+02  0.7546771E-02  0.1321430E+00
         -2   -1    0    0    0  501 -0.00000000000E+00  0.00000000000E+00  0.50155705849E+02  0.50155705849E+02  0.00000000000E+00 0.  1.
          2   -1    0    0  501    0  0.00000000000E+00 -0.00000000000E+00 -0.21067832523E+03  0.21067832523E+03  0.00000000000E+00 0. -1.
         24    1    1    2    0    0 -0.19250933423E+02  0.30617636653E+01 -0.15763766438E+03  0.17803601327E+03  0.80419002446E+02 0. -1.
        -24    1    1    2    0    0  0.19250933423E+02 -0.30617636653E+01 -0.28849550034E+01  0.82798017815E+02  0.80419002446E+02 0.  0.
<mgrwt>
<rscale>  0 0.82747742E+02</rscale>
<asrwt>0</asrwt>
<pdfrwt beam="1">  1        2 0.32412050E-01 0.82747742E+02</pdfrwt>
<pdfrwt beam="2">  1       -2 0.77162625E-02 0.82747742E+02</pdfrwt>
<totfact> 0.14389496E+04</totfact>
</mgrwt>
</event>
<event>
 4    1  0.5124795E-001  0.8691829E+02  0.7546771E-02  0.1310491E+00
          1   -1    0    0  501    0  0.00000000000E+00  0.00000000000E+00  0.13486812327E+04  0.13486812327E+04  0.00000000000E+00 0. -1.
         -1   -1    0    0    0  501 -0.00000000000E+00 -0.00000000000E+00 -0.14479263924E+02  0.14479263924E+02  0.00000000000E+00 0.  1.
         24    1    1    2    0    0  0.24901783112E+02 -0.21621153017E+02  0.13340638248E+03  0.15922327688E+03  0.80419002446E+02 0.  1.
        -24    1    1    2    0    0 -0.24901783112E+02  0.21621153017E+02  0.12007955863E+04  0.12039372198E+04  0.80419002446E+02 0. -1.
<mgrwt>
<rscale>  0 0.86918289E+02</rscale>
<asrwt>0</asrwt>
<pdfrwt beam="1">  1        1 0.20748932E+00 0.86918289E+02</pdfrwt>
<pdfrwt beam="2">  1       -1 0.22275801E-02 0.86918289E+02</pdfrwt>
<totfact> 0.51031892E+03</totfact>
</mgrwt>
</event>
<event>
 4    1  0.5124795E-001  0.1371165E+03  0.7546771E-02  0.1217262E+00
          3   -1    0    0  501    0  0.00000000000E+00  0.00000000000E+00  0.21403681607E+03  0.21403681607E+03  0.00000000000E+00 0. -1.
         -3   -1    0    0    0  501 -0.00000000000E+00 -0.00000000000E+00 -0.10001937989E+03  0.10001937989E+03  0.00000000000E+00 0.  1.
         24    1    1    2    0    0  0.56587878013E+02  0.95559077928E+02  0.22122879654E+01  0.13713437018E+03  0.80419002446E+02 0.  1.
        -24    1    1    2    0    0 -0.56587878013E+02 -0.95559077928E+02  0.11180514822E+03  0.17692182577E+03  0.80419002446E+02 0. -1.
<mgrwt>
<rscale>  0 0.13711652E+03</rscale>
<asrwt>0</asrwt>
<pdfrwt beam="1">  1        3 0.32928741E-01 0.13711652E+03</pdfrwt>
<pdfrwt beam="2">  1       -3 0.15387597E-01 0.13711652E+03</pdfrwt>
<totfact> 0.74143125E+02</totfact>
</mgrwt>
</event>
<event>
 4    1  0.5124795E-001  0.8271127E+02  0.7546771E-02  0.1321529E+00
         -2   -1    0    0    0  501 -0.00000000000E+00  0.00000000000E+00  0.42796025623E+02  0.42796025623E+02  0.00000000000E+00 0.  1.
          2   -1    0    0  501    0  0.00000000000E+00 -0.00000000000E+00 -0.16099177508E+03  0.16099177508E+03  0.00000000000E+00 0. -1.
         24    1    1    2    0    0 -0.15305864262E+02 -0.11818142474E+02 -0.67660458052E+02  0.10686014931E+03  0.80419002446E+02 0. -1.
        -24    1    1    2    0    0  0.15305864262E+02  0.11818142474E+02 -0.50535291400E+02  0.96927651388E+02  0.80419002446E+02 0.  1.
<mgrwt>
<rscale>  0 0.82711268E+02</rscale>
<asrwt>0</asrwt>
<pdfrwt beam="1">  1        2 0.24767966E-01 0.82711268E+02</pdfrwt>
<pdfrwt beam="2">  1       -2 0.65840038E-02 0.82711268E+02</pdfrwt>
<totfact> 0.24406203E+04</totfact>
</mgrwt>
</event>
<event>
 4    1  0.5124795E-001  0.8041977E+02  0.7546771E-02  0.1327864E+00
         -3   -1    0    0    0  501 -0.00000000000E+00  0.00000000000E+00  0.94168743409E+02  0.94168743409E+02  0.00000000000E+00 0.  1.
          3   -1    0    0  501    0  0.00000000000E+00 -0.00000000000E+00 -0.71587413926E+02  0.71587413926E+02  0.00000000000E+00 0. -1.
         24    1    1    2    0    0  0.28746805311E+00  0.20275523132E+00  0.27998078922E+02  0.85154166811E+02  0.80419002446E+02 0.  1.
        -24    1    1    2    0    0 -0.28746805311E+00 -0.20275523132E+00 -0.54167494383E+01  0.80601990524E+02  0.80419002446E+02 0.  0.
<mgrwt>
<rscale>  0 0.80419772E+02</rscale>
<asrwt>0</asrwt>
<pdfrwt beam="1">  1        3 0.11013448E-01 0.80419772E+02</pdfrwt>
<pdfrwt beam="2">  1       -3 0.14487499E-01 0.80419772E+02</pdfrwt>
<totfact> 0.50234492E+03</totfact>
</mgrwt>
</event>
<event>
 4    1  0.5124795E-001  0.1340507E+03  0.7546771E-02  0.1221566E+00
          3   -1    0    0  501    0  0.00000000000E+00  0.00000000000E+00  0.20472888236E+04  0.20472888236E+04  0.00000000000E+00 0. -1.
         -3   -1    0    0    0  501 -0.00000000000E+00 -0.00000000000E+00 -0.13483841730E+02  0.13483841730E+02  0.00000000000E+00 0.  1.
         24    1    1    2    0    0  0.10025207860E+03 -0.38103841774E+02  0.40814291546E+03  0.42959310681E+03  0.80419002446E+02 0.  1.
        -24    1    1    2    0    0 -0.10025207860E+03  0.38103841774E+02  0.16256620664E+04  0.16311795585E+04  0.80419002446E+02 0. -1.
<mgrwt>
<rscale>  0 0.13405073E+03</rscale>
<asrwt>0</asrwt>
<pdfrwt beam="1">  1        3 0.31496726E+00 0.13405073E+03</pdfrwt>
<pdfrwt beam="2">  1       -3 0.20744388E-02 0.13405073E+03</pdfrwt>
<totfact> 0.81147221E+01</totfact>
</mgrwt>
</event>
<event>
 4    1  0.5124795E-001  0.9110076E+02  0.7546771E-02  0.1300208E+00
          2   -1    0    0  501    0  0.00000000000E+00  0.00000000000E+00  0.24985241469E+04  0.24985241469E+04  0.00000000000E+00 0. -1.
         -2   -1    0    0    0  501 -0.00000000000E+00 -0.00000000000E+00 -0.33985275966E+01  0.33985275966E+01  0.00000000000E+00 0.  1.
         24    1    1    2    0    0  0.41326864516E+02 -0.11145309595E+02  0.10594745493E+04  0.10633840624E+04  0.80419002446E+02 0.  1.
        -24    1    1    2    0    0 -0.41326864516E+02  0.11145309595E+02  0.14356510700E+04  0.14385386121E+04  0.80419002446E+02 0. -1.
<mgrwt>
<rscale>  0 0.91100745E+02</rscale>
<asrwt>0</asrwt>
<pdfrwt beam="1">  1        2 0.38438686E+00 0.91100756E+02</pdfrwt>
<pdfrwt beam="2">  1       -2 0.52285240E-03 0.91100756E+02</pdfrwt>
<totfact> 0.21011784E+04</totfact>
</mgrwt>
</event>
<event>
 4    1  0.5124795E-001  0.8444242E+02  0.7546771E-02  0.1316897E+00
         -1   -1    0    0    0  501 -0.00000000000E+00  0.00000000000E+00  0.41574828455E+02  0.41574828455E+02  0.00000000000E+00 0.  1.
          1   -1    0    0  501    0  0.00000000000E+00 -0.00000000000E+00 -0.17487590495E+03  0.17487590495E+03  0.00000000000E+00 0. -1.
         24    1    1    2    0    0  0.15341699268E+02 -0.20686608211E+02 -0.81664074624E+02  0.11747144561E+03  0.80419002446E+02 0. -1.
        -24    1    1    2    0    0 -0.15341699268E+02  0.20686608211E+02 -0.51637001876E+02  0.98979287797E+02  0.80419002446E+02 0.  1.
<mgrwt>
<rscale>  0 0.84442414E+02</rscale>
<asrwt>0</asrwt>
<pdfrwt beam="1">  1        1 0.26903985E-01 0.84442424E+02</pdfrwt>
<pdfrwt beam="2">  1       -1 0.63961275E-02 0.84442424E+02</pdfrwt>
<totfact> 0.18676113E+04</totfact>
</mgrwt>
</event>
<event>
 4    1  0.5124795E-001  0.8222620E+02  0.7546771E-02  0.1322850E+00
         -2   -1    0    0    0  501 -0.00000000000E+00  0.00000000000E+00  0.52430113283E+02  0.52430113283E+02  0.00000000000E+00 0.  1.
          2   -1    0    0  501    0  0.00000000000E+00 -0.00000000000E+00 -0.13261576334E+03  0.13261576334E+03  0.00000000000E+00 0. -1.
         24    1    1    2    0    0 -0.10196859363E+02  0.13782449424E+02 -0.55464180154E+02  0.99183784398E+02  0.80419002446E+02 0.  1.
        -24    1    1    2    0    0  0.10196859363E+02 -0.13782449424E+02 -0.24721469907E+02  0.85862092228E+02  0.80419002446E+02 0.  0.
<mgrwt>
<rscale>  0 0.82226199E+02</rscale>
<asrwt>0</asrwt>
<pdfrwt beam="1">  1        2 0.20402425E-01 0.82226199E+02</pdfrwt>
<pdfrwt beam="2">  1       -2 0.80661714E-02 0.82226199E+02</pdfrwt>
<totfact> 0.22189137E+04</totfact>
</mgrwt>
</event>
<event>
 4    1  0.5124795E-001  0.8800947E+02  0.7546771E-02  0.1307745E+00
          1   -1    0    0  501    0  0.00000000000E+00  0.00000000000E+00  0.14425990653E+04  0.14425990653E+04  0.00000000000E+00 0. -1.
         -1   -1    0    0    0  501 -0.00000000000E+00 -0.00000000000E+00 -0.24498119833E+02  0.24498119833E+02  0.00000000000E+00 0.  1.
         24    1    1    2    0    0 -0.24526764616E+02 -0.26017101109E+02  0.60853162457E+02  0.10699894891E+03  0.80419002446E+02 0.  1.
        -24    1    1    2    0    0  0.24526764616E+02  0.26017101109E+02  0.13572477830E+04  0.13600982362E+04  0.80419002446E+02 0. -1.
<mgrwt>
<rscale>  0 0.88009475E+02</rscale>
<asrwt>0</asrwt>
<pdfrwt beam="1">  1        1 0.22193825E+00 0.88009475E+02</pdfrwt>
<pdfrwt beam="2">  1       -1 0.37689426E-02 0.88009475E+02</pdfrwt>
<totfact> 0.20843793E+03</totfact>
</mgrwt>
</event>
<event>
 4    1  0.5124795E-001  0.1414241E+03  0.7546771E-02  0.1211426E+00
         -1   -1    0    0    0  501 -0.00000000000E+00  0.00000000000E+00  0.38947640853E+03  0.38947640853E+03  0.00000000000E+00 0.  1.
          1   -1    0    0  501    0  0.00000000000E+00 -0.00000000000E+00 -0.25165085619E+03  0.25165085619E+03  0.00000000000E+00 0. -1.
         24    1    1    2    0    0 -0.44425169449E+02  0.10751722714E+03  0.35490435156E+03  0.38204432272E+03  0.80419002446E+02 0.  1.
        -24    1    1    2    0    0  0.44425169449E+02 -0.10751722714E+03 -0.21707879922E+03  0.25908294200E+03  0.80419002446E+02 0. -1.
<mgrwt>
<rscale>  0 0.14142406E+03</rscale>
<asrwt>0</asrwt>
<pdfrwt beam="1">  1        1 0.38715516E-01 0.14142406E+03</pdfrwt>
<pdfrwt beam="2">  1       -1 0.59919448E-01 0.14142406E+03</pdfrwt>
<totfact> 0.32401427E+02</totfact>
</mgrwt>
</event>
<event>
 4    1  0.5124795E-001  0.8179413E+02  0.7546771E-02  0.1324036E+00
          2   -1    0    0  501    0  0.00000000000E+00  0.00000000000E+00  0.23554269358E+03  0.23554269358E+03  0.00000000000E+00 0. -1.
         -2   -1    0    0    0  501 -0.00000000000E+00 -0.00000000000E+00 -0.80827126445E+02  0.80827126445E+02  0.00000000000E+00 0.  1.
         24    1    1    2    0    0  0.10997931612E+02 -0.10104884757E+02  0.20475187017E+03  0.22048493710E+03  0.80419002446E+02 0. -1.
        -24    1    1    2    0    0 -0.10997931612E+02  0.10104884757E+02 -0.50036303042E+02  0.95884882918E+02  0.80419002446E+02 0.  1.
<mgrwt>
<rscale>  0 0.81794127E+02</rscale>
<asrwt>0</asrwt>
<pdfrwt beam="1">  1        2 0.36237337E-01 0.81794127E+02</pdfrwt>
<pdfrwt beam="2">  1       -2 0.12434943E-01 0.81794127E+02</pdfrwt>
<totfact> 0.61014538E+03</totfact>
</mgrwt>
</event>
<event>
 4    1  0.5124795E-001  0.8073281E+02  0.7546771E-02  0.1326985E+00
          2   -1    0    0  501    0  0.00000000000E+00  0.00000000000E+00  0.55147095447E+03  0.55147095447E+03  0.00000000000E+00 0. -1.
         -2   -1    0    0    0  501 -0.00000000000E+00 -0.00000000000E+00 -0.10156427231E+03  0.10156427231E+03  0.00000000000E+00 0.  1.
         24    1    1    2    0    0  0.24134505780E+01  0.66892592207E+01  0.53188531663E+03  0.53797748738E+03  0.80419002446E+02 0. -1.
        -24    1    1    2    0    0 -0.24134505780E+01 -0.66892592207E+01 -0.81978634462E+02  0.11505773940E+03  0.80419002446E+02 0.  1.
<mgrwt>
<rscale>  0 0.80732812E+02</rscale>
<asrwt>0</asrwt>
<pdfrwt beam="1">  1        2 0.84841684E-01 0.80732812E+02</pdfrwt>
<pdfrwt beam="2">  1       -2 0.15625273E-01 0.80732812E+02</pdfrwt>
<totfact> 0.17277918E+03</totfact>
</mgrwt>
</event>
<event>
 4    1  0.5124795E-001  0.1611537E+03  0.7546771E-02  0.1187400E+00
          2   -1    0    0  501    0  0.00000000000E+00  0.00000000000E+00  0.42609968260E+03  0.42609968260E+03  0.00000000000E+00 0. -1.
         -2   -1    0    0    0  501 -0.00000000000E+00 -0.00000000000E+00 -0.94505591677E+02  0.94505591677E+02  0.00000000000E+00 0.  1.
         24    1    1    2    0    0  0.40328087709E+02 -0.13370473043E+03  0.32090571195E+03  0.35909748191E+03  0.80419002446E+02 0. -1.
        -24    1    1    2    0    0 -0.40328087709E+02  0.13370473043E+03  0.10688378976E+02  0.16150779237E+03  0.80419002446E+02 0.  1.
<mgrwt>
<rscale>  0 0.16115373E+03</rscale>
<asrwt>0</asrwt>
<pdfrwt beam="1">  1        2 0.65553796E-01 0.16115373E+03</pdfrwt>
<pdfrwt beam="2">  1       -2 0.14539322E-01 0.16115373E+03</pdfrwt>
<totfact> 0.26329409E+03</totfact>
</mgrwt>
</event>
<event>
 4    1  0.5124795E-001  0.9729643E+02  0.7546771E-02  0.1286086E+00
          2   -1    0    0  501    0  0.00000000000E+00  0.00000000000E+00  0.19116634074E+04  0.19116634074E+04  0.00000000000E+00 0. -1.
         -2   -1    0    0    0  501 -0.00000000000E+00 -0.00000000000E+00 -0.10057016997E+02  0.10057016997E+02  0.00000000000E+00 0.  1.
         24    1    1    2    0    0  0.47185223390E+02  0.27801680149E+02  0.16353818920E+04  0.16382736424E+04  0.80419002446E+02 0. -1.
        -24    1    1    2    0    0 -0.47185223390E+02 -0.27801680149E+02  0.26622449845E+03  0.28344678205E+03  0.80419002446E+02 0.  1.
<mgrwt>
<rscale>  0 0.97296427E+02</rscale>
<asrwt>0</asrwt>
<pdfrwt beam="1">  1        2 0.29410177E+00 0.97296427E+02</pdfrwt>
<pdfrwt beam="2">  1       -2 0.15472349E-02 0.97296427E+02</pdfrwt>
<totfact> 0.90579122E+03</totfact>
</mgrwt>
</event>
<event>
 4    1  0.5124795E-001  0.8046963E+02  0.7546771E-02  0.1327724E+00
          1   -1    0    0  501    0  0.00000000000E+00  0.00000000000E+00  0.11586410867E+04  0.11586410867E+04  0.00000000000E+00 0. -1.
         -1   -1    0    0    0  501 -0.00000000000E+00 -0.00000000000E+00 -0.14924398168E+02  0.14924398168E+02  0.00000000000E+00 0.  1.
         24    1    1    2    0    0  0.28527586503E+01  0.88171329348E-01  0.10776961131E+03  0.13449777353E+03  0.80419002446E+02 0.  1.
        -24    1    1    2    0    0 -0.28527586503E+01 -0.88171329348E-01  0.10359470772E+04  0.10390677113E+04  0.80419002446E+02 0.  0.
<mgrwt>
<rscale>  0 0.80469634E+02</rscale>
<asrwt>0</asrwt>
<pdfrwt beam="1">  1        1 0.17825241E+00 0.80469634E+02</pdfrwt>
<pdfrwt beam="2">  1       -1 0.22960622E-02 0.80469634E+02</pdfrwt>
<totfact> 0.65063828E+03</totfact>
</mgrwt>
</event>
<event>
 4    1  0.5124795E-001  0.1036605E+03  0.7546771E-02  0.1272781E+00
         -1   -1    0    0    0  501 -0.00000000000E+00  0.00000000000E+00  0.12634025433E+02  0.12634025433E+02  0.00000000000E+00 0.  1.
          1   -1    0    0  501    0  0.00000000000E+00 -0.00000000000E+00 -0.24125239623E+04  0.24125239623E+04  0.00000000000E+00 0. -1.
         24    1    1    2    0    0  0.28882905372E+02 -0.58686086575E+02 -0.22424734228E+03  0.24704729397E+03  0.80419002446E+02 0.  1.
        -24    1    1    2    0    0 -0.28882905372E+02  0.58686086575E+02 -0.21756425946E+04  0.21781106938E+04  0.80419002446E+02 0. -1.
<mgrwt>
<rscale>  0 0.10366048E+03</rscale>
<asrwt>0</asrwt>
<pdfrwt beam="1">  1        1 0.37115759E+00 0.10366048E+03</pdfrwt>
<pdfrwt beam="2">  1       -1 0.19436959E-02 0.10366048E+03</pdfrwt>
<totfact> 0.13175865E+03</totfact>
</mgrwt>
</event>
<event>
 4    1  0.5124795E-001  0.9256638E+02  0.7546771E-02  0.1296753E+00
          1   -1    0    0  501    0  0.00000000000E+00  0.00000000000E+00  0.43943713777E+03  0.43943713777E+03  0.00000000000E+00 0. -1.
         -1   -1    0    0    0  501 -0.00000000000E+00 -0.00000000000E+00 -0.21111206586E+02  0.21111206586E+02  0.00000000000E+00 0.  1.
         24    1    1    2    0    0 -0.38113977779E+02 -0.25468462586E+02  0.14552523996E+03  0.17247066217E+03  0.80419002446E+02 0.  1.
        -24    1    1    2    0    0  0.38113977779E+02  0.25468462586E+02  0.27280069122E+03  0.28807768219E+03  0.80419002446E+02 0. -1.
<mgrwt>
<rscale>  0 0.92566375E+02</rscale>
<asrwt>0</asrwt>
<pdfrwt beam="1">  1        1 0.67605707E-01 0.92566375E+02</pdfrwt>
<pdfrwt beam="2">  1       -1 0.32478783E-02 0.92566375E+02</pdfrwt>
<totfact> 0.16349798E+04</totfact>
</mgrwt>
</event>
<event>
 4    1  0.5124795E-001  0.8093551E+02  0.7546771E-02  0.1326417E+00
          2   -1    0    0  501    0  0.00000000000E+00  0.00000000000E+00  0.15838464059E+03  0.15838464059E+03  0.00000000000E+00 0. -1.
         -2   -1    0    0    0  501 -0.00000000000E+00 -0.00000000000E+00 -0.43853826341E+02  0.43853826341E+02  0.00000000000E+00 0.  1.
         24    1    1    2    0    0  0.20233558512E+01 -0.89020422189E+01  0.81386161392E+02  0.11477919474E+03  0.80419002446E+02 0. -1.
        -24    1    1    2    0    0 -0.20233558512E+01  0.89020422189E+01  0.33144652854E+02  0.87459272189E+02  0.80419002446E+02 0.  0.
<mgrwt>
<rscale>  0 0.80935507E+02</rscale>
<asrwt>0</asrwt>
<pdfrwt beam="1">  1        2 0.24366867E-01 0.80935507E+02</pdfrwt>
<pdfrwt beam="2">  1       -2 0.67467426E-02 0.80935507E+02</pdfrwt>
<totfact> 0.23885276E+04</totfact>
</mgrwt>
</event>
<event>
 4    1  0.5124795E-001  0.1185496E+03  0.7546771E-02  0.1245509E+00
          1   -1    0    0  501    0  0.00000000000E+00  0.00000000000E+00  0.18093801272E+03  0.18093801272E+03  0.00000000000E+00 0. -1.
         -1   -1    0    0    0  501 -0.00000000000E+00 -0.00000000000E+00 -0.81758763677E+02  0.81758763677E+02  0.00000000000E+00 0.  1.
         24    1    1    2    0    0 -0.28536437407E+02  0.82294990059E+02  0.78951979203E+02  0.14243393073E+03  0.80419002446E+02 0.  0.
        -24    1    1    2    0    0  0.28536437407E+02 -0.82294990059E+02  0.20227269841E+02  0.12026284567E+03  0.80419002446E+02 0.  0.
<mgrwt>
<rscale>  0 0.11854962E+03</rscale>
<asrwt>0</asrwt>
<pdfrwt beam="1">  1        1 0.27836617E-01 0.11854964E+03</pdfrwt>
<pdfrwt beam="2">  1       -1 0.12578271E-01 0.11854964E+03</pdfrwt>
<totfact> 0.66693303E+03</totfact>
</mgrwt>
</event>
<event>
 4    1  0.5124795E-001  0.9430041E+02  0.7546771E-02  0.1292760E+00
         -1   -1    0    0    0  501 -0.00000000000E+00  0.00000000000E+00  0.46114069047E+03  0.46114069047E+03  0.00000000000E+00 0.  1.
          1   -1    0    0  501    0  0.00000000000E+00 -0.00000000000E+00 -0.22190356474E+02  0.22190356474E+02  0.00000000000E+00 0. -1.
         24    1    1    2    0    0  0.44235918775E+02  0.21645649134E+02  0.30693696840E+03  0.32109635495E+03  0.80419002446E+02 0.  1.
        -24    1    1    2    0    0 -0.44235918775E+02 -0.21645649134E+02  0.13201336559E+03  0.16223469199E+03  0.80419002446E+02 0. -1.
<mgrwt>
<rscale>  0 0.94300406E+02</rscale>
<asrwt>0</asrwt>
<pdfrwt beam="1">  1        1 0.34139013E-02 0.94300406E+02</pdfrwt>
<pdfrwt beam="2">  1       -1 0.70944714E-01 0.94300406E+02</pdfrwt>
<totfact> 0.54854075E+03</totfact>
</mgrwt>
</event>
<event>
 4    1  0.5124795E-001  0.8540837E+02  0.7546771E-02  0.1314368E+00
         -1   -1    0    0    0  501 -0.00000000000E+00  0.00000000000E+00  0.61528699838E+03  0.61528699838E+03  0.00000000000E+00 0.  1.
          1   -1    0    0  501    0  0.00000000000E+00 -0.00000000000E+00 -0.13209698954E+02  0.13209698954E+02  0.00000000000E+00 0. -1.
         24    1    1    2    0    0 -0.44725749224E+00  0.28760621489E+02  0.40165153903E+03  0.41063188886E+03  0.80419002446E+02 0.  1.
        -24    1    1    2    0    0  0.44725749224E+00 -0.28760621489E+02  0.20042576039E+03  0.21786480847E+03  0.80419002446E+02 0. -1.
<mgrwt>
<rscale>  0 0.85408368E+02</rscale>
<asrwt>0</asrwt>
<pdfrwt beam="1">  1        1 0.20322619E-02 0.85408368E+02</pdfrwt>
<pdfrwt beam="2">  1       -1 0.94659516E-01 0.85408368E+02</pdfrwt>
<totfact> 0.61464819E+03</totfact>
</mgrwt>
</event>
<event>
 4    1  0.5124795E-001  0.8101370E+02  0.7546771E-02  0.1326199E+00
         -3   -1    0    0    0  501 -0.00000000000E+00  0.00000000000E+00  0.25809383677E+03  0.25809383677E+03  0.00000000000E+00 0.  1.
          3   -1    0    0  501    0  0.00000000000E+00 -0.00000000000E+00 -0.34202066972E+02  0.34202066972E+02  0.00000000000E+00 0. -1.
         24    1    1    2    0    0 -0.90003595764E+01 -0.38725137037E+01  0.18596226387E+03  0.20284275282E+03  0.80419002446E+02 0.  1.
        -24    1    1    2    0    0  0.90003595764E+01  0.38725137037E+01  0.37929505926E+02  0.89453150917E+02  0.80419002446E+02 0.  1.
<mgrwt>
<rscale>  0 0.81013695E+02</rscale>
<asrwt>0</asrwt>
<pdfrwt beam="1">  1        3 0.52618566E-02 0.81013695E+02</pdfrwt>
<pdfrwt beam="2">  1       -3 0.39706743E-01 0.81013695E+02</pdfrwt>
<totfact> 0.27282016E+03</totfact>
</mgrwt>
</event>
<event>
 4    1  0.5124795E-001  0.8317963E+02  0.7546771E-02  0.1320263E+00
         -1   -1    0    0    0  501 -0.00000000000E+00  0.00000000000E+00  0.33920984405E+02  0.33920984405E+02  0.00000000000E+00 0.  1.
          1   -1    0    0  501    0  0.00000000000E+00 -0.00000000000E+00 -0.27050225229E+03  0.27050225229E+03  0.00000000000E+00 0. -1.
         24    1    1    2    0    0  0.53679727626E+01 -0.20562583523E+02 -0.42802332509E+02  0.93546194980E+02  0.80419002446E+02 0.  1.
        -24    1    1    2    0    0 -0.53679727626E+01  0.20562583523E+02 -0.19377893537E+03  0.21087704171E+03  0.80419002446E+02 0. -1.
<mgrwt>
<rscale>  0 0.83179630E+02</rscale>
<asrwt>0</asrwt>
<pdfrwt beam="1">  1        1 0.41615731E-01 0.83179630E+02</pdfrwt>
<pdfrwt beam="2">  1       -1 0.52186131E-02 0.83179630E+02</pdfrwt>
<totfact> 0.14754679E+04</totfact>
</mgrwt>
</event>
<event>
 4    1  0.5124795E-001  0.9066188E+02  0.7546771E-02  0.1301257E+00
          2   -1    0    0  501    0  0.00000000000E+00  0.00000000000E+00  0.28017820557E+04  0.28017820557E+04  0.00000000000E+00 0. -1.
         -2   -1    0    0    0  501 -0.00000000000E+00 -0.00000000000E+00 -0.30466030493E+01  0.30466030493E+01  0.00000000000E+00 0.  1.
         24    1    1    2    0    0 -0.28534187544E+02 -0.30629418668E+02  0.16693459485E+04  0.16718060512E+04  0.80419002446E+02 0. -1.
        -24    1    1    2    0    0  0.28534187544E+02  0.30629418668E+02  0.11293895041E+04  0.11330226075E+04  0.80419002446E+02 0.  0.
<mgrwt>
<rscale>  0 0.90661883E+02</rscale>
<asrwt>0</asrwt>
<pdfrwt beam="1">  1        2 0.43104133E+00 0.90661883E+02</pdfrwt>
<pdfrwt beam="2">  1       -2 0.46871040E-03 0.90661883E+02</pdfrwt>
<totfact> 0.16835681E+04</totfact>
</mgrwt>
</event>
<event>
 4    1  0.5124795E-001  0.1161442E+03  0.7546771E-02  0.1249597E+00
          3   -1    0    0  501    0  0.00000000000E+00  0.00000000000E+00  0.42767365646E+03  0.42767365646E+03  0.00000000000E+00 0. -1.
         -3   -1    0    0    0  501 -0.00000000000E+00 -0.00000000000E+00 -0.35223487474E+02  0.35223487474E+02  0.00000000000E+00 0.  1.
         24    1    1    2    0    0  0.56790118166E+02  0.61620943549E+02  0.12139457184E+03  0.16800629819E+03  0.80419002446E+02 0.  1.
        -24    1    1    2    0    0 -0.56790118166E+02 -0.61620943549E+02  0.27105559714E+03  0.29489084574E+03  0.80419002446E+02 0. -1.
<mgrwt>
<rscale>  0 0.11614420E+03</rscale>
<asrwt>0</asrwt>
<pdfrwt beam="1">  1        3 0.65795943E-01 0.11614420E+03</pdfrwt>
<pdfrwt beam="2">  1       -3 0.54189984E-02 0.11614420E+03</pdfrwt>
<totfact> 0.10234101E+03</totfact>
</mgrwt>
</event>
<event>
 4    1  0.5124795E-001  0.9851659E+02  0.7546771E-02  0.1283447E+00
          1   -1    0    0  501    0  0.00000000000E+00  0.00000000000E+00  0.33915269979E+03  0.33915269979E+03  0.00000000000E+00 0. -1.
         -1   -1    0    0    0  501 -0.00000000000E+00 -0.00000000000E+00 -0.44988249935E+02  0.44988249935E+02  0.00000000000E+00 0.  1.
         24    1    1    2    0    0  0.11388062297E+02 -0.55754943625E+02  0.31217143138E+02  0.10334421939E+03  0.80419002446E+02 0.  1.
        -24    1    1    2    0    0 -0.11388062297E+02  0.55754943625E+02  0.26294730672E+03  0.28079673033E+03  0.80419002446E+02 0. -1.
<mgrwt>
<rscale>  0 0.98516586E+02</rscale>
<asrwt>0</asrwt>
<pdfrwt beam="1">  1        1 0.52177337E-01 0.98516586E+02</pdfrwt>
<pdfrwt beam="2">  1       -1 0.69212694E-02 0.98516586E+02</pdfrwt>
<totfact> 0.74941671E+03</totfact>
</mgrwt>
</event>
<event>
 4    1  0.5124795E-001  0.8934368E+02  0.7546771E-02  0.1304449E+00
         -1   -1    0    0    0  501 -0.00000000000E+00  0.00000000000E+00  0.79737855907E+01  0.79737855907E+01  0.00000000000E+00 0.  1.
          1   -1    0    0  501    0  0.00000000000E+00 -0.00000000000E+00 -0.10437690134E+04  0.10437690134E+04  0.00000000000E+00 0. -1.
         24    1    1    2    0    0 -0.38566303455E+02  0.52647823603E+01 -0.41153193684E+03  0.42111854470E+03  0.80419002446E+02 0.  1.
        -24    1    1    2    0    0  0.38566303455E+02 -0.52647823603E+01 -0.62426329099E+03  0.63062425431E+03  0.80419002446E+02 0. -1.
<mgrwt>
<rscale>  0 0.89343683E+02</rscale>
<asrwt>0</asrwt>
<pdfrwt beam="1">  1        1 0.16057986E+00 0.89343683E+02</pdfrwt>
<pdfrwt beam="2">  1       -1 0.12267361E-02 0.89343683E+02</pdfrwt>
<totfact> 0.19160648E+04</totfact>
</mgrwt>
</event>
<event>
 4    1  0.5124795E-001  0.8162079E+02  0.7546771E-02  0.1324514E+00
          1   -1    0    0  501    0  0.00000000000E+00  0.00000000000E+00  0.14475150611E+04  0.14475150611E+04  0.00000000000E+00 0. -1.
         -1   -1    0    0    0  501 -0.00000000000E+00 -0.00000000000E+00 -0.12577372756E+02  0.12577372756E+02  0.00000000000E+00 0.  1.
         24    1    1    2    0    0 -0.79070162721E+01 -0.11498516245E+02  0.13614023505E+03  0.15873284580E+03  0.80419002446E+02 0.  1.
        -24    1    1    2    0    0  0.79070162721E+01  0.11498516245E+02  0.12987974533E+04  0.13013595880E+04  0.80419002446E+02 0. -1.
<mgrwt>
<rscale>  0 0.81620786E+02</rscale>
<asrwt>0</asrwt>
<pdfrwt beam="1">  1        1 0.22269449E+00 0.81620786E+02</pdfrwt>
<pdfrwt beam="2">  1       -1 0.19349816E-02 0.81620786E+02</pdfrwt>
<totfact> 0.53712606E+03</totfact>
</mgrwt>
</event>
<event>
 4    1  0.5124795E-001  0.8067332E+02  0.7546771E-02  0.1327151E+00
         -2   -1    0    0    0  501 -0.00000000000E+00  0.00000000000E+00  0.50038655377E+01  0.50038655377E+01  0.00000000000E+00 0.  1.
          2   -1    0    0  501    0  0.00000000000E+00 -0.00000000000E+00 -0.13197586848E+04  0.13197586848E+04  0.00000000000E+00 0. -1.
         24    1    1    2    0    0  0.63433347272E+01 -0.85318807253E+00 -0.57763415934E+03  0.58324043396E+03  0.80419002446E+02 0.  1.
        -24    1    1    2    0    0 -0.63433347272E+01  0.85318807253E+00 -0.73712065991E+03  0.74152211636E+03  0.80419002446E+02 0. -1.
<mgrwt>
<rscale>  0 0.80673313E+02</rscale>
<asrwt>0</asrwt>
<pdfrwt beam="1">  1        2 0.20303992E+00 0.80673323E+02</pdfrwt>
<pdfrwt beam="2">  1       -2 0.76982500E-03 0.80673323E+02</pdfrwt>
<totfact> 0.47993817E+04</totfact>
</mgrwt>
</event>
<event>
 4    1  0.5124795E-001  0.1183680E+03  0.7546771E-02  0.1245814E+00
          2   -1    0    0  501    0  0.00000000000E+00  0.00000000000E+00  0.64880032266E+03  0.64880032266E+03  0.00000000000E+00 0. -1.
         -2   -1    0    0    0  501 -0.00000000000E+00 -0.00000000000E+00 -0.29249208339E+02  0.29249208339E+02  0.00000000000E+00 0.  1.
         24    1    1    2    0    0 -0.72418550136E+02 -0.47951291011E+02  0.48320312549E+03  0.49748994880E+03  0.80419002446E+02 0. -1.
        -24    1    1    2    0    0  0.72418550136E+02  0.47951291011E+02  0.13634798883E+03  0.18055958220E+03  0.80419002446E+02 0.  1.
<mgrwt>
<rscale>  0 0.11836802E+03</rscale>
<asrwt>0</asrwt>
<pdfrwt beam="1">  1        2 0.99815424E-01 0.11836802E+03</pdfrwt>
<pdfrwt beam="2">  1       -2 0.44998787E-02 0.11836802E+03</pdfrwt>
<totfact> 0.10017312E+04</totfact>
</mgrwt>
</event>
<event>
 4    1  0.5124795E-001  0.8696143E+02  0.7546771E-02  0.1310381E+00
          1   -1    0    0  501    0  0.00000000000E+00  0.00000000000E+00  0.41303172467E+03  0.41303172467E+03  0.00000000000E+00 0. -1.
         -1   -1    0    0    0  501 -0.00000000000E+00 -0.00000000000E+00 -0.33905484298E+02  0.33905484298E+02  0.00000000000E+00 0.  1.
         24    1    1    2    0    0 -0.23404716654E+02  0.23394322323E+02  0.38000621748E+02  0.94901729627E+02  0.80419002446E+02 0.  1.
        -24    1    1    2    0    0  0.23404716654E+02 -0.23394322323E+02  0.34112561863E+03  0.35203547934E+03  0.80419002446E+02 0. -1.
<mgrwt>
<rscale>  0 0.86961434E+02</rscale>
<asrwt>0</asrwt>
<pdfrwt beam="1">  1        1 0.63543339E-01 0.86961434E+02</pdfrwt>
<pdfrwt beam="2">  1       -1 0.52162286E-02 0.86961434E+02</pdfrwt>
<totfact> 0.88249960E+03</totfact>
</mgrwt>
</event>
<event>
 4    1  0.5124795E-001  0.8067208E+02  0.7546771E-02  0.1327155E+00
         -2   -1    0    0    0  501 -0.00000000000E+00  0.00000000000E+00  0.55895123600E+02  0.55895123600E+02  0.00000000000E+00 0.  1.
          2   -1    0    0  501    0  0.00000000000E+00 -0.00000000000E+00 -0.18027959917E+04  0.18027959917E+04  0.00000000000E+00 0. -1.
         24    1    1    2    0    0  0.59967088211E+01  0.21925707260E+01 -0.17722846350E+04  0.17741197286E+04  0.80419002446E+02 0. -1.
        -24    1    1    2    0    0 -0.59967088211E+01 -0.21925707260E+01  0.25383766873E+02  0.84571386758E+02  0.80419002446E+02 0.  1.
<mgrwt>
<rscale>  0 0.80672076E+02</rscale>
<asrwt>0</asrwt>
<pdfrwt beam="1">  1        2 0.27735325E+00 0.80672076E+02</pdfrwt>
<pdfrwt beam="2">  1       -2 0.85992491E-02 0.80672076E+02</pdfrwt>
<totfact> 0.82493545E+02</totfact>
</mgrwt>
</event>
<event>
 4    1  0.5124795E-001  0.1191032E+03  0.7546771E-02  0.1244584E+00
         -1   -1    0    0    0  501 -0.00000000000E+00  0.00000000000E+00  0.62856994764E+03  0.62856994764E+03  0.00000000000E+00 0.  1.
          1   -1    0    0  501    0  0.00000000000E+00 -0.00000000000E+00 -0.47849009667E+02  0.47849009667E+02  0.00000000000E+00 0. -1.
         24    1    1    2    0    0 -0.45365644676E+02 -0.75234999862E+02  0.53619707763E+03  0.54926575438E+03  0.80419002446E+02 0.  1.
        -24    1    1    2    0    0  0.45365644676E+02  0.75234999862E+02  0.44523860348E+02  0.12715320293E+03  0.80419002446E+02 0. -1.
<mgrwt>
<rscale>  0 0.11910316E+03</rscale>
<asrwt>0</asrwt>
<pdfrwt beam="1">  1        1 0.73613866E-02 0.11910316E+03</pdfrwt>
<pdfrwt beam="2">  1       -1 0.96703063E-01 0.11910316E+03</pdfrwt>
<totfact> 0.10369072E+03</totfact>
</mgrwt>
</event>
<event>
 4    1  0.5124795E-001  0.8650820E+02  0.7546771E-02  0.1311535E+00
         -2   -1    0    0    0  501 -0.00000000000E+00  0.00000000000E+00  0.11428554219E+03  0.11428554219E+03  0.00000000000E+00 0.  1.
          2   -1    0    0  501    0  0.00000000000E+00 -0.00000000000E+00 -0.11701289602E+03  0.11701289602E+03  0.00000000000E+00 0. -1.
         24    1    1    2    0    0  0.15973996650E+02  0.27591304688E+02  0.75382896915E+02  0.11474426245E+03  0.80419002446E+02 0.  1.
        -24    1    1    2    0    0 -0.15973996650E+02 -0.27591304688E+02 -0.78110250739E+02  0.11655417577E+03  0.80419002446E+02 0.  0.
<mgrwt>
<rscale>  0 0.86508187E+02</rscale>
<asrwt>0</asrwt>
<pdfrwt beam="1">  1        2 0.18001984E-01 0.86508198E+02</pdfrwt>
<pdfrwt beam="2">  1       -2 0.17582391E-01 0.86508198E+02</pdfrwt>
<totfact> 0.74947904E+03</totfact>
</mgrwt>
</event>
<event>
 4    1  0.5124795E-001  0.8511290E+02  0.7546771E-02  0.1315138E+00
         -2   -1    0    0    0  501 -0.00000000000E+00  0.00000000000E+00  0.39165470803E+03  0.39165470803E+03  0.00000000000E+00 0.  1.
          2   -1    0    0  501    0  0.00000000000E+00 -0.00000000000E+00 -0.18512696115E+02  0.18512696115E+02  0.00000000000E+00 0. -1.
         24    1    1    2    0    0  0.59155388015E+01 -0.27239602294E+02  0.18048791213E+03  0.19954972291E+03  0.80419002446E+02 0.  0.
        -24    1    1    2    0    0 -0.59155388015E+01  0.27239602294E+02  0.19265409978E+03  0.21061768124E+03  0.80419002446E+02 0.  1.
<mgrwt>
<rscale>  0 0.85112898E+02</rscale>
<asrwt>0</asrwt>
<pdfrwt beam="1">  1        2 0.28481074E-02 0.85112898E+02</pdfrwt>
<pdfrwt beam="2">  1       -2 0.60254564E-01 0.85112898E+02</pdfrwt>
<totfact> 0.78920534E+03</totfact>
</mgrwt>
</event>
<event>
 4    1  0.5124795E-001  0.8143442E+02  0.7546771E-02  0.1325029E+00
          1   -1    0    0  501    0  0.00000000000E+00  0.00000000000E+00  0.21726366571E+03  0.21726366571E+03  0.00000000000E+00 0. -1.
         -1   -1    0    0    0  501 -0.00000000000E+00 -0.00000000000E+00 -0.33940937583E+02  0.33940937583E+02  0.00000000000E+00 0.  1.
         24    1    1    2    0    0 -0.60303470464E+01 -0.11313017995E+02  0.51803870834E+02  0.96515317175E+02  0.80419002446E+02 0.  1.
        -24    1    1    2    0    0  0.60303470464E+01  0.11313017995E+02  0.13151885730E+03  0.15468928612E+03  0.80419002446E+02 0. -1.
<mgrwt>
<rscale>  0 0.81434424E+02</rscale>
<asrwt>0</asrwt>
<pdfrwt beam="1">  1        1 0.33425178E-01 0.81434424E+02</pdfrwt>
<pdfrwt beam="2">  1       -1 0.52216828E-02 0.81434424E+02</pdfrwt>
<totfact> 0.19204313E+04</totfact>
</mgrwt>
</event>
<event>
 4    1  0.5124795E-001  0.8088639E+02  0.7546771E-02  0.1326555E+00
          2   -1    0    0  501    0  0.00000000000E+00  0.00000000000E+00  0.13547518284E+04  0.13547518284E+04  0.00000000000E+00 0. -1.
         -2   -1    0    0    0  501 -0.00000000000E+00 -0.00000000000E+00 -0.50687392537E+01  0.50687392537E+01  0.00000000000E+00 0.  1.
         24    1    1    2    0    0  0.61688484884E+01 -0.61104964512E+01  0.82259187756E+03  0.82655913632E+03  0.80419002446E+02 0.  0.
        -24    1    1    2    0    0 -0.61688484884E+01  0.61104964512E+01  0.52709121163E+03  0.53326143137E+03  0.80419002446E+02 0.  1.
<mgrwt>
<rscale>  0 0.80886394E+02</rscale>
<asrwt>0</asrwt>
<pdfrwt beam="1">  1        2 0.20842307E+00 0.80886394E+02</pdfrwt>
<pdfrwt beam="2">  1       -2 0.77980712E-03 0.80886394E+02</pdfrwt>
<totfact> 0.45205548E+04</totfact>
</mgrwt>
</event>
<event>
 4    1  0.5124795E-001  0.9732700E+02  0.7546771E-02  0.1286019E+00
          1   -1    0    0  501    0  0.00000000000E+00  0.00000000000E+00  0.69022005018E+03  0.69022005018E+03  0.00000000000E+00 0. -1.
         -1   -1    0    0    0  501 -0.00000000000E+00 -0.00000000000E+00 -0.30933424921E+02  0.30933424921E+02  0.00000000000E+00 0.  1.
         24    1    1    2    0    0 -0.49215478865E+02  0.24148808596E+02  0.60695799496E+02  0.11470189339E+03  0.80419002446E+02 0.  1.
        -24    1    1    2    0    0  0.49215478865E+02 -0.24148808596E+02  0.59859082576E+03  0.60645158171E+03  0.80419002446E+02 0. -1.
<mgrwt>
<rscale>  0 0.97326997E+02</rscale>
<asrwt>0</asrwt>
<pdfrwt beam="1">  1        1 0.10618769E+00 0.97326997E+02</pdfrwt>
<pdfrwt beam="2">  1       -1 0.47589890E-02 0.97326997E+02</pdfrwt>
<totfact> 0.51916636E+03</totfact>
</mgrwt>
</event>
<event>
 4    1  0.5124795E-001  0.8869151E+02  0.7546771E-02  0.1306052E+00
          1   -1    0    0  501    0  0.00000000000E+00  0.00000000000E+00  0.23687999765E+03  0.23687999765E+03  0.00000000000E+00 0. -1.
         -1   -1    0    0    0  501 -0.00000000000E+00 -0.00000000000E+00 -0.79724869931E+02  0.79724869931E+02  0.00000000000E+00 0.  1.
         24    1    1    2    0    0 -0.28066499658E+02  0.24723264239E+02 -0.42342515386E+02  0.98280581812E+02  0.80419002446E+02 0.  1.
        -24    1    1    2    0    0  0.28066499658E+02 -0.24723264239E+02  0.19949764310E+03  0.21832428577E+03  0.80419002446E+02 0. -1.
<mgrwt>
<rscale>  0 0.88691511E+02</rscale>
<asrwt>0</asrwt>
<pdfrwt beam="1">  1        1 0.36443076E-01 0.88691511E+02</pdfrwt>
<pdfrwt beam="2">  1       -1 0.12265365E-01 0.88691511E+02</pdfrwt>
<totfact> 0.48753009E+03</totfact>
</mgrwt>
</event>
<event>
 4    1  0.5124795E-001  0.8102540E+02  0.7546771E-02  0.1326166E+00
          2   -1    0    0  501    0  0.00000000000E+00  0.00000000000E+00  0.29072621130E+03  0.29072621130E+03  0.00000000000E+00 0. -1.
         -2   -1    0    0    0  501 -0.00000000000E+00 -0.00000000000E+00 -0.24056787610E+02  0.24056787610E+02  0.00000000000E+00 0.  1.
         24    1    1    2    0    0  0.35294773676E+01  0.92435304166E+01  0.17230729965E+03  0.19040725179E+03  0.80419002446E+02 0. -1.
        -24    1    1    2    0    0 -0.35294773676E+01 -0.92435304166E+01  0.94362124038E+02  0.12437574712E+03  0.80419002446E+02 0.  1.
<mgrwt>
<rscale>  0 0.81025404E+02</rscale>
<asrwt>0</asrwt>
<pdfrwt beam="1">  1        2 0.44727107E-01 0.81025404E+02</pdfrwt>
<pdfrwt beam="2">  1       -2 0.37010444E-02 0.81025404E+02</pdfrwt>
<totfact> 0.30558377E+04</totfact>
</mgrwt>
</event>
<event>
 4    1  0.5124795E-001  0.9909351E+02  0.7546771E-02  0.1282214E+00
         -1   -1    0    0    0  501 -0.00000000000E+00  0.00000000000E+00  0.11084640022E+02  0.11084640022E+02  0.00000000000E+00 0.  1.
          1   -1    0    0  501    0  0.00000000000E+00 -0.00000000000E+00 -0.12045376613E+04  0.12045376613E+04  0.00000000000E+00 0. -1.
         24    1    1    2    0    0 -0.12289256468E+02  0.56579868153E+02 -0.28409761575E+03  0.30088366279E+03  0.80419002446E+02 0.  0.
        -24    1    1    2    0    0  0.12289256468E+02 -0.56579868153E+02 -0.90935540553E+03  0.91473863853E+03  0.80419002446E+02 0.  0.
<mgrwt>
<rscale>  0 0.99093508E+02</rscale>
<asrwt>0</asrwt>
<pdfrwt beam="1">  1        1 0.18531347E+00 0.99093508E+02</pdfrwt>
<pdfrwt beam="2">  1       -1 0.17053294E-02 0.99093508E+02</pdfrwt>
<totfact> 0.93699129E+03</totfact>
</mgrwt>
</event>
<event>
 4    1  0.5124795E-001  0.9335516E+02  0.7546771E-02  0.1294924E+00
          1   -1    0    0  501    0  0.00000000000E+00  0.00000000000E+00  0.17588234486E+03  0.17588234486E+03  0.00000000000E+00 0. -1.
         -1   -1    0    0    0  501 -0.00000000000E+00 -0.00000000000E+00 -0.87376694803E+02  0.87376694803E+02  0.00000000000E+00 0.  1.
         24    1    1    2    0    0 -0.41064278146E+02  0.23700116928E+02 -0.42353105093E+02  0.10251327693E+03  0.80419002446E+02 0.  1.
        -24    1    1    2    0    0  0.41064278146E+02 -0.23700116928E+02  0.13085875515E+03  0.16074576273E+03  0.80419002446E+02 0. -1.
<mgrwt>
<rscale>  0 0.93355163E+02</rscale>
<asrwt>0</asrwt>
<pdfrwt beam="1">  1        1 0.27058822E-01 0.93355163E+02</pdfrwt>
<pdfrwt beam="2">  1       -1 0.13442568E-01 0.93355163E+02</pdfrwt>
<totfact> 0.61263755E+03</totfact>
</mgrwt>
</event>
<event>
 4    1  0.5124795E-001  0.8634665E+02  0.7546771E-02  0.1311948E+00
         -2   -1    0    0    0  501 -0.00000000000E+00  0.00000000000E+00  0.24378797266E+02  0.24378797266E+02  0.00000000000E+00 0.  1.
          2   -1    0    0  501    0  0.00000000000E+00 -0.00000000000E+00 -0.32022442396E+03  0.32022442396E+03  0.00000000000E+00 0. -1.
         24    1    1    2    0    0  0.23731347786E+02  0.20624040534E+02 -0.18445485289E+03  0.20366476530E+03  0.80419002446E+02 0. -1.
        -24    1    1    2    0    0 -0.23731347786E+02 -0.20624040534E+02 -0.11139077380E+03  0.14093845593E+03  0.80419002446E+02 0.  1.
<mgrwt>
<rscale>  0 0.86346649E+02</rscale>
<asrwt>0</asrwt>
<pdfrwt beam="1">  1        2 0.49265297E-01 0.86346649E+02</pdfrwt>
<pdfrwt beam="2">  1       -2 0.37505841E-02 0.86346649E+02</pdfrwt>
<totfact> 0.27305227E+04</totfact>
</mgrwt>
</event>
<event>
 4    1  0.5124795E-001  0.8866497E+02  0.7546771E-02  0.1306117E+00
         -1   -1    0    0    0  501 -0.00000000000E+00  0.00000000000E+00  0.34654220014E+02  0.34654220014E+02  0.00000000000E+00 0.  1.
          1   -1    0    0  501    0  0.00000000000E+00 -0.00000000000E+00 -0.24367771127E+03  0.24367771127E+03  0.00000000000E+00 0. -1.
         24    1    1    2    0    0  0.23599999250E+02  0.28936159302E+02 -0.67945926442E+02  0.11170553323E+03  0.80419002446E+02 0.  1.
        -24    1    1    2    0    0 -0.23599999250E+02 -0.28936159302E+02 -0.14107756481E+03  0.16662639805E+03  0.80419002446E+02 0. -1.
<mgrwt>
<rscale>  0 0.88664972E+02</rscale>
<asrwt>0</asrwt>
<pdfrwt beam="1">  1        1 0.37488880E-01 0.88664972E+02</pdfrwt>
<pdfrwt beam="2">  1       -1 0.53314183E-02 0.88664972E+02</pdfrwt>
<totfact> 0.16346436E+04</totfact>
</mgrwt>
</event>
<event>
 4    1  0.5124795E-001  0.8873220E+02  0.7546771E-02  0.1305951E+00
          2   -1    0    0  501    0  0.00000000000E+00  0.00000000000E+00  0.30223137210E+02  0.30223137210E+02  0.00000000000E+00 0. -1.
         -2   -1    0    0    0  501 -0.00000000000E+00 -0.00000000000E+00 -0.40916429560E+03  0.40916429560E+03  0.00000000000E+00 0.  1.
         24    1    1    2    0    0 -0.43492354747E+01  0.37246095255E+02 -0.57049000215E+02  0.10548929728E+03  0.80419002446E+02 0. -1.
        -24    1    1    2    0    0  0.43492354747E+01 -0.37246095255E+02 -0.32189215817E+03  0.33389813553E+03  0.80419002446E+02 0.  1.
<mgrwt>
<rscale>  0 0.88732201E+02</rscale>
<asrwt>0</asrwt>
<pdfrwt beam="1">  1        2 0.46497135E-02 0.88732201E+02</pdfrwt>
<pdfrwt beam="2">  1       -2 0.62948352E-01 0.88732201E+02</pdfrwt>
<totfact> 0.38077476E+03</totfact>
</mgrwt>
</event>
<event>
 4    1  0.5124795E-001  0.1201725E+03  0.7546771E-02  0.1242813E+00
          2   -1    0    0  501    0  0.00000000000E+00  0.00000000000E+00  0.33968184645E+04  0.33968184645E+04  0.00000000000E+00 0. -1.
         -2   -1    0    0    0  501 -0.00000000000E+00 -0.00000000000E+00 -0.66262280477E+01  0.66262280477E+01  0.00000000000E+00 0.  1.
         24    1    1    2    0    0  0.35334537412E+02  0.82010196032E+02  0.27138438431E+04  0.27165032344E+04  0.80419002446E+02 0. -1.
        -24    1    1    2    0    0 -0.35334537412E+02 -0.82010196032E+02  0.67634839343E+03  0.68694145823E+03  0.80419002446E+02 0.  1.
<mgrwt>
<rscale>  0 0.12017245E+03</rscale>
<asrwt>0</asrwt>
<pdfrwt beam="1">  1        2 0.52258606E+00 0.12017245E+03</pdfrwt>
<pdfrwt beam="2">  1       -2 0.10194224E-02 0.12017245E+03</pdfrwt>
<totfact> 0.25219418E+03</totfact>
</mgrwt>
</event>
<event>
 4    1  0.5124795E-001  0.8452957E+02  0.7546771E-02  0.1316667E+00
         -2   -1    0    0    0  501 -0.00000000000E+00  0.00000000000E+00  0.11382541524E+02  0.11382541524E+02  0.00000000000E+00 0.  1.
          2   -1    0    0  501    0  0.00000000000E+00 -0.00000000000E+00 -0.86889879895E+03  0.86889879895E+03  0.00000000000E+00 0. -1.
         24    1    1    2    0    0 -0.25481209494E+02  0.53609465662E+01 -0.66063676760E+03  0.66602266211E+03  0.80419002446E+02 0. -1.
        -24    1    1    2    0    0  0.25481209494E+02 -0.53609465662E+01 -0.19687948983E+03  0.21425867837E+03  0.80419002446E+02 0.  1.
<mgrwt>
<rscale>  0 0.84529567E+02</rscale>
<asrwt>0</asrwt>
<pdfrwt beam="1">  1        2 0.13367679E+00 0.84529567E+02</pdfrwt>
<pdfrwt beam="2">  1       -2 0.17511596E-02 0.84529567E+02</pdfrwt>
<totfact> 0.27090984E+04</totfact>
</mgrwt>
</event>
<event>
 4    1  0.5124795E-001  0.8243182E+02  0.7546771E-02  0.1322289E+00
          1   -1    0    0  501    0  0.00000000000E+00  0.00000000000E+00  0.16056213867E+04  0.16056213867E+04  0.00000000000E+00 0. -1.
         -1   -1    0    0    0  501 -0.00000000000E+00 -0.00000000000E+00 -0.46248044929E+01  0.46248044929E+01  0.00000000000E+00 0.  1.
         24    1    1    2    0    0  0.63129554639E+01 -0.16968666976E+02  0.56586018353E+03  0.57183280102E+03  0.80419002446E+02 0.  1.
        -24    1    1    2    0    0 -0.63129554639E+01  0.16968666976E+02  0.10351363986E+04  0.10384133901E+04  0.80419002446E+02 0. -1.
<mgrwt>
<rscale>  0 0.82431820E+02</rscale>
<asrwt>0</asrwt>
<pdfrwt beam="1">  1        1 0.24701823E+00 0.82431820E+02</pdfrwt>
<pdfrwt beam="2">  1       -1 0.71150967E-03 0.82431820E+02</pdfrwt>
<totfact> 0.17488824E+04</totfact>
</mgrwt>
</event>
<event>
 4    1  0.5124795E-001  0.9272143E+02  0.7546771E-02  0.1296392E+00
         -2   -1    0    0    0  501 -0.00000000000E+00  0.00000000000E+00  0.13487312076E+02  0.13487312076E+02  0.00000000000E+00 0.  1.
          2   -1    0    0  501    0  0.00000000000E+00 -0.00000000000E+00 -0.79375978550E+03  0.79375978550E+03  0.00000000000E+00 0. -1.
         24    1    1    2    0    0 -0.64266045785E+01 -0.45702796126E+02 -0.56925790965E+03  0.57675976843E+03  0.80419002446E+02 0. -1.
        -24    1    1    2    0    0  0.64266045785E+01  0.45702796126E+02 -0.21101456377E+03  0.23048732915E+03  0.80419002446E+02 0.  1.
<mgrwt>
<rscale>  0 0.92721426E+02</rscale>
<asrwt>0</asrwt>
<pdfrwt beam="1">  1        2 0.12211687E+00 0.92721426E+02</pdfrwt>
<pdfrwt beam="2">  1       -2 0.20749714E-02 0.92721426E+02</pdfrwt>
<totfact> 0.23975325E+04</totfact>
</mgrwt>
</event>
<event>
 4    1  0.5124795E-001  0.8742867E+02  0.7546771E-02  0.1309201E+00
          1   -1    0    0  501    0  0.00000000000E+00  0.00000000000E+00  0.95019374543E+02  0.95019374543E+02  0.00000000000E+00 0. -1.
         -1   -1    0    0    0  501 -0.00000000000E+00 -0.00000000000E+00 -0.13000670041E+03  0.13000670041E+03  0.00000000000E+00 0.  1.
         24    1    1    2    0    0 -0.28209800274E+02 -0.19513160399E+02 -0.86963440807E+02  0.12331428243E+03  0.80419002446E+02 0.  1.
        -24    1    1    2    0    0  0.28209800274E+02  0.19513160399E+02  0.51976114936E+02  0.10171179252E+03  0.80419002446E+02 0. -1.
<mgrwt>
<rscale>  0 0.87428669E+02</rscale>
<asrwt>0</asrwt>
<pdfrwt beam="1">  1        1 0.14618365E-01 0.87428669E+02</pdfrwt>
<pdfrwt beam="2">  1       -1 0.20001031E-01 0.87428669E+02</pdfrwt>
<totfact> 0.71017340E+03</totfact>
</mgrwt>
</event>
<event>
 4    1  0.5124795E-001  0.1063774E+03  0.7546771E-02  0.1267429E+00
         -2   -1    0    0    0  501 -0.00000000000E+00  0.00000000000E+00  0.98252460207E+01  0.98252460207E+01  0.00000000000E+00 0.  1.
          2   -1    0    0  501    0  0.00000000000E+00 -0.00000000000E+00 -0.38294837892E+04  0.38294837892E+04  0.00000000000E+00 0. -1.
         24    1    1    2    0    0  0.21282359370E+02  0.66302315115E+02 -0.35150593128E+04  0.35166686116E+04  0.80419002446E+02 0. -1.
        -24    1    1    2    0    0 -0.21282359370E+02 -0.66302315115E+02 -0.30459923036E+03  0.32264042354E+03  0.80419002446E+02 0.  1.
<mgrwt>
<rscale>  0 0.10637740E+03</rscale>
<asrwt>0</asrwt>
<pdfrwt beam="1">  1        2 0.58915163E+00 0.10637740E+03</pdfrwt>
<pdfrwt beam="2">  1       -2 0.15115756E-02 0.10637740E+03</pdfrwt>
<totfact> 0.74535209E+02</totfact>
</mgrwt>
</event>
<event>
 4    1  0.5124795E-001  0.1030075E+03  0.7546771E-02  0.1274096E+00
          2   -1    0    0  501    0  0.00000000000E+00  0.00000000000E+00  0.73033842374E+02  0.73033842374E+02  0.00000000000E+00 0. -1.
         -2   -1    0    0    0  501 -0.00000000000E+00 -0.00000000000E+00 -0.45234012295E+03  0.45234012295E+03  0.00000000000E+00 0.  1.
         24    1    1    2    0    0 -0.24195235713E+02 -0.59648309137E+02  0.26776067878E+02  0.10643074734E+03  0.80419002446E+02 0. -1.
        -24    1    1    2    0    0  0.24195235713E+02  0.59648309137E+02 -0.40608234846E+03  0.41894321799E+03  0.80419002446E+02 0.  1.
<mgrwt>
<rscale>  0 0.10300751E+03</rscale>
<asrwt>0</asrwt>
<pdfrwt beam="1">  1        2 0.11235976E-01 0.10300751E+03</pdfrwt>
<pdfrwt beam="2">  1       -2 0.69590787E-01 0.10300751E+03</pdfrwt>
<totfact> 0.10336770E+03</totfact>
</mgrwt>
</event>
<event>
 4    1  0.5124795E-001  0.8057852E+02  0.7546771E-02  0.1327418E+00
          1   -1    0    0  501    0  0.00000000000E+00  0.00000000000E+00  0.91119989371E+03  0.91119989371E+03  0.00000000000E+00 0. -1.
         -1   -1    0    0    0  501 -0.00000000000E+00 -0.00000000000E+00 -0.28651433506E+02  0.28651433506E+02  0.00000000000E+00 0.  1.
         24    1    1    2    0    0 -0.48003237823E+01  0.16245164544E+01  0.33954547613E+02  0.87440319190E+02  0.80419002446E+02 0.  1.
        -24    1    1    2    0    0  0.48003237823E+01 -0.16245164544E+01  0.84859391259E+03  0.85241100802E+03  0.80419002446E+02 0.  0.
<mgrwt>
<rscale>  0 0.80578521E+02</rscale>
<asrwt>0</asrwt>
<pdfrwt beam="1">  1        1 0.14018458E+00 0.80578521E+02</pdfrwt>
<pdfrwt beam="2">  1       -1 0.44079135E-02 0.80578521E+02</pdfrwt>
<totfact> 0.38130274E+03</totfact>
</mgrwt>
</event>
<event>
 4    1  0.5124795E-001  0.9349712E+02  0.7546771E-02  0.1294597E+00
         -2   -1    0    0    0  501 -0.00000000000E+00  0.00000000000E+00  0.23241449926E+02  0.23241449926E+02  0.00000000000E+00 0.  1.
          2   -1    0    0  501    0  0.00000000000E+00 -0.00000000000E+00 -0.65489156665E+03  0.65489156665E+03  0.00000000000E+00 0. -1.
         24    1    1    2    0    0 -0.11239509911E+02 -0.46348344592E+02 -0.53704273488E+03  0.54512073037E+03  0.80419002446E+02 0. -1.
        -24    1    1    2    0    0  0.11239509911E+02  0.46348344592E+02 -0.94607381838E+02  0.13301228621E+03  0.80419002446E+02 0.  1.
<mgrwt>
<rscale>  0 0.93497121E+02</rscale>
<asrwt>0</asrwt>
<pdfrwt beam="1">  1        2 0.10075255E+00 0.93497121E+02</pdfrwt>
<pdfrwt beam="2">  1       -2 0.35756077E-02 0.93497121E+02</pdfrwt>
<totfact> 0.13670236E+04</totfact>
</mgrwt>
</event>
<event>
 4    1  0.5124795E-001  0.8576044E+02  0.7546771E-02  0.1313456E+00
          2   -1    0    0  501    0  0.00000000000E+00  0.00000000000E+00  0.14213526215E+04  0.14213526215E+04  0.00000000000E+00 0. -1.
         -2   -1    0    0    0  501 -0.00000000000E+00 -0.00000000000E+00 -0.53371014970E+01  0.53371014970E+01  0.00000000000E+00 0.  1.
         24    1    1    2    0    0 -0.33521049264E+01  0.29604063714E+02  0.83250190463E+03  0.83690756620E+03  0.80419002446E+02 0.  0.
        -24    1    1    2    0    0  0.33521049264E+01 -0.29604063714E+02  0.58351361534E+03  0.58978215677E+03  0.80419002446E+02 0. -1.
<mgrwt>
<rscale>  0 0.85760440E+02</rscale>
<asrwt>0</asrwt>
<pdfrwt beam="1">  1        2 0.21866933E+00 0.85760440E+02</pdfrwt>
<pdfrwt beam="2">  1       -2 0.82109367E-03 0.85760440E+02</pdfrwt>
<totfact> 0.39058017E+04</totfact>
</mgrwt>
</event>
<event>
 4    1  0.5124795E-001  0.8145149E+02  0.7546771E-02  0.1324982E+00
         -2   -1    0    0    0  501 -0.00000000000E+00  0.00000000000E+00  0.10424282947E+03  0.10424282947E+03  0.00000000000E+00 0.  1.
          2   -1    0    0  501    0  0.00000000000E+00 -0.00000000000E+00 -0.77545474779E+02  0.77545474779E+02  0.00000000000E+00 0. -1.
         24    1    1    2    0    0 -0.12881737602E+02 -0.10907194789E+01 -0.25137166683E+02  0.85242137091E+02  0.80419002446E+02 0.  0.
        -24    1    1    2    0    0  0.12881737602E+02  0.10907194789E+01  0.51834521374E+02  0.96546167159E+02  0.80419002446E+02 0.  1.
<mgrwt>
<rscale>  0 0.81451487E+02</rscale>
<asrwt>0</asrwt>
<pdfrwt beam="1">  1        2 0.11930073E-01 0.81451487E+02</pdfrwt>
<pdfrwt beam="2">  1       -2 0.16037358E-01 0.81451487E+02</pdfrwt>
<totfact> 0.13937788E+04</totfact>
</mgrwt>
</event>
<event>
 4    1  0.5124795E-001  0.1469787E+03  0.7546771E-02  0.1204235E+00
         -1   -1    0    0    0  501 -0.00000000000E+00  0.00000000000E+00  0.12855176977E+02  0.12855176977E+02  0.00000000000E+00 0.  1.
          1   -1    0    0  501    0  0.00000000000E+00 -0.00000000000E+00 -0.18021144236E+04  0.18021144236E+04  0.00000000000E+00 0. -1.
         24    1    1    2    0    0  0.95059497750E+01 -0.12265870111E+03 -0.65885626280E+03  0.67505133955E+03  0.80419002446E+02 0.  1.
        -24    1    1    2    0    0 -0.95059497750E+01  0.12265870111E+03 -0.11304029839E+04  0.11399182611E+04  0.80419002446E+02 0. -1.
<mgrwt>
<rscale>  0 0.14697869E+03</rscale>
<asrwt>0</asrwt>
<pdfrwt beam="1">  1        1 0.27724839E+00 0.14697869E+03</pdfrwt>
<pdfrwt beam="2">  1       -1 0.19777194E-02 0.14697869E+03</pdfrwt>
<totfact> 0.31452847E+03</totfact>
</mgrwt>
</event>
<event>
 4    1  0.5124795E-001  0.8589165E+02  0.7546771E-02  0.1313117E+00
          2   -1    0    0  501    0  0.00000000000E+00  0.00000000000E+00  0.37763508953E+03  0.37763508953E+03  0.00000000000E+00 0. -1.
         -2   -1    0    0    0  501 -0.00000000000E+00 -0.00000000000E+00 -0.29920871625E+02  0.29920871625E+02  0.00000000000E+00 0.  1.
         24    1    1    2    0    0  0.30007098248E+02 -0.31200097493E+01  0.29391104106E+03  0.30620430503E+03  0.80419002446E+02 0. -1.
        -24    1    1    2    0    0 -0.30007098248E+02  0.31200097493E+01  0.53803176838E+02  0.10135165612E+03  0.80419002446E+02 0.  1.
<mgrwt>
<rscale>  0 0.85891655E+02</rscale>
<asrwt>0</asrwt>
<pdfrwt beam="1">  1        2 0.58097703E-01 0.85891655E+02</pdfrwt>
<pdfrwt beam="2">  1       -2 0.46032113E-02 0.85891655E+02</pdfrwt>
<totfact> 0.16995422E+04</totfact>
</mgrwt>
</event>
<event>
 4    1  0.5124795E-001  0.8087452E+02  0.7546771E-02  0.1326588E+00
         -2   -1    0    0    0  501 -0.00000000000E+00  0.00000000000E+00  0.51261094854E+03  0.51261094854E+03  0.00000000000E+00 0.  1.
          2   -1    0    0  501    0  0.00000000000E+00 -0.00000000000E+00 -0.33636428918E+02  0.33636428918E+02  0.00000000000E+00 0. -1.
         24    1    1    2    0    0 -0.85594564878E+01  0.45656514499E+00  0.24314574384E+02  0.84450501650E+02  0.80419002446E+02 0. -1.
        -24    1    1    2    0    0  0.85594564878E+01 -0.45656514499E+00  0.45465994524E+03  0.46179687580E+03  0.80419002446E+02 0.  1.
<mgrwt>
<rscale>  0 0.80874524E+02</rscale>
<asrwt>0</asrwt>
<pdfrwt beam="1">  1        2 0.51748356E-02 0.80874524E+02</pdfrwt>
<pdfrwt beam="2">  1       -2 0.78863217E-01 0.80874524E+02</pdfrwt>
<totfact> 0.20467133E+03</totfact>
</mgrwt>
</event>
<event>
 4    1  0.5124795E-001  0.8291493E+02  0.7546771E-02  0.1320977E+00
          2   -1    0    0  501    0  0.00000000000E+00  0.00000000000E+00  0.16745344019E+04  0.16745344019E+04  0.00000000000E+00 0. -1.
         -2   -1    0    0    0  501 -0.00000000000E+00 -0.00000000000E+00 -0.63866544074E+01  0.63866544074E+01  0.00000000000E+00 0.  1.
         24    1    1    2    0    0  0.45184455083E+01 -0.19678760512E+02  0.13363622486E+04  0.13389320168E+04  0.80419002446E+02 0. -1.
        -24    1    1    2    0    0 -0.45184455083E+01  0.19678760512E+02  0.33178549880E+03  0.34198903950E+03  0.80419002446E+02 0.  1.
<mgrwt>
<rscale>  0 0.82914932E+02</rscale>
<asrwt>0</asrwt>
<pdfrwt beam="1">  1        2 0.25762033E+00 0.82914932E+02</pdfrwt>
<pdfrwt beam="2">  1       -2 0.98256355E-03 0.82914932E+02</pdfrwt>
<totfact> 0.22500614E+04</totfact>
</mgrwt>
</event>
<event>
 4    1  0.5124795E-001  0.8060570E+02  0.7546771E-02  0.1327341E+00
         -1   -1    0    0    0  501 -0.00000000000E+00  0.00000000000E+00  0.98704383432E+01  0.98704383432E+01  0.00000000000E+00 0.  1.
          1   -1    0    0  501    0  0.00000000000E+00 -0.00000000000E+00 -0.78393407139E+03  0.78393407139E+03  0.00000000000E+00 0. -1.
         24    1    1    2    0    0  0.46946363375E+01  0.28325451342E+01 -0.22811388005E+03  0.24193639897E+03  0.80419002446E+02 0.  1.
        -24    1    1    2    0    0 -0.46946363375E+01 -0.28325451342E+01 -0.54594975300E+03  0.55186811076E+03  0.80419002446E+02 0.  0.
<mgrwt>
<rscale>  0 0.80605700E+02</rscale>
<asrwt>0</asrwt>
<pdfrwt beam="1">  1        1 0.12060529E+00 0.80605700E+02</pdfrwt>
<pdfrwt beam="2">  1       -1 0.15185283E-02 0.80605700E+02</pdfrwt>
<totfact> 0.22000633E+04</totfact>
</mgrwt>
</event>
<event>
 4    1  0.5124795E-001  0.8813614E+02  0.7546771E-02  0.1307429E+00
         -1   -1    0    0    0  501 -0.00000000000E+00  0.00000000000E+00  0.58628292732E+02  0.58628292732E+02  0.00000000000E+00 0.  1.
          1   -1    0    0  501    0  0.00000000000E+00 -0.00000000000E+00 -0.19967653505E+03  0.19967653505E+03  0.00000000000E+00 0. -1.
         24    1    1    2    0    0 -0.30765431672E+02  0.18821557808E+02  0.43898290231E+01  0.88245392953E+02  0.80419002446E+02 0.  1.
        -24    1    1    2    0    0  0.30765431672E+02 -0.18821557808E+02 -0.14543807134E+03  0.17005943483E+03  0.80419002446E+02 0. -1.
<mgrwt>
<rscale>  0 0.88136138E+02</rscale>
<asrwt>0</asrwt>
<pdfrwt beam="1">  1        1 0.30719467E-01 0.88136138E+02</pdfrwt>
<pdfrwt beam="2">  1       -1 0.90197372E-02 0.88136138E+02</pdfrwt>
<totfact> 0.95611027E+03</totfact>
</mgrwt>
</event>
<event>
 4    1  0.5124795E-001  0.2197309E+03  0.7546771E-02  0.1134084E+00
          2   -1    0    0  501    0  0.00000000000E+00  0.00000000000E+00  0.33347554901E+04  0.33347554901E+04  0.00000000000E+00 0. -1.
         -2   -1    0    0    0  501 -0.00000000000E+00 -0.00000000000E+00 -0.14512683759E+02  0.14512683759E+02  0.00000000000E+00 0.  1.
         24    1    1    2    0    0  0.48169861700E+02  0.19873123677E+03  0.15786324954E+04  0.15938513768E+04  0.80419002446E+02 0.  1.
        -24    1    1    2    0    0 -0.48169861700E+02 -0.19873123677E+03  0.17416103110E+04  0.17554167971E+04  0.80419002446E+02 0. -1.
<mgrwt>
<rscale>  0 0.21973090E+03</rscale>
<asrwt>0</asrwt>
<pdfrwt beam="1">  1        2 0.51303869E+00 0.21973093E+03</pdfrwt>
<pdfrwt beam="2">  1       -2 0.22327232E-02 0.21973093E+03</pdfrwt>
<totfact> 0.86346438E+02</totfact>
</mgrwt>
</event>
<event>
 4    1  0.5124795E-001  0.8626683E+02  0.7546771E-02  0.1312152E+00
         -1   -1    0    0    0  501 -0.00000000000E+00  0.00000000000E+00  0.10666565722E+02  0.10666565722E+02  0.00000000000E+00 0.  1.
          1   -1    0    0  501    0  0.00000000000E+00 -0.00000000000E+00 -0.82664359223E+03  0.82664359223E+03  0.00000000000E+00 0. -1.
         24    1    1    2    0    0  0.15473438060E+02  0.27116833205E+02 -0.24263538627E+03  0.25751484725E+03  0.80419002446E+02 0.  0.
        -24    1    1    2    0    0 -0.15473438060E+02 -0.27116833205E+02 -0.57334164024E+03  0.57979531070E+03  0.80419002446E+02 0.  1.
<mgrwt>
<rscale>  0 0.86266830E+02</rscale>
<asrwt>0</asrwt>
<pdfrwt beam="1">  1        1 0.12717600E+00 0.86266830E+02</pdfrwt>
<pdfrwt beam="2">  1       -1 0.16410093E-02 0.86266830E+02</pdfrwt>
<totfact> 0.18340280E+04</totfact>
</mgrwt>
</event>
<event>
 4    1  0.5124795E-001  0.8368279E+02  0.7546771E-02  0.1318914E+00
          1   -1    0    0  501    0  0.00000000000E+00  0.00000000000E+00  0.22110797382E+02  0.22110797382E+02  0.00000000000E+00 0. -1.
         -1   -1    0    0    0  501 -0.00000000000E+00 -0.00000000000E+00 -0.35451719263E+03  0.35451719263E+03  0.00000000000E+00 0.  1.
         24    1    1    2    0    0 -0.60606234584E+01 -0.22335228623E+02 -0.22769616725E+03  0.24258679710E+03  0.80419002446E+02 0.  1.
        -24    1    1    2    0    0  0.60606234584E+01  0.22335228623E+02 -0.10471022800E+03  0.13404119291E+03  0.80419002446E+02 0. -1.
<mgrwt>
<rscale>  0 0.83682791E+02</rscale>
<asrwt>0</asrwt>
<pdfrwt beam="1">  1        1 0.34016608E-02 0.83682791E+02</pdfrwt>
<pdfrwt beam="2">  1       -1 0.54541112E-01 0.83682791E+02</pdfrwt>
<totfact> 0.89744783E+03</totfact>
</mgrwt>
</event>
<event>
 4    1  0.5124795E-001  0.9672922E+02  0.7546771E-02  0.1287328E+00
         -1   -1    0    0    0  501 -0.00000000000E+00  0.00000000000E+00  0.15091817146E+02  0.15091817146E+02  0.00000000000E+00 0.  1.
          1   -1    0    0  501    0  0.00000000000E+00 -0.00000000000E+00 -0.62288706733E+03  0.62288706733E+03  0.00000000000E+00 0. -1.
         24    1    1    2    0    0  0.53056277076E+02  0.86231139149E+01 -0.28208511198E+03  0.29820890830E+03  0.80419002446E+02 0.  1.
        -24    1    1    2    0    0 -0.53056277076E+02 -0.86231139149E+01 -0.32571013820E+03  0.33976997617E+03  0.80419002446E+02 0.  0.
<mgrwt>
<rscale>  0 0.96729223E+02</rscale>
<asrwt>0</asrwt>
<pdfrwt beam="1">  1        1 0.95828765E-01 0.96729223E+02</pdfrwt>
<pdfrwt beam="2">  1       -1 0.23218184E-02 0.96729223E+02</pdfrwt>
<totfact> 0.16897555E+04</totfact>
</mgrwt>
</event>
<event>
 4    1  0.5124795E-001  0.9077949E+02  0.7546771E-02  0.1300975E+00
         -2   -1    0    0    0  501 -0.00000000000E+00  0.00000000000E+00  0.14167297364E+03  0.14167297364E+03  0.00000000000E+00 0.  1.
          2   -1    0    0  501    0  0.00000000000E+00 -0.00000000000E+00 -0.13889521288E+03  0.13889521288E+03  0.00000000000E+00 0. -1.
         24    1    1    2    0    0  0.36450483859E+02  0.21096511846E+02 -0.10555924925E+03  0.13922525505E+03  0.80419002446E+02 0. -1.
        -24    1    1    2    0    0 -0.36450483859E+02 -0.21096511846E+02  0.10833701001E+03  0.14134293148E+03  0.80419002446E+02 0.  1.
<mgrwt>
<rscale>  0 0.90779494E+02</rscale>
<asrwt>0</asrwt>
<pdfrwt beam="1">  1        2 0.21368494E-01 0.90779494E+02</pdfrwt>
<pdfrwt beam="2">  1       -2 0.21795842E-01 0.90779494E+02</pdfrwt>
<totfact> 0.43384270E+03</totfact>
</mgrwt>
</event>
<event>
 4    1  0.5124795E-001  0.9881220E+02  0.7546771E-02  0.1282814E+00
          2   -1    0    0  501    0  0.00000000000E+00  0.00000000000E+00  0.20844703325E+04  0.20844703325E+04  0.00000000000E+00 0. -1.
         -2   -1    0    0    0  501 -0.00000000000E+00 -0.00000000000E+00 -0.11088003731E+02  0.11088003731E+02  0.00000000000E+00 0.  1.
         24    1    1    2    0    0 -0.48942368970E+02 -0.30021322775E+02  0.18329710386E+04  0.18356325013E+04  0.80419002446E+02 0. -1.
        -24    1    1    2    0    0  0.48942368970E+02  0.30021322775E+02  0.24041129017E+03  0.25992583500E+03  0.80419002446E+02 0.  1.
<mgrwt>
<rscale>  0 0.98812202E+02</rscale>
<asrwt>0</asrwt>
<pdfrwt beam="1">  1        2 0.32068743E+00 0.98812202E+02</pdfrwt>
<pdfrwt beam="2">  1       -2 0.17058484E-02 0.98812202E+02</pdfrwt>
<totfact> 0.64468480E+03</totfact>
</mgrwt>
</event>
<event>
 4    1  0.5124795E-001  0.8828202E+02  0.7546771E-02  0.1307066E+00
         -2   -1    0    0    0  501 -0.00000000000E+00  0.00000000000E+00  0.45068709876E+02  0.45068709876E+02  0.00000000000E+00 0.  1.
          2   -1    0    0  501    0  0.00000000000E+00 -0.00000000000E+00 -0.17866863587E+03  0.17866863587E+03  0.00000000000E+00 0. -1.
         24    1    1    2    0    0  0.19684316420E+02 -0.30643554482E+02 -0.86849407504E+02  0.12384076583E+03  0.80419002446E+02 0. -1.
        -24    1    1    2    0    0 -0.19684316420E+02  0.30643554482E+02 -0.46750518487E+02  0.99896579909E+02  0.80419002446E+02 0. -1.
<mgrwt>
<rscale>  0 0.88282024E+02</rscale>
<asrwt>0</asrwt>
<pdfrwt beam="1">  1        2 0.27487482E-01 0.88282024E+02</pdfrwt>
<pdfrwt beam="2">  1       -2 0.69336477E-02 0.88282024E+02</pdfrwt>
<totfact> 0.20318687E+04</totfact>
</mgrwt>
</event>
<event>
 4    1  0.5124795E-001  0.1101040E+03  0.7546771E-02  0.1260377E+00
          2   -1    0    0  501    0  0.00000000000E+00  0.00000000000E+00  0.17141826158E+04  0.17141826158E+04  0.00000000000E+00 0. -1.
         -2   -1    0    0    0  501 -0.00000000000E+00 -0.00000000000E+00 -0.17931620604E+02  0.17931620604E+02  0.00000000000E+00 0.  1.
         24    1    1    2    0    0  0.71529442877E+02  0.23221188980E+02  0.15220973248E+04  0.15260744303E+04  0.80419002446E+02 0. -1.
        -24    1    1    2    0    0 -0.71529442877E+02 -0.23221188980E+02  0.17415367039E+03  0.20603980605E+03  0.80419002446E+02 0.  1.
<mgrwt>
<rscale>  0 0.11010405E+03</rscale>
<asrwt>0</asrwt>
<pdfrwt beam="1">  1        2 0.26372027E+00 0.11010405E+03</pdfrwt>
<pdfrwt beam="2">  1       -2 0.27587122E-02 0.11010405E+03</pdfrwt>
<totfact> 0.49645735E+03</totfact>
</mgrwt>
</event>
<event>
 4    1  0.5124795E-001  0.1247957E+03  0.7546771E-02  0.1235389E+00
          2   -1    0    0  501    0  0.00000000000E+00  0.00000000000E+00  0.20910579805E+04  0.20910579805E+04  0.00000000000E+00 0. -1.
         -2   -1    0    0    0  501 -0.00000000000E+00 -0.00000000000E+00 -0.78272932483E+01  0.78272932483E+01  0.00000000000E+00 0.  1.
         24    1    1    2    0    0 -0.52799069537E+02  0.79492167979E+02  0.12726650589E+04  0.12787690623E+04  0.80419002446E+02 0.  1.
        -24    1    1    2    0    0  0.52799069537E+02 -0.79492167979E+02  0.81056562835E+03  0.82011621148E+03  0.80419002446E+02 0. -1.
<mgrwt>
<rscale>  0 0.12479568E+03</rscale>
<asrwt>0</asrwt>
<pdfrwt beam="1">  1        2 0.32170078E+00 0.12479568E+03</pdfrwt>
<pdfrwt beam="2">  1       -2 0.12042006E-02 0.12479568E+03</pdfrwt>
<totfact> 0.10607788E+04</totfact>
</mgrwt>
</event>
<event>
 4    1  0.5124795E-001  0.8848595E+02  0.7546771E-02  0.1306560E+00
         -2   -1    0    0    0  501 -0.00000000000E+00  0.00000000000E+00  0.11306712415E+03  0.11306712415E+03  0.00000000000E+00 0.  1.
          2   -1    0    0  501    0  0.00000000000E+00 -0.00000000000E+00 -0.87535595780E+02  0.87535595780E+02  0.00000000000E+00 0. -1.
         24    1    1    2    0    0 -0.25654063354E+02  0.26540829304E+02 -0.33078319460E+02  0.94466595998E+02  0.80419002446E+02 0. -1.
        -24    1    1    2    0    0  0.25654063354E+02 -0.26540829304E+02  0.58609847832E+02  0.10613612393E+03  0.80419002446E+02 0.  1.
<mgrwt>
<rscale>  0 0.88485945E+02</rscale>
<asrwt>0</asrwt>
<pdfrwt beam="1">  1        2 0.13467015E-01 0.88485945E+02</pdfrwt>
<pdfrwt beam="2">  1       -2 0.17394942E-01 0.88485945E+02</pdfrwt>
<totfact> 0.10672867E+04</totfact>
</mgrwt>
</event>
<event>
 4    1  0.5124795E-001  0.8181840E+02  0.7546771E-02  0.1323969E+00
         -1   -1    0    0    0  501 -0.00000000000E+00  0.00000000000E+00  0.39258281276E+03  0.39258281276E+03  0.00000000000E+00 0.  1.
          1   -1    0    0  501    0  0.00000000000E+00 -0.00000000000E+00 -0.52339169923E+02  0.52339169923E+02  0.00000000000E+00 0. -1.
         24    1    1    2    0    0 -0.96995220760E+01  0.11530530093E+02  0.35278457527E+03  0.36214804480E+03  0.80419002446E+02 0.  1.
        -24    1    1    2    0    0  0.96995220760E+01 -0.11530530093E+02 -0.12540932426E+02  0.82773937886E+02  0.80419002446E+02 0. -1.
<mgrwt>
<rscale>  0 0.81818395E+02</rscale>
<asrwt>0</asrwt>
<pdfrwt beam="1">  1        1 0.80521803E-02 0.81818395E+02</pdfrwt>
<pdfrwt beam="2">  1       -1 0.60397354E-01 0.81818395E+02</pdfrwt>
<totfact> 0.23299913E+03</totfact>
</mgrwt>
</event>
<event>
 4    1  0.5124795E-001  0.8332506E+02  0.7546771E-02  0.1319872E+00
          2   -1    0    0  501    0  0.00000000000E+00  0.00000000000E+00  0.44678701775E+03  0.44678701775E+03  0.00000000000E+00 0. -1.
         -2   -1    0    0    0  501 -0.00000000000E+00 -0.00000000000E+00 -0.21685508647E+02  0.21685508647E+02  0.00000000000E+00 0.  1.
         24    1    1    2    0    0 -0.11422446532E+02 -0.18584324216E+02  0.33724563691E+03  0.34738693838E+03  0.80419002446E+02 0. -1.
        -24    1    1    2    0    0  0.11422446532E+02  0.18584324216E+02  0.87855872197E+02  0.12108558802E+03  0.80419002446E+02 0.  1.
<mgrwt>
<rscale>  0 0.83325058E+02</rscale>
<asrwt>0</asrwt>
<pdfrwt beam="1">  1        2 0.68736457E-01 0.83325058E+02</pdfrwt>
<pdfrwt beam="2">  1       -2 0.33362324E-02 0.83325058E+02</pdfrwt>
<totfact> 0.22754954E+04</totfact>
</mgrwt>
</event>
<event>
 4    1  0.5124795E-001  0.8158807E+02  0.7546771E-02  0.1324604E+00
          1   -1    0    0  501    0  0.00000000000E+00  0.00000000000E+00  0.21638514747E+04  0.21638514747E+04  0.00000000000E+00 0. -1.
         -1   -1    0    0    0  501 -0.00000000000E+00 -0.00000000000E+00 -0.31257740320E+01  0.31257740320E+01  0.00000000000E+00 0.  1.
         24    1    1    2    0    0  0.11804151146E+02 -0.70752356560E+01  0.94402318607E+03  0.94754228863E+03  0.80419002446E+02 0.  1.
        -24    1    1    2    0    0 -0.11804151146E+02  0.70752356560E+01  0.12167025146E+04  0.12194349601E+04  0.80419002446E+02 0. -1.
<mgrwt>
<rscale>  0 0.81588068E+02</rscale>
<asrwt>0</asrwt>
<pdfrwt beam="1">  1        1 0.33289903E+00 0.81588068E+02</pdfrwt>
<pdfrwt beam="2">  1       -1 0.48089004E-03 0.81588068E+02</pdfrwt>
<totfact> 0.13524493E+04</totfact>
</mgrwt>
</event>
<event>
 4    1  0.5124795E-001  0.1080319E+03  0.7546771E-02  0.1264259E+00
         -2   -1    0    0    0  501 -0.00000000000E+00  0.00000000000E+00  0.11071060811E+02  0.11071060811E+02  0.00000000000E+00 0.  1.
          2   -1    0    0  501    0  0.00000000000E+00 -0.00000000000E+00 -0.11575086193E+04  0.11575086193E+04  0.00000000000E+00 0. -1.
         24    1    1    2    0    0  0.62798117570E+02 -0.35497280850E+02 -0.39864489825E+03  0.41302376612E+03  0.80419002446E+02 0.  0.
        -24    1    1    2    0    0 -0.62798117570E+02  0.35497280850E+02 -0.74779266022E+03  0.75555591398E+03  0.80419002446E+02 0.  0.
<mgrwt>
<rscale>  0 0.10803184E+03</rscale>
<asrwt>0</asrwt>
<pdfrwt beam="1">  1        2 0.17807834E+00 0.10803186E+03</pdfrwt>
<pdfrwt beam="2">  1       -2 0.17032392E-02 0.10803186E+03</pdfrwt>
<totfact> 0.19499844E+04</totfact>
</mgrwt>
</event>
<event>
 4    1  0.5124795E-001  0.8582607E+02  0.7546771E-02  0.1313286E+00
         -1   -1    0    0    0  501 -0.00000000000E+00  0.00000000000E+00  0.11490695549E+03  0.11490695549E+03  0.00000000000E+00 0.  1.
          1   -1    0    0  501    0  0.00000000000E+00 -0.00000000000E+00 -0.11379687711E+03  0.11379687711E+03  0.00000000000E+00 0. -1.
         24    1    1    2    0    0 -0.34051062490E+01  0.29787643474E+02  0.76120062915E+02  0.11471869239E+03  0.80419002446E+02 0.  1.
        -24    1    1    2    0    0  0.34051062490E+01 -0.29787643474E+02 -0.75009984536E+02  0.11398514020E+03  0.80419002446E+02 0. -1.
<mgrwt>
<rscale>  0 0.85826071E+02</rscale>
<asrwt>0</asrwt>
<pdfrwt beam="1">  1        1 0.17507212E-01 0.85826071E+02</pdfrwt>
<pdfrwt beam="2">  1       -1 0.17677993E-01 0.85826071E+02</pdfrwt>
<totfact> 0.68495884E+03</totfact>
</mgrwt>
</event>
<event>
 4    1  0.5124795E-001  0.9608600E+02  0.7546771E-02  0.1288749E+00
         -2   -1    0    0    0  501 -0.00000000000E+00  0.00000000000E+00  0.83992728689E+02  0.83992728689E+02  0.00000000000E+00 0.  1.
          2   -1    0    0  501    0  0.00000000000E+00 -0.00000000000E+00 -0.11365106175E+03  0.11365106175E+03  0.00000000000E+00 0. -1.
         24    1    1    2    0    0  0.52166202485E+02 -0.66325349801E+01 -0.32733412090E+02  0.10150859778E+03  0.80419002446E+02 0.  1.
        -24    1    1    2    0    0 -0.52166202485E+02  0.66325349801E+01  0.30750790290E+01  0.96135192658E+02  0.80419002446E+02 0.  0.
<mgrwt>
<rscale>  0 0.96085999E+02</rscale>
<asrwt>0</asrwt>
<pdfrwt beam="1">  1        2 0.17484779E-01 0.96085999E+02</pdfrwt>
<pdfrwt beam="2">  1       -2 0.12921958E-01 0.96085999E+02</pdfrwt>
<totfact> 0.12880282E+04</totfact>
</mgrwt>
</event>
<event>
 4    1  0.5124795E-001  0.8567508E+02  0.7546771E-02  0.1313677E+00
          1   -1    0    0  501    0  0.00000000000E+00  0.00000000000E+00  0.14912550929E+04  0.14912550929E+04  0.00000000000E+00 0. -1.
         -1   -1    0    0    0  501 -0.00000000000E+00 -0.00000000000E+00 -0.49324466199E+01  0.49324466199E+01  0.00000000000E+00 0.  1.
         24    1    1    2    0    0  0.10650795966E+02  0.27560185424E+02  0.70902360491E+03  0.71418113357E+03  0.80419002446E+02 0. -1.
        -24    1    1    2    0    0 -0.10650795966E+02 -0.27560185424E+02  0.77729904136E+03  0.78200640594E+03  0.80419002446E+02 0.  1.
<mgrwt>
<rscale>  0 0.85675079E+02</rscale>
<asrwt>0</asrwt>
<pdfrwt beam="1">  1        1 0.22942350E+00 0.85675079E+02</pdfrwt>
<pdfrwt beam="2">  1       -1 0.75883914E-03 0.85675079E+02</pdfrwt>
<totfact> 0.18934517E+04</totfact>
</mgrwt>
</event>
<event>
 4    1  0.5124795E-001  0.8597680E+02  0.7546771E-02  0.1312898E+00
          1   -1    0    0  501    0  0.00000000000E+00  0.00000000000E+00  0.33841899731E+03  0.33841899731E+03  0.00000000000E+00 0. -1.
         -1   -1    0    0    0  501 -0.00000000000E+00 -0.00000000000E+00 -0.27902807486E+02  0.27902807486E+02  0.00000000000E+00 0.  1.
         24    1    1    2    0    0 -0.28781894349E+02  0.98181915447E+01  0.69899693907E+02  0.11080603544E+03  0.80419002446E+02 0.  1.
        -24    1    1    2    0    0  0.28781894349E+02 -0.98181915447E+01  0.24061649592E+03  0.25551576936E+03  0.80419002446E+02 0. -1.
<mgrwt>
<rscale>  0 0.85976801E+02</rscale>
<asrwt>0</asrwt>
<pdfrwt beam="1">  1        1 0.52064458E-01 0.85976801E+02</pdfrwt>
<pdfrwt beam="2">  1       -1 0.42927398E-02 0.85976801E+02</pdfrwt>
<totfact> 0.14977374E+04</totfact>
</mgrwt>
</event>
<event>
 4    1  0.5124795E-001  0.8290776E+02  0.7546771E-02  0.1320996E+00
         -2   -1    0    0    0  501 -0.00000000000E+00  0.00000000000E+00  0.20771799969E+03  0.20771799969E+03  0.00000000000E+00 0.  1.
          2   -1    0    0  501    0  0.00000000000E+00 -0.00000000000E+00 -0.33153299423E+02  0.33153299423E+02  0.00000000000E+00 0. -1.
         24    1    1    2    0    0  0.12314242009E+02  0.15963715635E+02  0.82081882501E+02  0.11666675689E+03  0.80419002446E+02 0. -1.
        -24    1    1    2    0    0 -0.12314242009E+02 -0.15963715635E+02  0.92482817763E+02  0.12420454222E+03  0.80419002446E+02 0.  1.
<mgrwt>
<rscale>  0 0.82907760E+02</rscale>
<asrwt>0</asrwt>
<pdfrwt beam="1">  1        2 0.51005078E-02 0.82907760E+02</pdfrwt>
<pdfrwt beam="2">  1       -2 0.31956614E-01 0.82907760E+02</pdfrwt>
<totfact> 0.12339042E+04</totfact>
</mgrwt>
</event>
<event>
 4    1  0.5124795E-001  0.8416818E+02  0.7546771E-02  0.1317622E+00
         -2   -1    0    0    0  501 -0.00000000000E+00  0.00000000000E+00  0.74934434882E+02  0.74934434882E+02  0.00000000000E+00 0.  1.
          2   -1    0    0  501    0  0.00000000000E+00 -0.00000000000E+00 -0.96646887548E+02  0.96646887548E+02  0.00000000000E+00 0. -1.
         24    1    1    2    0    0 -0.20701607125E+02  0.13729871650E+02 -0.23523808268E+02  0.87393657796E+02  0.80419002446E+02 0.  0.
        -24    1    1    2    0    0  0.20701607125E+02 -0.13729871650E+02  0.18113556026E+01  0.84187664634E+02  0.80419002446E+02 0. -1.
<mgrwt>
<rscale>  0 0.84168176E+02</rscale>
<asrwt>0</asrwt>
<pdfrwt beam="1">  1        2 0.14868752E-01 0.84168176E+02</pdfrwt>
<pdfrwt beam="2">  1       -2 0.11528375E-01 0.84168176E+02</pdfrwt>
<totfact> 0.18320871E+04</totfact>
</mgrwt>
</event>
<event>
 4    1  0.5124795E-001  0.8298988E+02  0.7546771E-02  0.1320775E+00
          1   -1    0    0  501    0  0.00000000000E+00  0.00000000000E+00  0.16729742152E+03  0.16729742152E+03  0.00000000000E+00 0. -1.
         -1   -1    0    0    0  501 -0.00000000000E+00 -0.00000000000E+00 -0.42015328619E+02  0.42015328619E+02  0.00000000000E+00 0.  1.
         24    1    1    2    0    0 -0.37981612373E+01 -0.20141360770E+02  0.77502558794E+02  0.11355158747E+03  0.80419002446E+02 0. -1.
        -24    1    1    2    0    0  0.37981612373E+01  0.20141360770E+02  0.47779534109E+02  0.95761162673E+02  0.80419002446E+02 0.  1.
<mgrwt>
<rscale>  0 0.82989868E+02</rscale>
<asrwt>0</asrwt>
<pdfrwt beam="1">  1        1 0.25738064E-01 0.82989878E+02</pdfrwt>
<pdfrwt beam="2">  1       -1 0.64638968E-02 0.82989878E+02</pdfrwt>
<totfact> 0.19382685E+04</totfact>
</mgrwt>
</event>
<event>
 4    1  0.5124795E-001  0.9689690E+02  0.7546771E-02  0.1286960E+00
          2   -1    0    0  501    0  0.00000000000E+00  0.00000000000E+00  0.59743844124E+02  0.59743844124E+02  0.00000000000E+00 0. -1.
         -2   -1    0    0    0  501 -0.00000000000E+00 -0.00000000000E+00 -0.19717229116E+03  0.19717229116E+03  0.00000000000E+00 0.  1.
         24    1    1    2    0    0 -0.37664227470E+02 -0.38771107580E+02 -0.10842626038E+02  0.97501647718E+02  0.80419002446E+02 0. -1.
        -24    1    1    2    0    0  0.37664227470E+02  0.38771107580E+02 -0.12658582100E+03  0.15941448757E+03  0.80419002446E+02 0.  1.
<mgrwt>
<rscale>  0 0.96896898E+02</rscale>
<asrwt>0</asrwt>
<pdfrwt beam="1">  1        2 0.91913607E-02 0.96896898E+02</pdfrwt>
<pdfrwt beam="2">  1       -2 0.30334198E-01 0.96896898E+02</pdfrwt>
<totfact> 0.65655561E+03</totfact>
</mgrwt>
</event>
<event>
 4    1  0.5124795E-001  0.8053000E+02  0.7546771E-02  0.1327554E+00
          2   -1    0    0  501    0  0.00000000000E+00  0.00000000000E+00  0.10611800385E+04  0.10611800385E+04  0.00000000000E+00 0. -1.
         -2   -1    0    0    0  501 -0.00000000000E+00 -0.00000000000E+00 -0.94958805416E+01  0.94958805416E+01  0.00000000000E+00 0.  1.
         24    1    1    2    0    0  0.13001919100E+01  0.40213803551E+01  0.20623264301E+03  0.22139778905E+03  0.80419002446E+02 0.  0.
        -24    1    1    2    0    0 -0.13001919100E+01 -0.40213803551E+01  0.84545151494E+03  0.84927812999E+03  0.80419002446E+02 0. -1.
<mgrwt>
<rscale>  0 0.80529992E+02</rscale>
<asrwt>0</asrwt>
<pdfrwt beam="1">  1        2 0.16325837E+00 0.80530002E+02</pdfrwt>
<pdfrwt beam="2">  1       -2 0.14609055E-02 0.80530002E+02</pdfrwt>
<totfact> 0.26819281E+04</totfact>
</mgrwt>
</event>
<event>
 4    1  0.5124795E-001  0.8328950E+02  0.7546771E-02  0.1319967E+00
         -2   -1    0    0    0  501 -0.00000000000E+00  0.00000000000E+00  0.40757597380E+01  0.40757597380E+01  0.00000000000E+00 0.  1.
          2   -1    0    0  501    0  0.00000000000E+00 -0.00000000000E+00 -0.20117029882E+04  0.20117029882E+04  0.00000000000E+00 0. -1.
         24    1    1    2    0    0  0.15889647003E+02  0.14745955872E+02 -0.13992437334E+04  0.14017204306E+04  0.80419002446E+02 0. -1.
        -24    1    1    2    0    0 -0.15889647003E+02 -0.14745955872E+02 -0.60838349508E+03  0.61405831738E+03  0.80419002446E+02 0.  1.
<mgrwt>
<rscale>  0 0.83289495E+02</rscale>
<asrwt>0</asrwt>
<pdfrwt beam="1">  1        2 0.30949276E+00 0.83289495E+02</pdfrwt>
<pdfrwt beam="2">  1       -2 0.62703997E-03 0.83289495E+02</pdfrwt>
<totfact> 0.28723820E+04</totfact>
</mgrwt>
</event>
<event>
 4    1  0.5124795E-001  0.8114554E+02  0.7546771E-02  0.1325832E+00
          3   -1    0    0  501    0  0.00000000000E+00  0.00000000000E+00  0.11145703347E+02  0.11145703347E+02  0.00000000000E+00 0. -1.
         -3   -1    0    0    0  501 -0.00000000000E+00 -0.00000000000E+00 -0.15109752354E+04  0.15109752354E+04  0.00000000000E+00 0.  1.
         24    1    1    2    0    0  0.95505338059E+01  0.51157245931E+01 -0.13438399457E+04  0.13462876361E+04  0.80419002446E+02 0.  1.
        -24    1    1    2    0    0 -0.95505338059E+01 -0.51157245931E+01 -0.15598958629E+03  0.17583330265E+03  0.80419002446E+02 0.  0.
<mgrwt>
<rscale>  0 0.81145544E+02</rscale>
<asrwt>0</asrwt>
<pdfrwt beam="1">  1        3 0.17147245E-02 0.81145544E+02</pdfrwt>
<pdfrwt beam="2">  1       -3 0.23245760E+00 0.81145544E+02</pdfrwt>
<totfact> 0.27447340E+02</totfact>
</mgrwt>
</event>
<event>
 4    1  0.5124795E-001  0.1005710E+03  0.7546771E-02  0.1279100E+00
         -2   -1    0    0    0  501 -0.00000000000E+00  0.00000000000E+00  0.78166624899E+02  0.78166624899E+02  0.00000000000E+00 0.  1.
          2   -1    0    0  501    0  0.00000000000E+00 -0.00000000000E+00 -0.14780994927E+03  0.14780994927E+03  0.00000000000E+00 0. -1.
         24    1    1    2    0    0  0.51268227094E+02  0.31919797465E+02 -0.74700657519E+02  0.12527852477E+03  0.80419002446E+02 0. -1.
        -24    1    1    2    0    0 -0.51268227094E+02 -0.31919797465E+02  0.50573331532E+01  0.10069804940E+03  0.80419002446E+02 0.  1.
<mgrwt>
<rscale>  0 0.10057097E+03</rscale>
<asrwt>0</asrwt>
<pdfrwt beam="1">  1        2 0.22739992E-01 0.10057097E+03</pdfrwt>
<pdfrwt beam="2">  1       -2 0.12025635E-01 0.10057097E+03</pdfrwt>
<totfact> 0.10803544E+04</totfact>
</mgrwt>
</event>
<event>
 4    1  0.5124795E-001  0.8235798E+02  0.7546771E-02  0.1322490E+00
          4   -1    0    0  501    0  0.00000000000E+00  0.00000000000E+00  0.11500363069E+03  0.11500363069E+03  0.00000000000E+00 0. -1.
         -4   -1    0    0    0  501 -0.00000000000E+00 -0.00000000000E+00 -0.83208831869E+02  0.83208831869E+02  0.00000000000E+00 0.  1.
         24    1    1    2    0    0 -0.35158532472E+01  0.17414353681E+02  0.69377043312E+02  0.10768477623E+03  0.80419002446E+02 0. -1.
        -24    1    1    2    0    0  0.35158532472E+01 -0.17414353681E+02 -0.37582244487E+02  0.90527686335E+02  0.80419002446E+02 0.  1.
<mgrwt>
<rscale>  0 0.82357980E+02</rscale>
<asrwt>0</asrwt>
<pdfrwt beam="1">  1        4 0.17692866E-01 0.82357980E+02</pdfrwt>
<pdfrwt beam="2">  1       -4 0.12801359E-01 0.82357980E+02</pdfrwt>
<totfact> 0.20256547E+03</totfact>
</mgrwt>
</event>
<event>
 4    1  0.5124795E-001  0.1359819E+03  0.7546771E-02  0.1218840E+00
          2   -1    0    0  501    0  0.00000000000E+00  0.00000000000E+00  0.40647314821E+02  0.40647314821E+02  0.00000000000E+00 0. -1.
         -2   -1    0    0    0  501 -0.00000000000E+00 -0.00000000000E+00 -0.51582938900E+03  0.51582938900E+03  0.00000000000E+00 0.  1.
         24    1    1    2    0    0 -0.37372638726E+02  0.10308806289E+03 -0.14197661400E+03  0.19659205913E+03  0.80419002446E+02 0. -1.
        -24    1    1    2    0    0  0.37372638726E+02 -0.10308806289E+03 -0.33320546018E+03  0.35988464469E+03  0.80419002446E+02 0.  1.
<mgrwt>
<rscale>  0 0.13598191E+03</rscale>
<asrwt>0</asrwt>
<pdfrwt beam="1">  1        2 0.62534330E-02 0.13598191E+03</pdfrwt>
<pdfrwt beam="2">  1       -2 0.79358368E-01 0.13598191E+03</pdfrwt>
<totfact> 0.16383692E+03</totfact>
</mgrwt>
</event>
<event>
 4    1  0.5124795E-001  0.8701838E+02  0.7546771E-02  0.1310237E+00
          1   -1    0    0  501    0  0.00000000000E+00  0.00000000000E+00  0.13027816468E+04  0.13027816468E+04  0.00000000000E+00 0. -1.
         -1   -1    0    0    0  501 -0.00000000000E+00 -0.00000000000E+00 -0.10550386053E+02  0.10550386053E+02  0.00000000000E+00 0.  1.
         24    1    1    2    0    0 -0.13971084380E+02 -0.30162742923E+02  0.20605712957E+03  0.22367775674E+03  0.80419002446E+02 0.  1.
        -24    1    1    2    0    0  0.13971084380E+02  0.30162742923E+02  0.10861741312E+04  0.10896542761E+04  0.80419002446E+02 0. -1.
<mgrwt>
<rscale>  0 0.87018379E+02</rscale>
<asrwt>0</asrwt>
<pdfrwt beam="1">  1        1 0.20042782E+00 0.87018379E+02</pdfrwt>
<pdfrwt beam="2">  1       -1 0.16231373E-02 0.87018379E+02</pdfrwt>
<totfact> 0.85818456E+03</totfact>
</mgrwt>
</event>
<event>
 4    1  0.5124795E-001  0.9528941E+02  0.7546771E-02  0.1290526E+00
         -2   -1    0    0    0  501 -0.00000000000E+00  0.00000000000E+00  0.40134432500E+02  0.40134432500E+02  0.00000000000E+00 0.  1.
          2   -1    0    0  501    0  0.00000000000E+00 -0.00000000000E+00 -0.23096743879E+03  0.23096743879E+03  0.00000000000E+00 0. -1.
         24    1    1    2    0    0 -0.15741552570E+02  0.48631875635E+02 -0.11480633275E+03  0.14919975134E+03  0.80419002446E+02 0.  0.
        -24    1    1    2    0    0  0.15741552570E+02 -0.48631875635E+02 -0.76026673537E+02  0.12190211995E+03  0.80419002446E+02 0.  1.
<mgrwt>
<rscale>  0 0.95289411E+02</rscale>
<asrwt>0</asrwt>
<pdfrwt beam="1">  1        2 0.35533452E-01 0.95289411E+02</pdfrwt>
<pdfrwt beam="2">  1       -2 0.61745281E-02 0.95289411E+02</pdfrwt>
<totfact> 0.18556820E+04</totfact>
</mgrwt>
</event>
<event>
 4    1  0.5124795E-001  0.8171169E+02  0.7546771E-02  0.1324263E+00
          1   -1    0    0  501    0  0.00000000000E+00  0.00000000000E+00  0.11266734441E+04  0.11266734441E+04  0.00000000000E+00 0. -1.
         -1   -1    0    0    0  501 -0.00000000000E+00 -0.00000000000E+00 -0.23177400837E+02  0.23177400837E+02  0.00000000000E+00 0.  1.
         24    1    1    2    0    0  0.54379647025E+01 -0.13416869772E+02  0.55738692878E+02  0.98912090731E+02  0.80419002446E+02 0.  1.
        -24    1    1    2    0    0 -0.54379647025E+01  0.13416869772E+02  0.10477573504E+04  0.10509387542E+04  0.80419002446E+02 0. -1.
<mgrwt>
<rscale>  0 0.81711687E+02</rscale>
<asrwt>0</asrwt>
<pdfrwt beam="1">  1        1 0.17333433E+00 0.81711687E+02</pdfrwt>
<pdfrwt beam="2">  1       -1 0.35657548E-02 0.81711687E+02</pdfrwt>
<totfact> 0.36414220E+03</totfact>
</mgrwt>
</event>
<event>
 4    1  0.5124795E-001  0.8176303E+02  0.7546771E-02  0.1324121E+00
         -1   -1    0    0    0  501 -0.00000000000E+00  0.00000000000E+00  0.40582428853E+03  0.40582428853E+03  0.00000000000E+00 0.  1.
          1   -1    0    0  501    0  0.00000000000E+00 -0.00000000000E+00 -0.26726628678E+03  0.26726628678E+03  0.00000000000E+00 0. -1.
         24    1    1    2    0    0 -0.27329335432E+00 -0.14761511736E+02  0.39528776258E+03  0.40365530855E+03  0.80419002446E+02 0.  1.
        -24    1    1    2    0    0  0.27329335432E+00  0.14761511736E+02 -0.25672976083E+03  0.26943526675E+03  0.80419002446E+02 0. -1.
<mgrwt>
<rscale>  0 0.81763029E+02</rscale>
<asrwt>0</asrwt>
<pdfrwt beam="1">  1        1 0.41117891E-01 0.81763029E+02</pdfrwt>
<pdfrwt beam="2">  1       -1 0.62434506E-01 0.81763029E+02</pdfrwt>
<totfact> 0.27999992E+02</totfact>
</mgrwt>
</event>
<event>
 4    1  0.5124795E-001  0.1221676E+03  0.7546771E-02  0.1239563E+00
          1   -1    0    0  501    0  0.00000000000E+00  0.00000000000E+00  0.19433061599E+03  0.19433061599E+03  0.00000000000E+00 0. -1.
         -1   -1    0    0    0  501 -0.00000000000E+00 -0.00000000000E+00 -0.15047741134E+03  0.15047741134E+03  0.00000000000E+00 0.  1.
         24    1    1    2    0    0  0.89442940778E+02 -0.21393115309E+02 -0.98708555190E+02  0.15706145249E+03  0.80419002446E+02 0.  1.
        -24    1    1    2    0    0 -0.89442940778E+02  0.21393115309E+02  0.14256175984E+03  0.18774657483E+03  0.80419002446E+02 0. -1.
<mgrwt>
<rscale>  0 0.12216759E+03</rscale>
<asrwt>0</asrwt>
<pdfrwt beam="1">  1        1 0.29897018E-01 0.12216759E+03</pdfrwt>
<pdfrwt beam="2">  1       -1 0.23150371E-01 0.12216759E+03</pdfrwt>
<totfact> 0.23322051E+03</totfact>
</mgrwt>
</event>
<event>
 4    1  0.5124795E-001  0.8264536E+02  0.7546771E-02  0.1321708E+00
          2   -1    0    0  501    0  0.00000000000E+00  0.00000000000E+00  0.24226809794E+04  0.24226809794E+04  0.00000000000E+00 0. -1.
         -2   -1    0    0    0  501 -0.00000000000E+00 -0.00000000000E+00 -0.39157811577E+01  0.39157811577E+01  0.00000000000E+00 0.  1.
         24    1    1    2    0    0 -0.94563650131E+01  0.16541341053E+02  0.18514192097E+04  0.18532628914E+04  0.80419002446E+02 0. -1.
        -24    1    1    2    0    0  0.94563650131E+01 -0.16541341053E+02  0.56734598851E+03  0.57333386908E+03  0.80419002446E+02 0.  0.
<mgrwt>
<rscale>  0 0.82645355E+02</rscale>
<asrwt>0</asrwt>
<pdfrwt beam="1">  1        2 0.37271895E+00 0.82645355E+02</pdfrwt>
<pdfrwt beam="2">  1       -2 0.60242981E-03 0.82645355E+02</pdfrwt>
<totfact> 0.18778531E+04</totfact>
</mgrwt>
</event>
<event>
 4    1  0.5124795E-001  0.8291651E+02  0.7546771E-02  0.1320973E+00
         -1   -1    0    0    0  501 -0.00000000000E+00  0.00000000000E+00  0.63657387547E+02  0.63657387547E+02  0.00000000000E+00 0.  1.
          1   -1    0    0  501    0  0.00000000000E+00 -0.00000000000E+00 -0.11456808237E+03  0.11456808237E+03  0.00000000000E+00 0. -1.
         24    1    1    2    0    0  0.11287460945E+01 -0.20165651790E+02 -0.46788329718E+02  0.95206571895E+02  0.80419002446E+02 0.  0.
        -24    1    1    2    0    0 -0.11287460945E+01  0.20165651790E+02 -0.41223651025E+01  0.83018898019E+02  0.80419002446E+02 0.  0.
<mgrwt>
<rscale>  0 0.82916496E+02</rscale>
<asrwt>0</asrwt>
<pdfrwt beam="1">  1        1 0.17625859E-01 0.82916506E+02</pdfrwt>
<pdfrwt beam="2">  1       -1 0.97934444E-02 0.82916506E+02</pdfrwt>
<totfact> 0.16744985E+04</totfact>
</mgrwt>
</event>
<event>
 4    1  0.5124795E-001  0.8839047E+02  0.7546771E-02  0.1306797E+00
         -2   -1    0    0    0  501 -0.00000000000E+00  0.00000000000E+00  0.85163635522E+02  0.85163635522E+02  0.00000000000E+00 0.  1.
          2   -1    0    0  501    0  0.00000000000E+00 -0.00000000000E+00 -0.40330770662E+03  0.40330770662E+03  0.00000000000E+00 0. -1.
         24    1    1    2    0    0  0.33485635935E+02 -0.14979013845E+02 -0.37374005891E+03  0.38405013508E+03  0.80419002446E+02 0. -1.
        -24    1    1    2    0    0 -0.33485635935E+02  0.14979013845E+02  0.55595987807E+02  0.10442120706E+03  0.80419002446E+02 0.  1.
<mgrwt>
<rscale>  0 0.88390467E+02</rscale>
<asrwt>0</asrwt>
<pdfrwt beam="1">  1        2 0.62047338E-01 0.88390467E+02</pdfrwt>
<pdfrwt beam="2">  1       -2 0.13102098E-01 0.88390467E+02</pdfrwt>
<totfact> 0.32172596E+03</totfact>
</mgrwt>
</event>
<event>
 4    1  0.5124795E-001  0.1011099E+03  0.7546771E-02  0.1277979E+00
         -1   -1    0    0    0  501 -0.00000000000E+00  0.00000000000E+00  0.74231384328E+03  0.74231384328E+03  0.00000000000E+00 0.  1.
          1   -1    0    0  501    0  0.00000000000E+00 -0.00000000000E+00 -0.17179922595E+02  0.17179922595E+02  0.00000000000E+00 0. -1.
         24    1    1    2    0    0  0.61141280322E+02 -0.42108352525E+01  0.53169810369E+03  0.54122645604E+03  0.80419002446E+02 0.  1.
        -24    1    1    2    0    0 -0.61141280322E+02  0.42108352525E+01  0.19343581699E+03  0.21826730983E+03  0.80419002446E+02 0. -1.
<mgrwt>
<rscale>  0 0.10110986E+03</rscale>
<asrwt>0</asrwt>
<pdfrwt beam="1">  1        1 0.26430656E-02 0.10110986E+03</pdfrwt>
<pdfrwt beam="2">  1       -1 0.11420211E+00 0.10110986E+03</pdfrwt>
<totfact> 0.28667522E+03</totfact>
</mgrwt>
</event>
<event>
 4    1  0.5124795E-001  0.8471193E+02  0.7546771E-02  0.1316188E+00
          2   -1    0    0  501    0  0.00000000000E+00  0.00000000000E+00  0.13291371155E+03  0.13291371155E+03  0.00000000000E+00 0. -1.
         -2   -1    0    0    0  501 -0.00000000000E+00 -0.00000000000E+00 -0.57723227747E+02  0.57723227747E+02  0.00000000000E+00 0.  1.
         24    1    1    2    0    0  0.25511253189E+02  0.76204286693E+01  0.61833443332E+02  0.10487843268E+03  0.80419002446E+02 0. -1.
        -24    1    1    2    0    0 -0.25511253189E+02 -0.76204286693E+01  0.13357040467E+02  0.85758506615E+02  0.80419002446E+02 0.  1.
<mgrwt>
<rscale>  0 0.84711929E+02</rscale>
<asrwt>0</asrwt>
<pdfrwt beam="1">  1        2 0.20448263E-01 0.84711929E+02</pdfrwt>
<pdfrwt beam="2">  1       -2 0.88804966E-02 0.84711929E+02</pdfrwt>
<totfact> 0.19168889E+04</totfact>
</mgrwt>
</event>
<event>
 4    1  0.5124795E-001  0.9370715E+02  0.7546771E-02  0.1294115E+00
         -1   -1    0    0    0  501 -0.00000000000E+00  0.00000000000E+00  0.18592323702E+02  0.18592323702E+02  0.00000000000E+00 0.  1.
          1   -1    0    0  501    0  0.00000000000E+00 -0.00000000000E+00 -0.50263589376E+03  0.50263589376E+03  0.00000000000E+00 0. -1.
         24    1    1    2    0    0 -0.15519591053E+02 -0.45529686097E+02 -0.30605407614E+03  0.32007830838E+03  0.80419002446E+02 0.  1.
        -24    1    1    2    0    0  0.15519591053E+02  0.45529686097E+02 -0.17798949392E+03  0.20114990908E+03  0.80419002446E+02 0.  0.
<mgrwt>
<rscale>  0 0.93707140E+02</rscale>
<asrwt>0</asrwt>
<pdfrwt beam="1">  1        1 0.77328606E-01 0.93707152E+02</pdfrwt>
<pdfrwt beam="2">  1       -1 0.28603572E-02 0.93707152E+02</pdfrwt>
<totfact> 0.16571258E+04</totfact>
</mgrwt>
</event>
<event>
 4    1  0.5124795E-001  0.8425365E+02  0.7546771E-02  0.1317396E+00
         -2   -1    0    0    0  501 -0.00000000000E+00  0.00000000000E+00  0.78681251251E+02  0.78681251251E+02  0.00000000000E+00 0.  1.
          2   -1    0    0  501    0  0.00000000000E+00 -0.00000000000E+00 -0.16510263562E+03  0.16510263562E+03  0.00000000000E+00 0. -1.
         24    1    1    2    0    0 -0.87405957365E+01  0.23559803969E+02 -0.12529998250E+03  0.15099259567E+03  0.80419002446E+02 0. -1.
        -24    1    1    2    0    0  0.87405957365E+01 -0.23559803969E+02  0.38878598131E+02  0.92791291207E+02  0.80419002446E+02 0.  1.
<mgrwt>
<rscale>  0 0.84253655E+02</rscale>
<asrwt>0</asrwt>
<pdfrwt beam="1">  1        2 0.25400405E-01 0.84253655E+02</pdfrwt>
<pdfrwt beam="2">  1       -2 0.12104808E-01 0.84253655E+02</pdfrwt>
<totfact> 0.93214433E+03</totfact>
</mgrwt>
</event>
<event>
 4    1  0.5124795E-001  0.1276061E+03  0.7546771E-02  0.1231052E+00
         -1   -1    0    0    0  501 -0.00000000000E+00  0.00000000000E+00  0.11671635732E+02  0.11671635732E+02  0.00000000000E+00 0.  1.
          1   -1    0    0  501    0  0.00000000000E+00 -0.00000000000E+00 -0.14579451606E+04  0.14579451606E+04  0.00000000000E+00 0. -1.
         24    1    1    2    0    0  0.67025478920E+02 -0.72963607797E+02 -0.57060006177E+03  0.58469457782E+03  0.80419002446E+02 0.  1.
        -24    1    1    2    0    0 -0.67025478920E+02  0.72963607797E+02 -0.87567346309E+03  0.88492221850E+03  0.80419002446E+02 0.  0.
<mgrwt>
<rscale>  0 0.12760611E+03</rscale>
<asrwt>0</asrwt>
<pdfrwt beam="1">  1        1 0.22429914E+00 0.12760611E+03</pdfrwt>
<pdfrwt beam="2">  1       -1 0.17956372E-02 0.12760611E+03</pdfrwt>
<totfact> 0.59918577E+03</totfact>
</mgrwt>
</event>
<event>
 4    1  0.5124795E-001  0.1479956E+03  0.7546771E-02  0.1202958E+00
          2   -1    0    0  501    0  0.00000000000E+00  0.00000000000E+00  0.21250623688E+04  0.21250623688E+04  0.00000000000E+00 0. -1.
         -2   -1    0    0    0  501 -0.00000000000E+00 -0.00000000000E+00 -0.20177264656E+02  0.20177264656E+02  0.00000000000E+00 0.  1.
         24    1    1    2    0    0  0.84378679992E+01 -0.12395279871E+03  0.18026515316E+04  0.18087164660E+04  0.80419002446E+02 0. -1.
        -24    1    1    2    0    0 -0.84378679992E+01  0.12395279871E+03  0.30223357246E+03  0.33652316741E+03  0.80419002446E+02 0.  1.
<mgrwt>
<rscale>  0 0.14799564E+03</rscale>
<asrwt>0</asrwt>
<pdfrwt beam="1">  1        2 0.32693250E+00 0.14799564E+03</pdfrwt>
<pdfrwt beam="2">  1       -2 0.31041962E-02 0.14799564E+03</pdfrwt>
<totfact> 0.25829567E+03</totfact>
</mgrwt>
</event>
<event>
 4    1  0.5124795E-001  0.9054764E+02  0.7546771E-02  0.1301531E+00
         -3   -1    0    0    0  501 -0.00000000000E+00  0.00000000000E+00  0.15045849681E+03  0.15045849681E+03  0.00000000000E+00 0.  1.
          3   -1    0    0  501    0  0.00000000000E+00 -0.00000000000E+00 -0.12974772634E+03  0.12974772634E+03  0.00000000000E+00 0. -1.
         24    1    1    2    0    0  0.71096714028E+01 -0.41001360278E+02  0.11705575946E+03  0.14798961365E+03  0.80419002446E+02 0.  1.
        -24    1    1    2    0    0 -0.71096714028E+01  0.41001360278E+02 -0.96344988985E+02  0.13221660951E+03  0.80419002446E+02 0. -1.
<mgrwt>
<rscale>  0 0.90547639E+02</rscale>
<asrwt>0</asrwt>
<pdfrwt beam="1">  1        3 0.19961189E-01 0.90547639E+02</pdfrwt>
<pdfrwt beam="2">  1       -3 0.23147461E-01 0.90547639E+02</pdfrwt>
<totfact> 0.83897663E+02</totfact>
</mgrwt>
</event>
<event>
 4    1  0.5124795E-001  0.8635017E+02  0.7546771E-02  0.1311939E+00
         -2   -1    0    0    0  501 -0.00000000000E+00  0.00000000000E+00  0.10867497469E+04  0.10867497469E+04  0.00000000000E+00 0.  1.
          2   -1    0    0  501    0  0.00000000000E+00 -0.00000000000E+00 -0.11836420791E+02  0.11836420791E+02  0.00000000000E+00 0. -1.
         24    1    1    2    0    0 -0.13275293510E+02  0.28511455496E+02  0.18133178229E+03  0.20084214631E+03  0.80419002446E+02 0.  0.
        -24    1    1    2    0    0  0.13275293510E+02 -0.28511455496E+02  0.89358154387E+03  0.89774402143E+03  0.80419002446E+02 0.  0.
<mgrwt>
<rscale>  0 0.86350174E+02</rscale>
<asrwt>0</asrwt>
<pdfrwt beam="1">  1        2 0.18209887E-02 0.86350174E+02</pdfrwt>
<pdfrwt beam="2">  1       -2 0.16719219E+00 0.86350174E+02</pdfrwt>
<totfact> 0.13818406E+03</totfact>
</mgrwt>
</event>
<event>
 4    1  0.5124795E-001  0.8475312E+02  0.7546771E-02  0.1316079E+00
          2   -1    0    0  501    0  0.00000000000E+00  0.00000000000E+00  0.15971503523E+04  0.15971503523E+04  0.00000000000E+00 0. -1.
         -2   -1    0    0    0  501 -0.00000000000E+00 -0.00000000000E+00 -0.48376236340E+01  0.48376236340E+01  0.00000000000E+00 0.  1.
         24    1    1    2    0    0 -0.21747208408E+02  0.15586369974E+02  0.10085631059E+04  0.10121178936E+04  0.80419002446E+02 0.  1.
        -24    1    1    2    0    0  0.21747208408E+02 -0.15586369974E+02  0.58374962277E+03  0.58987008235E+03  0.80419002446E+02 0.  0.
<mgrwt>
<rscale>  0 0.84753124E+02</rscale>
<asrwt>0</asrwt>
<pdfrwt beam="1">  1        2 0.24571502E+00 0.84753124E+02</pdfrwt>
<pdfrwt beam="2">  1       -2 0.74425106E-03 0.84753124E+02</pdfrwt>
<totfact> 0.36458753E+04</totfact>
</mgrwt>
</event>
<event>
 4    1  0.5124795E-001  0.9491038E+02  0.7546771E-02  0.1291378E+00
          1   -1    0    0  501    0  0.00000000000E+00  0.00000000000E+00  0.43632958904E+03  0.43632958904E+03  0.00000000000E+00 0. -1.
         -1   -1    0    0    0  501 -0.00000000000E+00 -0.00000000000E+00 -0.16732447202E+03  0.16732447202E+03  0.00000000000E+00 0.  1.
         24    1    1    2    0    0  0.47491583584E+02 -0.16891219417E+02 -0.14809162564E+03  0.17589516577E+03  0.80419002446E+02 0.  1.
        -24    1    1    2    0    0 -0.47491583584E+02  0.16891219417E+02  0.41709674266E+03  0.42775889528E+03  0.80419002446E+02 0. -1.
<mgrwt>
<rscale>  0 0.94910378E+02</rscale>
<asrwt>0</asrwt>
<pdfrwt beam="1">  1        1 0.67127628E-01 0.94910378E+02</pdfrwt>
<pdfrwt beam="2">  1       -1 0.25742227E-01 0.94910378E+02</pdfrwt>
<totfact> 0.71788368E+02</totfact>
</mgrwt>
</event>
<event>
 4    1  0.5124795E-001  0.8392918E+02  0.7546771E-02  0.1318257E+00
         -2   -1    0    0    0  501 -0.00000000000E+00  0.00000000000E+00  0.57631046087E+02  0.57631046087E+02  0.00000000000E+00 0.  1.
          2   -1    0    0  501    0  0.00000000000E+00 -0.00000000000E+00 -0.28167268409E+03  0.28167268409E+03  0.00000000000E+00 0. -1.
         24    1    1    2    0    0 -0.11884967201E+02  0.20871981283E+02 -0.23966227671E+03  0.25393328824E+03  0.80419002446E+02 0. -1.
        -24    1    1    2    0    0  0.11884967201E+02 -0.20871981283E+02  0.15620638703E+02  0.85370441933E+02  0.80419002446E+02 0.  1.
<mgrwt>
<rscale>  0 0.83929184E+02</rscale>
<asrwt>0</asrwt>
<pdfrwt beam="1">  1        2 0.43334259E-01 0.83929184E+02</pdfrwt>
<pdfrwt beam="2">  1       -2 0.88663149E-02 0.83929184E+02</pdfrwt>
<totfact> 0.85900756E+03</totfact>
</mgrwt>
</event>
<event>
 4    1  0.5124795E-001  0.8221432E+02  0.7546771E-02  0.1322882E+00
         -1   -1    0    0    0  501 -0.00000000000E+00  0.00000000000E+00  0.32167455776E+01  0.32167455776E+01  0.00000000000E+00 0.  1.
          1   -1    0    0  501    0  0.00000000000E+00 -0.00000000000E+00 -0.21874937138E+04  0.21874937138E+04  0.00000000000E+00 0. -1.
         24    1    1    2    0    0  0.79750345344E+01 -0.15112061535E+02 -0.13096295777E+04  0.13122076141E+04  0.80419002446E+02 0. -1.
        -24    1    1    2    0    0 -0.79750345344E+01  0.15112061535E+02 -0.87464739044E+03  0.87850284527E+03  0.80419002446E+02 0.  1.
<mgrwt>
<rscale>  0 0.82214313E+02</rscale>
<asrwt>0</asrwt>
<pdfrwt beam="1">  1        1 0.33653900E+00 0.82214323E+02</pdfrwt>
<pdfrwt beam="2">  1       -1 0.49488172E-03 0.82214323E+02</pdfrwt>
<totfact> 0.12562890E+04</totfact>
</mgrwt>
</event>
<event>
 4    1  0.5124795E-001  0.9462410E+02  0.7546771E-02  0.1292025E+00
         -4   -1    0    0    0  501 -0.00000000000E+00  0.00000000000E+00  0.16192512715E+03  0.16192512715E+03  0.00000000000E+00 0.  1.
          4   -1    0    0  501    0  0.00000000000E+00 -0.00000000000E+00 -0.55494288776E+02  0.55494288776E+02  0.00000000000E+00 0. -1.
         24    1    1    2    0    0  0.46033896822E+02  0.19167289360E+02  0.46707990406E+02  0.10552420083E+03  0.80419002446E+02 0. -1.
        -24    1    1    2    0    0 -0.46033896822E+02 -0.19167289360E+02  0.59722847964E+02  0.11189521510E+03  0.80419002446E+02 0.  0.
<mgrwt>
<rscale>  0 0.94624102E+02</rscale>
<asrwt>0</asrwt>
<pdfrwt beam="1">  1        4 0.85375830E-02 0.94624102E+02</pdfrwt>
<pdfrwt beam="2">  1       -4 0.24911558E-01 0.94624102E+02</pdfrwt>
<totfact> 0.22446055E+03</totfact>
</mgrwt>
</event>
<event>
 4    1  0.5124795E-001  0.8408295E+02  0.7546771E-02  0.1317848E+00
         -1   -1    0    0    0  501 -0.00000000000E+00  0.00000000000E+00  0.19118877927E+02  0.19118877927E+02  0.00000000000E+00 0.  1.
          1   -1    0    0  501    0  0.00000000000E+00 -0.00000000000E+00 -0.37059850419E+03  0.37059850419E+03  0.00000000000E+00 0. -1.
         24    1    1    2    0    0 -0.20509250523E+02  0.13494349946E+02 -0.16663042671E+03  0.18664308692E+03  0.80419002446E+02 0.  1.
        -24    1    1    2    0    0  0.20509250523E+02 -0.13494349946E+02 -0.18484919956E+03  0.20307429520E+03  0.80419002446E+02 0.  0.
<mgrwt>
<rscale>  0 0.84082952E+02</rscale>
<asrwt>0</asrwt>
<pdfrwt beam="1">  1        1 0.57015152E-01 0.84082952E+02</pdfrwt>
<pdfrwt beam="2">  1       -1 0.29413660E-02 0.84082952E+02</pdfrwt>
<totfact> 0.23074103E+04</totfact>
</mgrwt>
</event>
<event>
 4    1  0.5124795E-001  0.1011013E+03  0.7546771E-02  0.1277997E+00
         -1   -1    0    0    0  501 -0.00000000000E+00  0.00000000000E+00  0.47498873666E+02  0.47498873666E+02  0.00000000000E+00 0.  1.
          1   -1    0    0  501    0  0.00000000000E+00 -0.00000000000E+00 -0.24753903577E+03  0.24753903577E+03  0.00000000000E+00 0. -1.
         24    1    1    2    0    0 -0.36231137352E+01  0.61164809025E+02 -0.46695284136E+02  0.11136393640E+03  0.80419002446E+02 0.  1.
        -24    1    1    2    0    0  0.36231137352E+01 -0.61164809025E+02 -0.15334487797E+03  0.18367397303E+03  0.80419002446E+02 0. -1.
<mgrwt>
<rscale>  0 0.10110132E+03</rscale>
<asrwt>0</asrwt>
<pdfrwt beam="1">  1        1 0.38082929E-01 0.10110132E+03</pdfrwt>
<pdfrwt beam="2">  1       -1 0.73075189E-02 0.10110132E+03</pdfrwt>
<totfact> 0.10188330E+04</totfact>
</mgrwt>
</event>
<event>
 4    1  0.5124795E-001  0.8460751E+02  0.7546771E-02  0.1316462E+00
          2   -1    0    0  501    0  0.00000000000E+00  0.00000000000E+00  0.10551344663E+04  0.10551344663E+04  0.00000000000E+00 0. -1.
         -2   -1    0    0    0  501 -0.00000000000E+00 -0.00000000000E+00 -0.68239473943E+01  0.68239473943E+01  0.00000000000E+00 0.  1.
         24    1    1    2    0    0  0.48121566761E+01  0.25846747304E+02  0.48372004922E+03  0.49106365490E+03  0.80419002446E+02 0.  0.
        -24    1    1    2    0    0 -0.48121566761E+01 -0.25846747304E+02  0.56459046973E+03  0.57089475884E+03  0.80419002446E+02 0.  1.
<mgrwt>
<rscale>  0 0.84607499E+02</rscale>
<asrwt>0</asrwt>
<pdfrwt beam="1">  1        2 0.16232825E+00 0.84607510E+02</pdfrwt>
<pdfrwt beam="2">  1       -2 0.10498389E-02 0.84607510E+02</pdfrwt>
<totfact> 0.43393899E+04</totfact>
</mgrwt>
</event>
<event>
 4    1  0.5124795E-001  0.8957862E+02  0.7546771E-02  0.1303875E+00
         -1   -1    0    0    0  501 -0.00000000000E+00  0.00000000000E+00  0.27857648702E+01  0.27857648702E+01  0.00000000000E+00 0.  1.
          1   -1    0    0  501    0  0.00000000000E+00 -0.00000000000E+00 -0.29457585886E+04  0.29457585886E+04  0.00000000000E+00 0. -1.
         24    1    1    2    0    0 -0.24399987528E+01 -0.39384713289E+02 -0.16909599415E+04  0.16933309922E+04  0.80419002446E+02 0. -1.
        -24    1    1    2    0    0  0.24399987528E+01  0.39384713289E+02 -0.12520128822E+04  0.12552133613E+04  0.80419002446E+02 0.  1.
<mgrwt>
<rscale>  0 0.89578609E+02</rscale>
<asrwt>0</asrwt>
<pdfrwt beam="1">  1        1 0.45319681E+00 0.89578620E+02</pdfrwt>
<pdfrwt beam="2">  1       -1 0.42857620E-03 0.89578620E+02</pdfrwt>
<totfact> 0.49698033E+03</totfact>
</mgrwt>
</event>
<event>
 4    1  0.5124795E-001  0.9765369E+02  0.7546771E-02  0.1285309E+00
          2   -1    0    0  501    0  0.00000000000E+00  0.00000000000E+00  0.65433418105E+03  0.65433418105E+03  0.00000000000E+00 0. -1.
         -2   -1    0    0    0  501 -0.00000000000E+00 -0.00000000000E+00 -0.22233224305E+02  0.22233224305E+02  0.00000000000E+00 0.  1.
         24    1    1    2    0    0 -0.61274072178E+01  0.55058893370E+02  0.51460202069E+03  0.52378572194E+03  0.80419002446E+02 0. -1.
        -24    1    1    2    0    0  0.61274072178E+01 -0.55058893370E+02  0.11749893606E+03  0.15278168342E+03  0.80419002446E+02 0.  1.
<mgrwt>
<rscale>  0 0.97653688E+02</rscale>
<asrwt>0</asrwt>
<pdfrwt beam="1">  1        2 0.10066678E+00 0.97653688E+02</pdfrwt>
<pdfrwt beam="2">  1       -2 0.34204965E-02 0.97653688E+02</pdfrwt>
<totfact> 0.14654340E+04</totfact>
</mgrwt>
</event>
<event>
 4    1  0.5124795E-001  0.8418389E+02  0.7546771E-02  0.1317581E+00
          1   -1    0    0  501    0  0.00000000000E+00  0.00000000000E+00  0.37694090386E+03  0.37694090386E+03  0.00000000000E+00 0. -1.
         -1   -1    0    0    0  501 -0.00000000000E+00 -0.00000000000E+00 -0.59686585601E+02  0.59686585601E+02  0.00000000000E+00 0.  1.
         24    1    1    2    0    0 -0.23369930201E+02 -0.85765331908E+01 -0.22059866583E+02  0.87026227237E+02  0.80419002446E+02 0.  1.
        -24    1    1    2    0    0  0.23369930201E+02  0.85765331908E+01  0.33931418484E+03  0.34960126222E+03  0.80419002446E+02 0. -1.
<mgrwt>
<rscale>  0 0.84183885E+02</rscale>
<asrwt>0</asrwt>
<pdfrwt beam="1">  1        1 0.57990907E-01 0.84183885E+02</pdfrwt>
<pdfrwt beam="2">  1       -1 0.91825519E-02 0.84183885E+02</pdfrwt>
<totfact> 0.42682817E+03</totfact>
</mgrwt>
</event>
<event>
 4    1  0.5124795E-001  0.9675054E+02  0.7546771E-02  0.1287281E+00
         -4   -1    0    0    0  501 -0.00000000000E+00  0.00000000000E+00  0.37403131464E+02  0.37403131464E+02  0.00000000000E+00 0.  1.
          4   -1    0    0  501    0  0.00000000000E+00 -0.00000000000E+00 -0.29023984468E+03  0.29023984468E+03  0.00000000000E+00 0. -1.
         24    1    1    2    0    0 -0.19081795878E+02 -0.50292462565E+02 -0.65620202719E+02  0.11690454946E+03  0.80419002446E+02 0.  1.
        -24    1    1    2    0    0  0.19081795878E+02  0.50292462565E+02 -0.18721651050E+03  0.21073842668E+03  0.80419002446E+02 0.  0.
<mgrwt>
<rscale>  0 0.96750530E+02</rscale>
<asrwt>0</asrwt>
<pdfrwt beam="1">  1        4 0.44652283E-01 0.96750542E+02</pdfrwt>
<pdfrwt beam="2">  1       -4 0.57543281E-02 0.96750542E+02</pdfrwt>
<totfact> 0.14127991E+03</totfact>
</mgrwt>
</event>
<event>
 4    1  0.5124795E-001  0.8320543E+02  0.7546771E-02  0.1320193E+00
         -2   -1    0    0    0  501 -0.00000000000E+00  0.00000000000E+00  0.79103781666E+02  0.79103781666E+02  0.00000000000E+00 0.  1.
          2   -1    0    0  501    0  0.00000000000E+00 -0.00000000000E+00 -0.92966122139E+02  0.92966122139E+02  0.00000000000E+00 0. -1.
         24    1    1    2    0    0 -0.19893352733E+02  0.77576911508E+01 -0.27755268844E+02  0.87712588366E+02  0.80419002446E+02 0.  1.
        -24    1    1    2    0    0  0.19893352733E+02 -0.77576911508E+01  0.13892928371E+02  0.84357315439E+02  0.80419002446E+02 0.  0.
<mgrwt>
<rscale>  0 0.83205428E+02</rscale>
<asrwt>0</asrwt>
<pdfrwt beam="1">  1        2 0.14302480E-01 0.83205428E+02</pdfrwt>
<pdfrwt beam="2">  1       -2 0.12169813E-01 0.83205428E+02</pdfrwt>
<totfact> 0.17573248E+04</totfact>
</mgrwt>
</event>
<event>
 4    1  0.5124795E-001  0.8611653E+02  0.7546771E-02  0.1312538E+00
         -2   -1    0    0    0  501 -0.00000000000E+00  0.00000000000E+00  0.47879295601E+02  0.47879295601E+02  0.00000000000E+00 0.  1.
          2   -1    0    0  501    0  0.00000000000E+00 -0.00000000000E+00 -0.15553472396E+03  0.15553472396E+03  0.00000000000E+00 0. -1.
         24    1    1    2    0    0  0.17471906974E+02 -0.25368664743E+02 -0.47282509516E+02  0.98243006594E+02  0.80419002446E+02 0.  0.
        -24    1    1    2    0    0 -0.17471906974E+02  0.25368664743E+02 -0.60372918839E+02  0.10517101296E+03  0.80419002446E+02 0.  0.
<mgrwt>
<rscale>  0 0.86116517E+02</rscale>
<asrwt>0</asrwt>
<pdfrwt beam="1">  1        2 0.23928419E-01 0.86116528E+02</pdfrwt>
<pdfrwt beam="2">  1       -2 0.73660454E-02 0.86116528E+02</pdfrwt>
<totfact> 0.21488685E+04</totfact>
</mgrwt>
</event>
<event>
 4    1  0.5124795E-001  0.8523708E+02  0.7546771E-02  0.1314814E+00
          1   -1    0    0  501    0  0.00000000000E+00  0.00000000000E+00  0.12085464530E+04  0.12085464530E+04  0.00000000000E+00 0. -1.
         -1   -1    0    0    0  501 -0.00000000000E+00 -0.00000000000E+00 -0.20038726035E+02  0.20038726035E+02  0.00000000000E+00 0.  1.
         24    1    1    2    0    0  0.66281973497E+00 -0.28243657463E+02  0.80300416944E+02  0.11710472421E+03  0.80419002446E+02 0.  1.
        -24    1    1    2    0    0 -0.66281973497E+00  0.28243657463E+02  0.11082073100E+04  0.11114804548E+04  0.80419002446E+02 0. -1.
<mgrwt>
<rscale>  0 0.85237078E+02</rscale>
<asrwt>0</asrwt>
<pdfrwt beam="1">  1        1 0.18593017E+00 0.85237078E+02</pdfrwt>
<pdfrwt beam="2">  1       -1 0.30828819E-02 0.85237078E+02</pdfrwt>
<totfact> 0.39595206E+03</totfact>
</mgrwt>
</event>
<event>
 4    1  0.5124795E-001  0.8897254E+02  0.7546771E-02  0.1305359E+00
          2   -1    0    0  501    0  0.00000000000E+00  0.00000000000E+00  0.77806463794E+03  0.77806463794E+03  0.00000000000E+00 0. -1.
         -2   -1    0    0    0  501 -0.00000000000E+00 -0.00000000000E+00 -0.10067113840E+03  0.10067113840E+03  0.00000000000E+00 0.  1.
         24    1    1    2    0    0  0.37235642391E+02  0.78995940427E+01  0.75527154574E+03  0.76049406337E+03  0.80419002446E+02 0. -1.
        -24    1    1    2    0    0 -0.37235642391E+02 -0.78995940427E+01 -0.77878046204E+02  0.11824171297E+03  0.80419002446E+02 0.  1.
<mgrwt>
<rscale>  0 0.88972538E+02</rscale>
<asrwt>0</asrwt>
<pdfrwt beam="1">  1        2 0.11970225E+00 0.88972538E+02</pdfrwt>
<pdfrwt beam="2">  1       -2 0.15487868E-01 0.88972538E+02</pdfrwt>
<totfact> 0.11850856E+03</totfact>
</mgrwt>
</event>
<event>
 4    1  0.5124795E-001  0.8624916E+02  0.7546771E-02  0.1312198E+00
          1   -1    0    0  501    0  0.00000000000E+00  0.00000000000E+00  0.34765741023E+03  0.34765741023E+03  0.00000000000E+00 0. -1.
         -1   -1    0    0    0  501 -0.00000000000E+00 -0.00000000000E+00 -0.32792944299E+02  0.32792944299E+02  0.00000000000E+00 0.  1.
         24    1    1    2    0    0  0.31166800236E+02  0.57567343065E+00  0.45295486088E+02  0.97419699503E+02  0.80419002446E+02 0.  0.
        -24    1    1    2    0    0 -0.31166800236E+02 -0.57567343065E+00  0.26956897984E+03  0.28303065503E+03  0.80419002446E+02 0.  0.
<mgrwt>
<rscale>  0 0.86249155E+02</rscale>
<asrwt>0</asrwt>
<pdfrwt beam="1">  1        1 0.53485753E-01 0.86249155E+02</pdfrwt>
<pdfrwt beam="2">  1       -1 0.50450686E-02 0.86249155E+02</pdfrwt>
<totfact> 0.11455431E+04</totfact>
</mgrwt>
</event>
<event>
 4    1  0.5124795E-001  0.1095808E+03  0.7546771E-02  0.1261348E+00
         -1   -1    0    0    0  501 -0.00000000000E+00  0.00000000000E+00  0.23698528578E+03  0.23698528578E+03  0.00000000000E+00 0.  1.
          1   -1    0    0  501    0  0.00000000000E+00 -0.00000000000E+00 -0.22881500253E+03  0.22881500253E+03  0.00000000000E+00 0. -1.
         24    1    1    2    0    0  0.30624404105E+02 -0.67844517197E+02  0.20958656016E+03  0.23650470354E+03  0.80419002446E+02 0.  1.
        -24    1    1    2    0    0 -0.30624404105E+02  0.67844517197E+02 -0.20141627691E+03  0.22929558478E+03  0.80419002446E+02 0. -1.
<mgrwt>
<rscale>  0 0.10958079E+03</rscale>
<asrwt>0</asrwt>
<pdfrwt beam="1">  1        1 0.35202308E-01 0.10958079E+03</pdfrwt>
<pdfrwt beam="2">  1       -1 0.36459275E-01 0.10958079E+03</pdfrwt>
<totfact> 0.89092639E+02</totfact>
</mgrwt>
</event>
<event>
 4    1  0.5124795E-001  0.8220881E+02  0.7546771E-02  0.1322898E+00
         -2   -1    0    0    0  501 -0.00000000000E+00  0.00000000000E+00  0.25126634338E+01  0.25126634338E+01  0.00000000000E+00 0.  1.
          2   -1    0    0  501    0  0.00000000000E+00 -0.00000000000E+00 -0.27417414771E+04  0.27417414771E+04  0.00000000000E+00 0. -1.
         24    1    1    2    0    0  0.16790681750E+02 -0.30236209826E+01 -0.11805549495E+04  0.11834138220E+04  0.80419002446E+02 0.  1.
        -24    1    1    2    0    0 -0.16790681750E+02  0.30236209826E+01 -0.15586738642E+04  0.15608403186E+04  0.80419002446E+02 0. -1.
<mgrwt>
<rscale>  0 0.82208801E+02</rscale>
<asrwt>0</asrwt>
<pdfrwt beam="1">  1        2 0.42180616E+00 0.82208811E+02</pdfrwt>
<pdfrwt beam="2">  1       -2 0.38656381E-03 0.82208811E+02</pdfrwt>
<totfact> 0.23657302E+04</totfact>
</mgrwt>
</event>
<event>
 4    1  0.5124795E-001  0.1098641E+03  0.7546771E-02  0.1260822E+00
          2   -1    0    0  501    0  0.00000000000E+00  0.00000000000E+00  0.34716165983E+04  0.34716165983E+04  0.00000000000E+00 0. -1.
         -2   -1    0    0    0  501 -0.00000000000E+00 -0.00000000000E+00 -0.53862452387E+01  0.53862452387E+01  0.00000000000E+00 0.  1.
         24    1    1    2    0    0 -0.61816142746E+02 -0.42209845929E+02  0.27682225378E+04  0.27704018014E+04  0.80419002446E+02 0. -1.
        -24    1    1    2    0    0  0.61816142746E+02  0.42209845929E+02  0.69800781529E+03  0.70660104214E+03  0.80419002446E+02 0.  1.
<mgrwt>
<rscale>  0 0.10986411E+03</rscale>
<asrwt>0</asrwt>
<pdfrwt beam="1">  1        2 0.53409307E+00 0.10986411E+03</pdfrwt>
<pdfrwt beam="2">  1       -2 0.82865589E-03 0.10986411E+03</pdfrwt>
<totfact> 0.30429037E+03</totfact>
</mgrwt>
</event>
<event>
 4    1  0.5124795E-001  0.9893055E+02  0.7546771E-02  0.1282561E+00
         -2   -1    0    0    0  501 -0.00000000000E+00  0.00000000000E+00  0.12394119537E+02  0.12394119537E+02  0.00000000000E+00 0.  1.
          2   -1    0    0  501    0  0.00000000000E+00 -0.00000000000E+00 -0.26833535653E+04  0.26833535653E+04  0.00000000000E+00 0. -1.
         24    1    1    2    0    0  0.51324746072E+02 -0.26187932242E+02 -0.24677864894E+04  0.24697686957E+04  0.80419002446E+02 0. -1.
        -24    1    1    2    0    0 -0.51324746072E+02  0.26187932242E+02 -0.20317295643E+03  0.22597898914E+03  0.80419002446E+02 0.  1.
<mgrwt>
<rscale>  0 0.98930548E+02</rscale>
<asrwt>0</asrwt>
<pdfrwt beam="1">  1        2 0.41282361E+00 0.98930548E+02</pdfrwt>
<pdfrwt beam="2">  1       -2 0.19067877E-02 0.98930548E+02</pdfrwt>
<totfact> 0.26786262E+03</totfact>
</mgrwt>
</event>
<event>
 4    1  0.5124795E-001  0.8732087E+02  0.7546771E-02  0.1309472E+00
          1   -1    0    0  501    0  0.00000000000E+00  0.00000000000E+00  0.98518716838E+02  0.98518716838E+02  0.00000000000E+00 0. -1.
         -1   -1    0    0    0  501 -0.00000000000E+00 -0.00000000000E+00 -0.11842703701E+03  0.11842703701E+03  0.00000000000E+00 0.  1.
         24    1    1    2    0    0 -0.15227627772E+02 -0.30427572441E+02 -0.73803012107E+02  0.11433205308E+03  0.80419002446E+02 0.  1.
        -24    1    1    2    0    0  0.15227627772E+02  0.30427572441E+02  0.53894691932E+02  0.10261370077E+03  0.80419002446E+02 0. -1.
<mgrwt>
<rscale>  0 0.87320867E+02</rscale>
<asrwt>0</asrwt>
<pdfrwt beam="1">  1        1 0.15156726E-01 0.87320867E+02</pdfrwt>
<pdfrwt beam="2">  1       -1 0.18219544E-01 0.87320867E+02</pdfrwt>
<totfact> 0.78570636E+03</totfact>
</mgrwt>
</event>
<event>
 4    1  0.5124795E-001  0.8919339E+02  0.7546771E-02  0.1304817E+00
         -1   -1    0    0    0  501 -0.00000000000E+00  0.00000000000E+00  0.32681143586E+01  0.32681143586E+01  0.00000000000E+00 0.  1.
          1   -1    0    0  501    0  0.00000000000E+00 -0.00000000000E+00 -0.25816898477E+04  0.25816898477E+04  0.00000000000E+00 0. -1.
         24    1    1    2    0    0  0.22345516391E+02 -0.31447133425E+02 -0.98035556516E+03  0.98440463957E+03  0.80419002446E+02 0.  1.
        -24    1    1    2    0    0 -0.22345516391E+02  0.31447133425E+02 -0.15980661682E+04  0.16005533225E+04  0.80419002446E+02 0. -1.
<mgrwt>
<rscale>  0 0.89193387E+02</rscale>
<asrwt>0</asrwt>
<pdfrwt beam="1">  1        1 0.39718236E+00 0.89193387E+02</pdfrwt>
<pdfrwt beam="2">  1       -1 0.50278770E-03 0.89193387E+02</pdfrwt>
<totfact> 0.69158676E+03</totfact>
</mgrwt>
</event>
<event>
 4    1  0.5124795E-001  0.1122940E+03  0.7546771E-02  0.1256380E+00
          1   -1    0    0  501    0  0.00000000000E+00  0.00000000000E+00  0.67987800393E+02  0.67987800393E+02  0.00000000000E+00 0. -1.
         -1   -1    0    0    0  501 -0.00000000000E+00 -0.00000000000E+00 -0.19197186589E+03  0.19197186589E+03  0.00000000000E+00 0.  1.
         24    1    1    2    0    0  0.29195272168E+02  0.72734902368E+02 -0.38077932048E+02  0.11857434294E+03  0.80419002446E+02 0.  0.
        -24    1    1    2    0    0 -0.29195272168E+02 -0.72734902368E+02 -0.85906133453E+02  0.14138532335E+03  0.80419002446E+02 0.  0.
<mgrwt>
<rscale>  0 0.11229403E+03</rscale>
<asrwt>0</asrwt>
<pdfrwt beam="1">  1        1 0.10459662E-01 0.11229404E+03</pdfrwt>
<pdfrwt beam="2">  1       -1 0.29534133E-01 0.11229404E+03</pdfrwt>
<totfact> 0.59377999E+03</totfact>
</mgrwt>
</event>
<event>
 4    1  0.5124795E-001  0.9524310E+02  0.7546771E-02  0.1290629E+00
          2   -1    0    0  501    0  0.00000000000E+00  0.00000000000E+00  0.10618098938E+03  0.10618098938E+03  0.00000000000E+00 0. -1.
         -2   -1    0    0    0  501 -0.00000000000E+00 -0.00000000000E+00 -0.90027829550E+02  0.90027829550E+02  0.00000000000E+00 0.  1.
         24    1    1    2    0    0  0.51028255555E+02 -0.38725942293E+00  0.30242437560E+02  0.99929244062E+02  0.80419002446E+02 0. -1.
        -24    1    1    2    0    0 -0.51028255555E+02  0.38725942293E+00 -0.14089277733E+02  0.96279574865E+02  0.80419002446E+02 0.  1.
<mgrwt>
<rscale>  0 0.95243104E+02</rscale>
<asrwt>0</asrwt>
<pdfrwt beam="1">  1        2 0.16335537E-01 0.95243104E+02</pdfrwt>
<pdfrwt beam="2">  1       -2 0.13850435E-01 0.95243104E+02</pdfrwt>
<totfact> 0.12446369E+04</totfact>
</mgrwt>
</event>
<event>
 4    1  0.5124795E-001  0.1308115E+03  0.7546771E-02  0.1226257E+00
          2   -1    0    0  501    0  0.00000000000E+00  0.00000000000E+00  0.30608895705E+03  0.30608895705E+03  0.00000000000E+00 0. -1.
         -2   -1    0    0    0  501 -0.00000000000E+00 -0.00000000000E+00 -0.11339332036E+03  0.11339332036E+03  0.00000000000E+00 0.  1.
         24    1    1    2    0    0 -0.47136079308E+02  0.91774878588E+02  0.24569009460E+03  0.27834381052E+03  0.80419002446E+02 0. -1.
        -24    1    1    2    0    0  0.47136079308E+02 -0.91774878588E+02 -0.52994457917E+02  0.14113846689E+03  0.80419002446E+02 0.  1.
<mgrwt>
<rscale>  0 0.13081152E+03</rscale>
<asrwt>0</asrwt>
<pdfrwt beam="1">  1        2 0.47090608E-01 0.13081152E+03</pdfrwt>
<pdfrwt beam="2">  1       -2 0.17445126E-01 0.13081152E+03</pdfrwt>
<totfact> 0.27528344E+03</totfact>
</mgrwt>
</event>
<event>
 4    1  0.5124795E-001  0.8380997E+02  0.7546771E-02  0.1318574E+00
         -4   -1    0    0    0  501 -0.00000000000E+00  0.00000000000E+00  0.43886808737E+03  0.43886808737E+03  0.00000000000E+00 0.  1.
          4   -1    0    0  501    0  0.00000000000E+00 -0.00000000000E+00 -0.16019980353E+02  0.16019980353E+02  0.00000000000E+00 0. -1.
         24    1    1    2    0    0  0.14337288073E+02  0.18743981588E+02  0.20448317293E+03  0.22099203298E+03  0.80419002446E+02 0.  1.
        -24    1    1    2    0    0 -0.14337288073E+02 -0.18743981588E+02  0.21836493408E+03  0.23389603474E+03  0.80419002446E+02 0. -1.
<mgrwt>
<rscale>  0 0.83809967E+02</rscale>
<asrwt>0</asrwt>
<pdfrwt beam="1">  1        4 0.24646127E-02 0.83809967E+02</pdfrwt>
<pdfrwt beam="2">  1       -4 0.67518158E-01 0.83809967E+02</pdfrwt>
<totfact> 0.22071317E+03</totfact>
</mgrwt>
</event>
<event>
 4    1  0.5124795E-001  0.8177406E+02  0.7546771E-02  0.1324091E+00
          1   -1    0    0  501    0  0.00000000000E+00  0.00000000000E+00  0.12970616921E+04  0.12970616921E+04  0.00000000000E+00 0. -1.
         -1   -1    0    0    0  501 -0.00000000000E+00 -0.00000000000E+00 -0.96952581303E+01  0.96952581303E+01  0.00000000000E+00 0.  1.
         24    1    1    2    0    0  0.14405018806E+02  0.35037734644E+01  0.19658631341E+03  0.21291588849E+03  0.80419002446E+02 0.  0.
        -24    1    1    2    0    0 -0.14405018806E+02 -0.35037734644E+01  0.10907801206E+04  0.10938410618E+04  0.80419002446E+02 0. -1.
<mgrwt>
<rscale>  0 0.81774060E+02</rscale>
<asrwt>0</asrwt>
<pdfrwt beam="1">  1        1 0.19954782E+00 0.81774060E+02</pdfrwt>
<pdfrwt beam="2">  1       -1 0.14915792E-02 0.81774060E+02</pdfrwt>
<totfact> 0.97206244E+03</totfact>
</mgrwt>
</event>
<event>
 4    1  0.5124795E-001  0.1182347E+03  0.7546771E-02  0.1246038E+00
          2   -1    0    0  501    0  0.00000000000E+00  0.00000000000E+00  0.80069990633E+03  0.80069990633E+03  0.00000000000E+00 0. -1.
         -2   -1    0    0    0  501 -0.00000000000E+00 -0.00000000000E+00 -0.23582381078E+02  0.23582381078E+02  0.00000000000E+00 0.  1.
         24    1    1    2    0    0  0.62859780894E+02 -0.59673151188E+02  0.59857182791E+03  0.61013743218E+03  0.80419002446E+02 0. -1.
        -24    1    1    2    0    0 -0.62859780894E+02  0.59673151188E+02  0.17854569734E+03  0.21414485523E+03  0.80419002446E+02 0.  1.
<mgrwt>
<rscale>  0 0.11823474E+03</rscale>
<asrwt>0</asrwt>
<pdfrwt beam="1">  1        2 0.12318458E+00 0.11823474E+03</pdfrwt>
<pdfrwt beam="2">  1       -2 0.36280593E-02 0.11823474E+03</pdfrwt>
<totfact> 0.10722904E+04</totfact>
</mgrwt>
</event>
<event>
 4    1  0.5124795E-001  0.8662423E+02  0.7546771E-02  0.1311239E+00
         -2   -1    0    0    0  501 -0.00000000000E+00  0.00000000000E+00  0.48139252750E+01  0.48139252750E+01  0.00000000000E+00 0.  1.
          2   -1    0    0  501    0  0.00000000000E+00 -0.00000000000E+00 -0.17913899372E+04  0.17913899372E+04  0.00000000000E+00 0. -1.
         24    1    1    2    0    0  0.30828900518E+02  0.92799063251E+01 -0.56964706742E+03  0.57619574378E+03  0.80419002446E+02 0.  0.
        -24    1    1    2    0    0 -0.30828900518E+02 -0.92799063251E+01 -0.12169289445E+04  0.12200081187E+04  0.80419002446E+02 0. -1.
<mgrwt>
<rscale>  0 0.86624221E+02</rscale>
<asrwt>0</asrwt>
<pdfrwt beam="1">  1        2 0.27559874E+00 0.86624231E+02</pdfrwt>
<pdfrwt beam="2">  1       -2 0.74060312E-03 0.86624231E+02</pdfrwt>
<totfact> 0.29385342E+04</totfact>
</mgrwt>
</event>
<event>
 4    1  0.5124795E-001  0.8342181E+02  0.7546771E-02  0.1319612E+00
         -2   -1    0    0    0  501 -0.00000000000E+00  0.00000000000E+00  0.66556354073E+02  0.66556354073E+02  0.00000000000E+00 0.  1.
          2   -1    0    0  501    0  0.00000000000E+00 -0.00000000000E+00 -0.23000028793E+03  0.23000028793E+03  0.00000000000E+00 0. -1.
         24    1    1    2    0    0 -0.21963100878E+02 -0.30991641009E+01 -0.19122603902E+03  0.20863028680E+03  0.80419002446E+02 0. -1.
        -24    1    1    2    0    0  0.21963100878E+02  0.30991641009E+01  0.27782105158E+02  0.87926355205E+02  0.80419002446E+02 0.  1.
<mgrwt>
<rscale>  0 0.83421811E+02</rscale>
<asrwt>0</asrwt>
<pdfrwt beam="1">  1        2 0.35384661E-01 0.83421811E+02</pdfrwt>
<pdfrwt beam="2">  1       -2 0.10239439E-01 0.83421811E+02</pdfrwt>
<totfact> 0.84974044E+03</totfact>
</mgrwt>
</event>
<event>
 4    1  0.5124795E-001  0.9680558E+02  0.7546771E-02  0.1287160E+00
         -1   -1    0    0    0  501 -0.00000000000E+00  0.00000000000E+00  0.23267280175E+02  0.23267280175E+02  0.00000000000E+00 0.  1.
          1   -1    0    0  501    0  0.00000000000E+00 -0.00000000000E+00 -0.40352161449E+03  0.40352161449E+03  0.00000000000E+00 0. -1.
         24    1    1    2    0    0 -0.40974259412E+02  0.35003074626E+02 -0.18090655676E+03  0.20517919826E+03  0.80419002446E+02 0. -1.
        -24    1    1    2    0    0  0.40974259412E+02 -0.35003074626E+02 -0.19934777756E+03  0.22160969640E+03  0.80419002446E+02 0.  1.
<mgrwt>
<rscale>  0 0.96805584E+02</rscale>
<asrwt>0</asrwt>
<pdfrwt beam="1">  1        1 0.62080246E-01 0.96805584E+02</pdfrwt>
<pdfrwt beam="2">  1       -1 0.35795817E-02 0.96805584E+02</pdfrwt>
<totfact> 0.15871147E+04</totfact>
</mgrwt>
</event>
<event>
 4    1  0.5124795E-001  0.8050884E+02  0.7546771E-02  0.1327614E+00
          2   -1    0    0  501    0  0.00000000000E+00  0.00000000000E+00  0.99987296676E+01  0.99987296676E+01  0.00000000000E+00 0. -1.
         -2   -1    0    0    0  501 -0.00000000000E+00 -0.00000000000E+00 -0.64995026104E+03  0.64995026104E+03  0.00000000000E+00 0.  1.
         24    1    1    2    0    0  0.29374534252E+01  0.24141754792E+01 -0.30309682948E+03  0.31360701661E+03  0.80419002446E+02 0. -1.
        -24    1    1    2    0    0 -0.29374534252E+01 -0.24141754792E+01 -0.33685470189E+03  0.34634197409E+03  0.80419002446E+02 0.  1.
<mgrwt>
<rscale>  0 0.80508837E+02</rscale>
<asrwt>0</asrwt>
<pdfrwt beam="1">  1        2 0.15382659E-02 0.80508837E+02</pdfrwt>
<pdfrwt beam="2">  1       -2 0.99992360E-01 0.80508837E+02</pdfrwt>
<totfact> 0.60188105E+03</totfact>
</mgrwt>
</event>
<event>
 4    1  0.5124795E-001  0.8492607E+02  0.7546771E-02  0.1315626E+00
          1   -1    0    0  501    0  0.00000000000E+00  0.00000000000E+00  0.10738185402E+03  0.10738185402E+03  0.00000000000E+00 0. -1.
         -1   -1    0    0    0  501 -0.00000000000E+00 -0.00000000000E+00 -0.67263643985E+02  0.67263643985E+02  0.00000000000E+00 0.  1.
         24    1    1    2    0    0  0.26467097969E+02  0.66868791224E+01  0.16736491540E+02  0.86559503988E+02  0.80419002446E+02 0. -1.
        -24    1    1    2    0    0 -0.26467097969E+02 -0.66868791224E+01  0.23381718491E+02  0.88085994013E+02  0.80419002446E+02 0.  1.
<mgrwt>
<rscale>  0 0.84926071E+02</rscale>
<asrwt>0</asrwt>
<pdfrwt beam="1">  1        1 0.16520285E-01 0.84926071E+02</pdfrwt>
<pdfrwt beam="2">  1       -1 0.10348253E-01 0.84926071E+02</pdfrwt>
<totfact> 0.16771309E+04</totfact>
</mgrwt>
</event>
<event>
 4    1  0.5124795E-001  0.8767667E+02  0.7546771E-02  0.1308578E+00
         -2   -1    0    0    0  501 -0.00000000000E+00  0.00000000000E+00  0.35501280710E+02  0.35501280710E+02  0.00000000000E+00 0.  1.
          2   -1    0    0  501    0  0.00000000000E+00 -0.00000000000E+00 -0.39914713634E+03  0.39914713634E+03  0.00000000000E+00 0. -1.
         24    1    1    2    0    0  0.18037184172E+02  0.29910574208E+02 -0.32882004169E+03  0.34030841634E+03  0.80419002446E+02 0. -1.
        -24    1    1    2    0    0 -0.18037184172E+02 -0.29910574208E+02 -0.34825813940E+02  0.94340000706E+02  0.80419002446E+02 0.  1.
<mgrwt>
<rscale>  0 0.87676670E+02</rscale>
<asrwt>0</asrwt>
<pdfrwt beam="1">  1        2 0.61407257E-01 0.87676670E+02</pdfrwt>
<pdfrwt beam="2">  1       -2 0.54617350E-02 0.87676670E+02</pdfrwt>
<totfact> 0.12466452E+04</totfact>
</mgrwt>
</event>
<event>
 4    1  0.5124795E-001  0.8167268E+02  0.7546771E-02  0.1324371E+00
          1   -1    0    0  501    0  0.00000000000E+00  0.00000000000E+00  0.37282090677E+03  0.37282090677E+03  0.00000000000E+00 0. -1.
         -1   -1    0    0    0  501 -0.00000000000E+00 -0.00000000000E+00 -0.21002923920E+02  0.21002923920E+02  0.00000000000E+00 0.  1.
         24    1    1    2    0    0 -0.77221153587E+01 -0.11982448829E+02  0.10012232033E+03  0.12920876568E+03  0.80419002446E+02 0.  1.
        -24    1    1    2    0    0  0.77221153587E+01  0.11982448829E+02  0.25169566252E+03  0.26461506501E+03  0.80419002446E+02 0.  0.
<mgrwt>
<rscale>  0 0.81672677E+02</rscale>
<asrwt>0</asrwt>
<pdfrwt beam="1">  1        1 0.57357058E-01 0.81672677E+02</pdfrwt>
<pdfrwt beam="2">  1       -1 0.32312193E-02 0.81672677E+02</pdfrwt>
<totfact> 0.19946048E+04</totfact>
</mgrwt>
</event>
<event>
 4    1  0.5124795E-001  0.1193386E+03  0.7546771E-02  0.1244192E+00
         -2   -1    0    0    0  501 -0.00000000000E+00  0.00000000000E+00  0.75760229684E+02  0.75760229684E+02  0.00000000000E+00 0.  1.
          2   -1    0    0  501    0  0.00000000000E+00 -0.00000000000E+00 -0.21142437782E+03  0.21142437782E+03  0.00000000000E+00 0. -1.
         24    1    1    2    0    0  0.96576138675E+01 -0.87642551136E+02 -0.20020063052E+02  0.12100621949E+03  0.80419002446E+02 0.  1.
        -24    1    1    2    0    0 -0.96576138675E+01  0.87642551136E+02 -0.11564408509E+03  0.16617838802E+03  0.80419002446E+02 0. -1.
<mgrwt>
<rscale>  0 0.11933862E+03</rscale>
<asrwt>0</asrwt>
<pdfrwt beam="1">  1        2 0.32526827E-01 0.11933863E+03</pdfrwt>
<pdfrwt beam="2">  1       -2 0.11655420E-01 0.11933863E+03</pdfrwt>
<totfact> 0.78038304E+03</totfact>
</mgrwt>
</event>
<event>
 4    1  0.5124795E-001  0.1383123E+03  0.7546771E-02  0.1215618E+00
          2   -1    0    0  501    0  0.00000000000E+00  0.00000000000E+00  0.61996800355E+03  0.61996800355E+03  0.00000000000E+00 0. -1.
         -2   -1    0    0    0  501 -0.00000000000E+00 -0.00000000000E+00 -0.13293206712E+03  0.13293206712E+03  0.00000000000E+00 0.  1.
         24    1    1    2    0    0 -0.41737335550E+02  0.10450391705E+03  0.57339533257E+03  0.58984107794E+03  0.80419002446E+02 0. -1.
        -24    1    1    2    0    0  0.41737335550E+02 -0.10450391705E+03 -0.86359396136E+02  0.16305899274E+03  0.80419002446E+02 0.  1.
<mgrwt>
<rscale>  0 0.13831229E+03</rscale>
<asrwt>0</asrwt>
<pdfrwt beam="1">  1        2 0.95379691E-01 0.13831229E+03</pdfrwt>
<pdfrwt beam="2">  1       -2 0.20451088E-01 0.13831229E+03</pdfrwt>
<totfact> 0.98083517E+02</totfact>
</mgrwt>
</event>
<event>
 4    1  0.5124795E-001  0.1318222E+03  0.7546771E-02  0.1224777E+00
          1   -1    0    0  501    0  0.00000000000E+00  0.00000000000E+00  0.55000663082E+02  0.55000663082E+02  0.00000000000E+00 0. -1.
         -1   -1    0    0    0  501 -0.00000000000E+00 -0.00000000000E+00 -0.69442253043E+03  0.69442253043E+03  0.00000000000E+00 0.  1.
         24    1    1    2    0    0  0.30286990586E+02  0.99962873571E+02 -0.59634536193E+03  0.61074125826E+03  0.80419002446E+02 0.  1.
        -24    1    1    2    0    0 -0.30286990586E+02 -0.99962873571E+02 -0.43076505414E+02  0.13868193525E+03  0.80419002446E+02 0. -1.
<mgrwt>
<rscale>  0 0.13182221E+03</rscale>
<asrwt>0</asrwt>
<pdfrwt beam="1">  1        1 0.84616403E-02 0.13182221E+03</pdfrwt>
<pdfrwt beam="2">  1       -1 0.10683424E+00 0.13182221E+03</pdfrwt>
<totfact> 0.69230196E+02</totfact>
</mgrwt>
</event>
<event>
 4    1  0.5124795E-001  0.8248271E+02  0.7546771E-02  0.1322150E+00
          3   -1    0    0  501    0  0.00000000000E+00  0.00000000000E+00  0.16188947079E+02  0.16188947079E+02  0.00000000000E+00 0. -1.
         -3   -1    0    0    0  501 -0.00000000000E+00 -0.00000000000E+00 -0.66815072844E+03  0.66815072844E+03  0.00000000000E+00 0.  1.
         24    1    1    2    0    0 -0.92490987437E+01  0.15831490453E+02 -0.53440300077E+03  0.54073095446E+03  0.80419002446E+02 0.  1.
        -24    1    1    2    0    0  0.92490987437E+01 -0.15831490453E+02 -0.11755878058E+03  0.14360872106E+03  0.80419002446E+02 0. -1.
<mgrwt>
<rscale>  0 0.82482713E+02</rscale>
<asrwt>0</asrwt>
<pdfrwt beam="1">  1        3 0.24906082E-02 0.82482713E+02</pdfrwt>
<pdfrwt beam="2">  1       -3 0.10279238E+00 0.82482713E+02</pdfrwt>
<totfact> 0.12161869E+03</totfact>
</mgrwt>
</event>
<event>
 4    1  0.5124795E-001  0.8088918E+02  0.7546771E-02  0.1326547E+00
         -2   -1    0    0    0  501 -0.00000000000E+00  0.00000000000E+00  0.52335320314E+01  0.52335320314E+01  0.00000000000E+00 0.  1.
          2   -1    0    0  501    0  0.00000000000E+00 -0.00000000000E+00 -0.15633922884E+04  0.15633922884E+04  0.00000000000E+00 0. -1.
         24    1    1    2    0    0 -0.11169513930E+01  0.86367298682E+01 -0.42804605983E+03  0.43562195305E+03  0.80419002446E+02 0.  1.
        -24    1    1    2    0    0  0.11169513930E+01 -0.86367298682E+01 -0.11301126965E+04  0.11330038674E+04  0.80419002446E+02 0.  0.
<mgrwt>
<rscale>  0 0.80889173E+02</rscale>
<asrwt>0</asrwt>
<pdfrwt beam="1">  1        2 0.24052153E+00 0.80889183E+02</pdfrwt>
<pdfrwt beam="2">  1       -2 0.80515999E-03 0.80889183E+02</pdfrwt>
<totfact> 0.33806635E+04</totfact>
</mgrwt>
</event>
<event>
 4    1  0.5124795E-001  0.8278168E+02  0.7546771E-02  0.1321338E+00
         -3   -1    0    0    0  501 -0.00000000000E+00  0.00000000000E+00  0.33011218295E+02  0.33011218295E+02  0.00000000000E+00 0.  1.
          3   -1    0    0  501    0  0.00000000000E+00 -0.00000000000E+00 -0.26543680592E+03  0.26543680592E+03  0.00000000000E+00 0. -1.
         24    1    1    2    0    0 -0.19110998668E+02  0.45122574819E+01 -0.46550633837E+02  0.94972460233E+02  0.80419002446E+02 0. -1.
        -24    1    1    2    0    0  0.19110998668E+02 -0.45122574819E+01 -0.18587495379E+03  0.20347556399E+03  0.80419002446E+02 0.  0.
<mgrwt>
<rscale>  0 0.82781681E+02</rscale>
<asrwt>0</asrwt>
<pdfrwt beam="1">  1        3 0.40836431E-01 0.82781681E+02</pdfrwt>
<pdfrwt beam="2">  1       -3 0.50786490E-02 0.82781681E+02</pdfrwt>
<totfact> 0.27474560E+03</totfact>
</mgrwt>
</event>
<event>
 4    1  0.5124795E-001  0.8591942E+02  0.7546771E-02  0.1313046E+00
          2   -1    0    0  501    0  0.00000000000E+00  0.00000000000E+00  0.22845894309E+04  0.22845894309E+04  0.00000000000E+00 0. -1.
         -2   -1    0    0    0  501 -0.00000000000E+00 -0.00000000000E+00 -0.64646621542E+01  0.64646621542E+01  0.00000000000E+00 0.  1.
         24    1    1    2    0    0  0.22259896287E+02  0.20479938626E+02  0.19492040863E+04  0.19510967984E+04  0.80419002446E+02 0. -1.
        -24    1    1    2    0    0 -0.22259896287E+02 -0.20479938626E+02  0.32892068246E+03  0.33995729464E+03  0.80419002446E+02 0.  1.
<mgrwt>
<rscale>  0 0.85919421E+02</rscale>
<asrwt>0</asrwt>
<pdfrwt beam="1">  1        2 0.35147465E+00 0.85919421E+02</pdfrwt>
<pdfrwt beam="2">  1       -2 0.99456523E-03 0.85919421E+02</pdfrwt>
<totfact> 0.10942719E+04</totfact>
</mgrwt>
</event>
<event>
 4    1  0.5124795E-001  0.8619894E+02  0.7546771E-02  0.1312327E+00
          2   -1    0    0  501    0  0.00000000000E+00  0.00000000000E+00  0.13889427387E+04  0.13889427387E+04  0.00000000000E+00 0. -1.
         -2   -1    0    0    0  501 -0.00000000000E+00 -0.00000000000E+00 -0.12060840945E+02  0.12060840945E+02  0.00000000000E+00 0.  1.
         24    1    1    2    0    0 -0.29955349871E+02 -0.81067251742E+01  0.12109845957E+04  0.12140485777E+04  0.80419002446E+02 0. -1.
        -24    1    1    2    0    0  0.29955349871E+02  0.81067251742E+01  0.16589730207E+03  0.18695500199E+03  0.80419002446E+02 0.  1.
<mgrwt>
<rscale>  0 0.86198944E+02</rscale>
<asrwt>0</asrwt>
<pdfrwt beam="1">  1        2 0.21368337E+00 0.86198944E+02</pdfrwt>
<pdfrwt beam="2">  1       -2 0.18555151E-02 0.86198944E+02</pdfrwt>
<totfact> 0.12769016E+04</totfact>
</mgrwt>
</event>
<event>
 4    1  0.5124795E-001  0.8269177E+02  0.7546771E-02  0.1321582E+00
         -1   -1    0    0    0  501 -0.00000000000E+00  0.00000000000E+00  0.31888572258E+02  0.31888572258E+02  0.00000000000E+00 0.  1.
          1   -1    0    0  501    0  0.00000000000E+00 -0.00000000000E+00 -0.64223933910E+03  0.64223933910E+03  0.00000000000E+00 0. -1.
         24    1    1    2    0    0 -0.89831575532E+01 -0.17029863807E+02 -0.30077029091E+02  0.87991800835E+02  0.80419002446E+02 0.  1.
        -24    1    1    2    0    0  0.89831575532E+01  0.17029863807E+02 -0.58027373775E+03  0.58613611052E+03  0.80419002446E+02 0. -1.
<mgrwt>
<rscale>  0 0.82691773E+02</rscale>
<asrwt>0</asrwt>
<pdfrwt beam="1">  1        1 0.98806047E-01 0.82691773E+02</pdfrwt>
<pdfrwt beam="2">  1       -1 0.49059345E-02 0.82691773E+02</pdfrwt>
<totfact> 0.54333967E+03</totfact>
</mgrwt>
</event>
<event>
 4    1  0.5124795E-001  0.8949734E+02  0.7546771E-02  0.1304074E+00
         -2   -1    0    0    0  501 -0.00000000000E+00  0.00000000000E+00  0.26990674418E+02  0.26990674418E+02  0.00000000000E+00 0.  1.
          2   -1    0    0  501    0  0.00000000000E+00 -0.00000000000E+00 -0.47321864133E+03  0.47321864133E+03  0.00000000000E+00 0. -1.
         24    1    1    2    0    0  0.35808177723E+02 -0.16134825480E+02 -0.37583940712E+03  0.38634833258E+03  0.80419002446E+02 0. -1.
        -24    1    1    2    0    0 -0.35808177723E+02  0.16134825480E+02 -0.70388559792E+02  0.11386098317E+03  0.80419002446E+02 0.  1.
<mgrwt>
<rscale>  0 0.89497342E+02</rscale>
<asrwt>0</asrwt>
<pdfrwt beam="1">  1        2 0.72802865E-01 0.89497342E+02</pdfrwt>
<pdfrwt beam="2">  1       -2 0.41524116E-02 0.89497342E+02</pdfrwt>
<totfact> 0.15649163E+04</totfact>
</mgrwt>
</event>
<event>
 4    1  0.5124795E-001  0.1440458E+03  0.7546771E-02  0.1207986E+00
          1   -1    0    0  501    0  0.00000000000E+00  0.00000000000E+00  0.11543726898E+03  0.11543726898E+03  0.00000000000E+00 0. -1.
         -1   -1    0    0    0  501 -0.00000000000E+00 -0.00000000000E+00 -0.23702188426E+03  0.23702188426E+03  0.00000000000E+00 0.  1.
         24    1    1    2    0    0  0.88993831671E+02 -0.79762638094E+02 -0.14742398936E+03  0.20611411670E+03  0.80419002446E+02 0.  1.
        -24    1    1    2    0    0 -0.88993831671E+02  0.79762638094E+02  0.25839374085E+02  0.14634503654E+03  0.80419002446E+02 0. -1.
<mgrwt>
<rscale>  0 0.14404581E+03</rscale>
<asrwt>0</asrwt>
<pdfrwt beam="1">  1        1 0.17759580E-01 0.14404581E+03</pdfrwt>
<pdfrwt beam="2">  1       -1 0.36464905E-01 0.14404581E+03</pdfrwt>
<totfact> 0.21164555E+03</totfact>
</mgrwt>
</event>
<event>
 4    1  0.5124795E-001  0.9687874E+02  0.7546771E-02  0.1287000E+00
         -2   -1    0    0    0  501 -0.00000000000E+00  0.00000000000E+00  0.40975944681E+02  0.40975944681E+02  0.00000000000E+00 0.  1.
          2   -1    0    0  501    0  0.00000000000E+00 -0.00000000000E+00 -0.32458132971E+03  0.32458132971E+03  0.00000000000E+00 0. -1.
         24    1    1    2    0    0  0.18428334761E+02 -0.50780619431E+02 -0.24096333133E+03  0.25970910232E+03  0.80419002446E+02 0. -1.
        -24    1    1    2    0    0 -0.18428334761E+02  0.50780619431E+02 -0.42642053704E+02  0.10584817207E+03  0.80419002446E+02 0.  1.
<mgrwt>
<rscale>  0 0.96878743E+02</rscale>
<asrwt>0</asrwt>
<pdfrwt beam="1">  1        2 0.49935586E-01 0.96878743E+02</pdfrwt>
<pdfrwt beam="2">  1       -2 0.63039919E-02 0.96878743E+02</pdfrwt>
<totfact> 0.12602435E+04</totfact>
</mgrwt>
</event>
<event>
 4    1  0.5124795E-001  0.8063100E+02  0.7546771E-02  0.1327270E+00
         -1   -1    0    0    0  501 -0.00000000000E+00  0.00000000000E+00  0.33736366089E+03  0.33736366089E+03  0.00000000000E+00 0.  1.
          1   -1    0    0  501    0  0.00000000000E+00 -0.00000000000E+00 -0.22904054109E+02  0.22904054109E+02  0.00000000000E+00 0. -1.
         24    1    1    2    0    0 -0.24407036868E+01 -0.53089256606E+01  0.22897141078E+03  0.24275350592E+03  0.80419002446E+02 0.  0.
        -24    1    1    2    0    0  0.24407036868E+01  0.53089256606E+01  0.85488195996E+02  0.11751420908E+03  0.80419002446E+02 0. -1.
<mgrwt>
<rscale>  0 0.80630997E+02</rscale>
<asrwt>0</asrwt>
<pdfrwt beam="1">  1        1 0.35237009E-02 0.80630997E+02</pdfrwt>
<pdfrwt beam="2">  1       -1 0.51902098E-01 0.80630997E+02</pdfrwt>
<totfact> 0.93286405E+03</totfact>
</mgrwt>
</event>
<event>
 4    1  0.5124795E-001  0.8174322E+02  0.7546771E-02  0.1324176E+00
         -1   -1    0    0    0  501 -0.00000000000E+00  0.00000000000E+00  0.30856056291E+03  0.30856056291E+03  0.00000000000E+00 0.  1.
          1   -1    0    0  501    0  0.00000000000E+00 -0.00000000000E+00 -0.25971875775E+02  0.25971875775E+02  0.00000000000E+00 0. -1.
         24    1    1    2    0    0  0.94839431102E+01  0.11171065777E+02  0.20948567265E+03  0.22486929735E+03  0.80419002446E+02 0.  1.
        -24    1    1    2    0    0 -0.94839431102E+01 -0.11171065777E+02  0.73103014477E+02  0.10966314134E+03  0.80419002446E+02 0. -1.
<mgrwt>
<rscale>  0 0.81743219E+02</rscale>
<asrwt>0</asrwt>
<pdfrwt beam="1">  1        1 0.39956734E-02 0.81743219E+02</pdfrwt>
<pdfrwt beam="2">  1       -1 0.47470853E-01 0.81743219E+02</pdfrwt>
<totfact> 0.92477026E+03</totfact>
</mgrwt>
</event>
<event>
 4    1  0.5124795E-001  0.9695837E+02  0.7546771E-02  0.1286825E+00
          2   -1    0    0  501    0  0.00000000000E+00  0.00000000000E+00  0.90912652633E+03  0.90912652633E+03  0.00000000000E+00 0. -1.
         -2   -1    0    0    0  501 -0.00000000000E+00 -0.00000000000E+00 -0.68806883503E+02  0.68806883503E+02  0.00000000000E+00 0.  1.
         24    1    1    2    0    0 -0.41342355117E+02 -0.34993129822E+02  0.87088938070E+03  0.87627007185E+03  0.80419002446E+02 0. -1.
        -24    1    1    2    0    0  0.41342355117E+02  0.34993129822E+02 -0.30569737870E+02  0.10166333798E+03  0.80419002446E+02 0.  1.
<mgrwt>
<rscale>  0 0.96958369E+02</rscale>
<asrwt>0</asrwt>
<pdfrwt beam="1">  1        2 0.13986561E+00 0.96958369E+02</pdfrwt>
<pdfrwt beam="2">  1       -2 0.10585675E-01 0.96958369E+02</pdfrwt>
<totfact> 0.17913947E+03</totfact>
</mgrwt>
</event>
<event>
 4    1  0.5124795E-001  0.8148375E+02  0.7546771E-02  0.1324893E+00
         -3   -1    0    0    0  501 -0.00000000000E+00  0.00000000000E+00  0.48791312736E+01  0.48791312736E+01  0.00000000000E+00 0.  1.
          3   -1    0    0  501    0  0.00000000000E+00 -0.00000000000E+00 -0.16164223594E+04  0.16164223594E+04  0.00000000000E+00 0. -1.
         24    1    1    2    0    0  0.13043139755E+02 -0.15039976941E+01 -0.48341104160E+03  0.49023039134E+03  0.80419002446E+02 0.  0.
        -24    1    1    2    0    0 -0.13043139755E+02  0.15039976941E+01 -0.11281321865E+04  0.11310710993E+04  0.80419002446E+02 0. -1.
<mgrwt>
<rscale>  0 0.81483750E+02</rscale>
<asrwt>0</asrwt>
<pdfrwt beam="1">  1        3 0.24868058E+00 0.81483750E+02</pdfrwt>
<pdfrwt beam="2">  1       -3 0.75063492E-03 0.81483750E+02</pdfrwt>
<totfact> 0.77117970E+02</totfact>
</mgrwt>
</event>
<event>
 4    1  0.5124795E-001  0.1068442E+03  0.7546771E-02  0.1266528E+00
         -1   -1    0    0    0  501 -0.00000000000E+00  0.00000000000E+00  0.99673644931E+01  0.99673644931E+01  0.00000000000E+00 0.  1.
          1   -1    0    0  501    0  0.00000000000E+00 -0.00000000000E+00 -0.14998992270E+04  0.14998992270E+04  0.00000000000E+00 0. -1.
         24    1    1    2    0    0 -0.53852156294E+02 -0.45259461159E+02 -0.37790148783E+03  0.39271519453E+03  0.80419002446E+02 0.  1.
        -24    1    1    2    0    0  0.53852156294E+02  0.45259461159E+02 -0.11120303747E+04  0.11171513970E+04  0.80419002446E+02 0. -1.
<mgrwt>
<rscale>  0 0.10684423E+03</rscale>
<asrwt>0</asrwt>
<pdfrwt beam="1">  1        1 0.23075375E+00 0.10684423E+03</pdfrwt>
<pdfrwt beam="2">  1       -1 0.15334406E-02 0.10684423E+03</pdfrwt>
<totfact> 0.70061724E+03</totfact>
</mgrwt>
</event>
<event>
 4    1  0.5124795E-001  0.8456998E+02  0.7546771E-02  0.1316561E+00
         -2   -1    0    0    0  501 -0.00000000000E+00  0.00000000000E+00  0.47858885073E+01  0.47858885073E+01  0.00000000000E+00 0.  1.
          2   -1    0    0  501    0  0.00000000000E+00 -0.00000000000E+00 -0.17034219682E+04  0.17034219682E+04  0.00000000000E+00 0. -1.
         24    1    1    2    0    0  0.14728755072E+02 -0.21631586460E+02 -0.55013594821E+03  0.55659827454E+03  0.80419002446E+02 0.  0.
        -24    1    1    2    0    0 -0.14728755072E+02  0.21631586460E+02 -0.11485001315E+04  0.11516095822E+04  0.80419002446E+02 0. -1.
<mgrwt>
<rscale>  0 0.84569968E+02</rscale>
<asrwt>0</asrwt>
<pdfrwt beam="1">  1        2 0.26206477E+00 0.84569979E+02</pdfrwt>
<pdfrwt beam="2">  1       -2 0.73629097E-03 0.84569979E+02</pdfrwt>
<totfact> 0.32726224E+04</totfact>
</mgrwt>
</event>
<event>
 4    1  0.5124795E-001  0.8280450E+02  0.7546771E-02  0.1321276E+00
          2   -1    0    0  501    0  0.00000000000E+00  0.00000000000E+00  0.70751213674E+03  0.70751213674E+03  0.00000000000E+00 0. -1.
         -2   -1    0    0    0  501 -0.00000000000E+00 -0.00000000000E+00 -0.19279983977E+02  0.19279983977E+02  0.00000000000E+00 0.  1.
         24    1    1    2    0    0 -0.15079936808E+02  0.12726531243E+02  0.60039356443E+03  0.60607674206E+03  0.80419002446E+02 0. -1.
        -24    1    1    2    0    0  0.15079936808E+02 -0.12726531243E+02  0.87838588332E+02  0.12071537866E+03  0.80419002446E+02 0.  0.
<mgrwt>
<rscale>  0 0.82804499E+02</rscale>
<asrwt>0</asrwt>
<pdfrwt beam="1">  1        2 0.10884800E+00 0.82804499E+02</pdfrwt>
<pdfrwt beam="2">  1       -2 0.29661519E-02 0.82804499E+02</pdfrwt>
<totfact> 0.16242627E+04</totfact>
</mgrwt>
</event>
<event>
 4    1  0.5124795E-001  0.8267860E+02  0.7546771E-02  0.1321617E+00
         -1   -1    0    0    0  501 -0.00000000000E+00  0.00000000000E+00  0.54161978889E+01  0.54161978889E+01  0.00000000000E+00 0.  1.
          1   -1    0    0  501    0  0.00000000000E+00 -0.00000000000E+00 -0.14379681776E+04  0.14379681776E+04  0.00000000000E+00 0. -1.
         24    1    1    2    0    0  0.19193392000E+02 -0.38608413795E+00 -0.46388241032E+03  0.47119278636E+03  0.80419002446E+02 0.  0.
        -24    1    1    2    0    0 -0.19193392000E+02  0.38608413795E+00 -0.96866956938E+03  0.97219158912E+03  0.80419002446E+02 0. -1.
<mgrwt>
<rscale>  0 0.82678603E+02</rscale>
<asrwt>0</asrwt>
<pdfrwt beam="1">  1        1 0.22122601E+00 0.82678603E+02</pdfrwt>
<pdfrwt beam="2">  1       -1 0.83326068E-03 0.82678603E+02</pdfrwt>
<totfact> 0.17908706E+04</totfact>
</mgrwt>
</event>
<event>
 4    1  0.5124795E-001  0.8419380E+02  0.7546771E-02  0.1317554E+00
          2   -1    0    0  501    0  0.00000000000E+00  0.00000000000E+00  0.88710829685E+02  0.88710829685E+02  0.00000000000E+00 0. -1.
         -2   -1    0    0    0  501 -0.00000000000E+00 -0.00000000000E+00 -0.84860610376E+02  0.84860610376E+02  0.00000000000E+00 0.  1.
         24    1    1    2    0    0 -0.23421619394E+02  0.85327839631E+01  0.22893535609E+02  0.87250848616E+02  0.80419002446E+02 0. -1.
        -24    1    1    2    0    0  0.23421619394E+02 -0.85327839631E+01 -0.19043316300E+02  0.86320591444E+02  0.80419002446E+02 0.  1.
<mgrwt>
<rscale>  0 0.84193804E+02</rscale>
<asrwt>0</asrwt>
<pdfrwt beam="1">  1        2 0.13647820E-01 0.84193804E+02</pdfrwt>
<pdfrwt beam="2">  1       -2 0.13055478E-01 0.84193804E+02</pdfrwt>
<totfact> 0.16624404E+04</totfact>
</mgrwt>
</event>
<event>
 4    1  0.5124795E-001  0.8171288E+02  0.7546771E-02  0.1324260E+00
          2   -1    0    0  501    0  0.00000000000E+00  0.00000000000E+00  0.42936673360E+03  0.42936673360E+03  0.00000000000E+00 0. -1.
         -2   -1    0    0    0  501 -0.00000000000E+00 -0.00000000000E+00 -0.65395297043E+02  0.65395297043E+02  0.00000000000E+00 0.  1.
         24    1    1    2    0    0 -0.14245109542E+02  0.26184571535E+01  0.39795984481E+03  0.40626227181E+03  0.80419002446E+02 0.  0.
        -24    1    1    2    0    0  0.14245109542E+02 -0.26184571535E+01 -0.33988408249E+02  0.88499758833E+02  0.80419002446E+02 0.  1.
<mgrwt>
<rscale>  0 0.81712884E+02</rscale>
<asrwt>0</asrwt>
<pdfrwt beam="1">  1        2 0.66056419E-01 0.81712884E+02</pdfrwt>
<pdfrwt beam="2">  1       -2 0.10060815E-01 0.81712884E+02</pdfrwt>
<totfact> 0.45405523E+03</totfact>
</mgrwt>
</event>
<event>
 4    1  0.5124795E-001  0.1158093E+03  0.7546771E-02  0.1250175E+00
          1   -1    0    0  501    0  0.00000000000E+00  0.00000000000E+00  0.49232881852E+03  0.49232881852E+03  0.00000000000E+00 0. -1.
         -1   -1    0    0    0  501 -0.00000000000E+00 -0.00000000000E+00 -0.14356567396E+03  0.14356567396E+03  0.00000000000E+00 0.  1.
         24    1    1    2    0    0 -0.41465455507E+02 -0.72285519056E+02 -0.11181516010E+03  0.16097958333E+03  0.80419002446E+02 0.  1.
        -24    1    1    2    0    0  0.41465455507E+02  0.72285519056E+02  0.46057830465E+03  0.47491490915E+03  0.80419002446E+02 0. -1.
<mgrwt>
<rscale>  0 0.11580931E+03</rscale>
<asrwt>0</asrwt>
<pdfrwt beam="1">  1        1 0.75742894E-01 0.11580931E+03</pdfrwt>
<pdfrwt beam="2">  1       -1 0.22087027E-01 0.11580931E+03</pdfrwt>
<totfact> 0.79038926E+02</totfact>
</mgrwt>
</event>
<event>
 4    1  0.5124795E-001  0.8225904E+02  0.7546771E-02  0.1322760E+00
         -1   -1    0    0    0  501 -0.00000000000E+00  0.00000000000E+00  0.10278525380E+03  0.10278525380E+03  0.00000000000E+00 0.  1.
          1   -1    0    0  501    0  0.00000000000E+00 -0.00000000000E+00 -0.80792559005E+03  0.80792559005E+03  0.00000000000E+00 0. -1.
         24    1    1    2    0    0  0.16558732070E+02 -0.50142582264E+01  0.83839330242E+02  0.11745460248E+03  0.80419002446E+02 0.  1.
        -24    1    1    2    0    0 -0.16558732070E+02  0.50142582264E+01 -0.78897966649E+03  0.79325624138E+03  0.80419002446E+02 0. -1.
<mgrwt>
<rscale>  0 0.82259044E+02</rscale>
<asrwt>0</asrwt>
<pdfrwt beam="1">  1        1 0.12429625E+00 0.82259044E+02</pdfrwt>
<pdfrwt beam="2">  1       -1 0.15813116E-01 0.82259044E+02</pdfrwt>
<totfact> 0.67915083E+02</totfact>
</mgrwt>
</event>
<event>
 4    1  0.5124795E-001  0.1231116E+03  0.7546771E-02  0.1238050E+00
          1   -1    0    0  501    0  0.00000000000E+00  0.00000000000E+00  0.24160777359E+03  0.24160777359E+03  0.00000000000E+00 0. -1.
         -1   -1    0    0    0  501 -0.00000000000E+00 -0.00000000000E+00 -0.10340999429E+03  0.10340999429E+03  0.00000000000E+00 0.  1.
         24    1    1    2    0    0  0.17233260300E+02 -0.91609244049E+02 -0.39097266195E+02  0.12917062760E+03  0.80419002446E+02 0.  1.
        -24    1    1    2    0    0 -0.17233260300E+02  0.91609244049E+02  0.17729504550E+03  0.21584714028E+03  0.80419002446E+02 0. -1.
<mgrwt>
<rscale>  0 0.12311155E+03</rscale>
<asrwt>0</asrwt>
<pdfrwt beam="1">  1        1 0.37170427E-01 0.12311155E+03</pdfrwt>
<pdfrwt beam="2">  1       -1 0.15909230E-01 0.12311155E+03</pdfrwt>
<totfact> 0.32435174E+03</totfact>
</mgrwt>
</event>
<event>
 4    1  0.5124795E-001  0.8849854E+02  0.7546771E-02  0.1306529E+00
         -1   -1    0    0    0  501 -0.00000000000E+00  0.00000000000E+00  0.84919342523E+02  0.84919342523E+02  0.00000000000E+00 0.  1.
          1   -1    0    0  501    0  0.00000000000E+00 -0.00000000000E+00 -0.17189038734E+03  0.17189038734E+03  0.00000000000E+00 0. -1.
         24    1    1    2    0    0 -0.32705815788E+02 -0.17178612294E+02  0.43928426305E+02  0.98801304134E+02  0.80419002446E+02 0.  1.
        -24    1    1    2    0    0  0.32705815788E+02  0.17178612294E+02 -0.13089947112E+03  0.15800842573E+03  0.80419002446E+02 0. -1.
<mgrwt>
<rscale>  0 0.88498537E+02</rscale>
<asrwt>0</asrwt>
<pdfrwt beam="1">  1        1 0.26444674E-01 0.88498537E+02</pdfrwt>
<pdfrwt beam="2">  1       -1 0.13064514E-01 0.88498537E+02</pdfrwt>
<totfact> 0.65575493E+03</totfact>
</mgrwt>
</event>
<event>
 4    1  0.5124795E-001  0.9474713E+02  0.7546771E-02  0.1291747E+00
          1   -1    0    0  501    0  0.00000000000E+00  0.00000000000E+00  0.81613551362E+02  0.81613551362E+02  0.00000000000E+00 0. -1.
         -1   -1    0    0    0  501 -0.00000000000E+00 -0.00000000000E+00 -0.16178088813E+03  0.16178088813E+03  0.00000000000E+00 0.  1.
         24    1    1    2    0    0 -0.29320981820E+02  0.40621158311E+02  0.28769870197E+02  0.99018785404E+02  0.80419002446E+02 0.  0.
        -24    1    1    2    0    0  0.29320981820E+02 -0.40621158311E+02 -0.10893720696E+03  0.14437565409E+03  0.80419002446E+02 0.  0.
<mgrwt>
<rscale>  0 0.94747120E+02</rscale>
<asrwt>0</asrwt>
<pdfrwt beam="1">  1        1 0.12555931E-01 0.94747131E+02</pdfrwt>
<pdfrwt beam="2">  1       -1 0.24889367E-01 0.94747131E+02</pdfrwt>
<totfact> 0.61199136E+03</totfact>
</mgrwt>
</event>
<event>
 4    1  0.5124795E-001  0.8864809E+02  0.7546771E-02  0.1306159E+00
         -2   -1    0    0    0  501 -0.00000000000E+00  0.00000000000E+00  0.30429906763E+03  0.30429906763E+03  0.00000000000E+00 0.  1.
          2   -1    0    0  501    0  0.00000000000E+00 -0.00000000000E+00 -0.29292223447E+02  0.29292223447E+02  0.00000000000E+00 0. -1.
         24    1    1    2    0    0  0.30390212988E+02 -0.21626450159E+02  0.80117218232E+02  0.11948745961E+03  0.80419002446E+02 0.  1.
        -24    1    1    2    0    0 -0.30390212988E+02  0.21626450159E+02  0.19488962595E+03  0.21410383147E+03  0.80419002446E+02 0.  0.
<mgrwt>
<rscale>  0 0.88648093E+02</rscale>
<asrwt>0</asrwt>
<pdfrwt beam="1">  1        2 0.45064961E-02 0.88648093E+02</pdfrwt>
<pdfrwt beam="2">  1       -2 0.46815239E-01 0.88648093E+02</pdfrwt>
<totfact> 0.71585146E+03</totfact>
</mgrwt>
</event>
<event>
 4    1  0.5124795E-001  0.1264976E+03  0.7546771E-02  0.1232747E+00
         -2   -1    0    0    0  501 -0.00000000000E+00  0.00000000000E+00  0.84811636109E+01  0.84811636109E+01  0.00000000000E+00 0.  1.
          2   -1    0    0  501    0  0.00000000000E+00 -0.00000000000E+00 -0.18890536421E+04  0.18890536421E+04  0.00000000000E+00 0. -1.
         24    1    1    2    0    0  0.52299183337E+02  0.82457467912E+02 -0.97357107402E+03  0.98175469987E+03  0.80419002446E+02 0.  0.
        -24    1    1    2    0    0 -0.52299183337E+02 -0.82457467912E+02 -0.90700140446E+03  0.91578010584E+03  0.80419002446E+02 0.  0.
<mgrwt>
<rscale>  0 0.12649765E+03</rscale>
<asrwt>0</asrwt>
<pdfrwt beam="1">  1        2 0.29062382E+00 0.12649765E+03</pdfrwt>
<pdfrwt beam="2">  1       -2 0.13047936E-02 0.12649765E+03</pdfrwt>
<totfact> 0.11993358E+04</totfact>
</mgrwt>
</event>
<event>
 4    1  0.5124795E-001  0.8174288E+02  0.7546771E-02  0.1324177E+00
          1   -1    0    0  501    0  0.00000000000E+00  0.00000000000E+00  0.10144938099E+02  0.10144938099E+02  0.00000000000E+00 0. -1.
         -1   -1    0    0    0  501 -0.00000000000E+00 -0.00000000000E+00 -0.74167494713E+03  0.74167494713E+03  0.00000000000E+00 0.  1.
         24    1    1    2    0    0  0.11803742357E+02 -0.86806662899E+01 -0.49154110514E+03  0.49829163780E+03  0.80419002446E+02 0.  0.
        -24    1    1    2    0    0 -0.11803742357E+02  0.86806662899E+01 -0.23998890389E+03  0.25352824743E+03  0.80419002446E+02 0. -1.
<mgrwt>
<rscale>  0 0.81742879E+02</rscale>
<asrwt>0</asrwt>
<pdfrwt beam="1">  1        1 0.15607598E-02 0.81742879E+02</pdfrwt>
<pdfrwt beam="2">  1       -1 0.11410383E+00 0.81742879E+02</pdfrwt>
<totfact> 0.58333447E+03</totfact>
</mgrwt>
</event>
<event>
 4    1  0.5124795E-001  0.8180494E+02  0.7546771E-02  0.1324006E+00
         -2   -1    0    0    0  501 -0.00000000000E+00  0.00000000000E+00  0.35834602201E+03  0.35834602201E+03  0.00000000000E+00 0.  1.
          2   -1    0    0  501    0  0.00000000000E+00 -0.00000000000E+00 -0.19142161275E+02  0.19142161275E+02  0.00000000000E+00 0. -1.
         24    1    1    2    0    0  0.10616359399E+02 -0.10588896288E+02  0.14011058729E+03  0.16224371925E+03  0.80419002446E+02 0. -1.
        -24    1    1    2    0    0 -0.10616359399E+02  0.10588896288E+02  0.19909327345E+03  0.21524446404E+03  0.80419002446E+02 0.  1.
<mgrwt>
<rscale>  0 0.81804937E+02</rscale>
<asrwt>0</asrwt>
<pdfrwt beam="1">  1        2 0.29449481E-02 0.81804937E+02</pdfrwt>
<pdfrwt beam="2">  1       -2 0.55130152E-01 0.81804937E+02</pdfrwt>
<totfact> 0.89920162E+03</totfact>
</mgrwt>
</event>
<event>
 4    1  0.5124795E-001  0.8781245E+02  0.7546771E-02  0.1308237E+00
          2   -1    0    0  501    0  0.00000000000E+00  0.00000000000E+00  0.30666620810E+04  0.30666620810E+04  0.00000000000E+00 0. -1.
         -2   -1    0    0    0  501 -0.00000000000E+00 -0.00000000000E+00 -0.29959456235E+01  0.29959456235E+01  0.00000000000E+00 0.  1.
         24    1    1    2    0    0  0.35854414756E+00  0.35265864169E+02  0.21471243965E+04  0.21489193098E+04  0.80419002446E+02 0. -1.
        -24    1    1    2    0    0 -0.35854414756E+00 -0.35265864169E+02  0.91654173881E+03  0.92073871683E+03  0.80419002446E+02 0.  1.
<mgrwt>
<rscale>  0 0.87812446E+02</rscale>
<asrwt>0</asrwt>
<pdfrwt beam="1">  1        2 0.47179165E+00 0.87812446E+02</pdfrwt>
<pdfrwt beam="2">  1       -2 0.46091717E-03 0.87812446E+02</pdfrwt>
<totfact> 0.12221423E+04</totfact>
</mgrwt>
</event>
<event>
 4    1  0.5124795E-001  0.1048531E+03  0.7546771E-02  0.1270409E+00
          2   -1    0    0  501    0  0.00000000000E+00  0.00000000000E+00  0.14567396032E+04  0.14567396032E+04  0.00000000000E+00 0. -1.
         -2   -1    0    0    0  501 -0.00000000000E+00 -0.00000000000E+00 -0.12809703877E+02  0.12809703877E+02  0.00000000000E+00 0.  1.
         24    1    1    2    0    0  0.67273079097E+02 -0.11376738433E+01  0.11929254165E+04  0.11975246247E+04  0.80419002446E+02 0. -1.
        -24    1    1    2    0    0 -0.67273079097E+02  0.11376738433E+01  0.25100448285E+03  0.27202468240E+03  0.80419002446E+02 0.  1.
<mgrwt>
<rscale>  0 0.10485312E+03</rscale>
<asrwt>0</asrwt>
<pdfrwt beam="1">  1        2 0.22411365E+00 0.10485312E+03</pdfrwt>
<pdfrwt beam="2">  1       -2 0.19707248E-02 0.10485312E+03</pdfrwt>
<totfact> 0.10924093E+04</totfact>
</mgrwt>
</event>
<event>
 4    1  0.5124795E-001  0.1571166E+03  0.7546771E-02  0.1191991E+00
          2   -1    0    0  501    0  0.00000000000E+00  0.00000000000E+00  0.53148537952E+03  0.53148537952E+03  0.00000000000E+00 0. -1.
         -2   -1    0    0    0  501 -0.00000000000E+00 -0.00000000000E+00 -0.22915039536E+03  0.22915039536E+03  0.00000000000E+00 0.  1.
         24    1    1    2    0    0  0.11032669502E+03  0.77758846840E+02  0.49076176235E+03  0.51529869128E+03  0.80419002446E+02 0. -1.
        -24    1    1    2    0    0 -0.11032669502E+03 -0.77758846840E+02 -0.18842677819E+03  0.24533708360E+03  0.80419002446E+02 0.  1.
<mgrwt>
<rscale>  0 0.15711662E+03</rscale>
<asrwt>0</asrwt>
<pdfrwt beam="1">  1        2 0.81766981E-01 0.15711662E+03</pdfrwt>
<pdfrwt beam="2">  1       -2 0.35253907E-01 0.15711662E+03</pdfrwt>
<totfact> 0.44497500E+02</totfact>
</mgrwt>
</event>
<event>
 4    1  0.5124795E-001  0.1283632E+03  0.7546771E-02  0.1229905E+00
          1   -1    0    0  501    0  0.00000000000E+00  0.00000000000E+00  0.14019953329E+04  0.14019953329E+04  0.00000000000E+00 0. -1.
         -1   -1    0    0    0  501 -0.00000000000E+00 -0.00000000000E+00 -0.13378287605E+02  0.13378287605E+02  0.00000000000E+00 0.  1.
         24    1    1    2    0    0  0.54023433843E+02  0.84210247507E+02  0.44761530315E+03  0.46565714078E+03  0.80419002446E+02 0. -1.
        -24    1    1    2    0    0 -0.54023433843E+02 -0.84210247507E+02  0.94100174216E+03  0.94971647974E+03  0.80419002446E+02 0.  1.
<mgrwt>
<rscale>  0 0.12836321E+03</rscale>
<asrwt>0</asrwt>
<pdfrwt beam="1">  1        1 0.21569147E+00 0.12836321E+03</pdfrwt>
<pdfrwt beam="2">  1       -1 0.20581992E-02 0.12836321E+03</pdfrwt>
<totfact> 0.53562876E+03</totfact>
</mgrwt>
</event>
<event>
 4    1  0.5124795E-001  0.8593319E+02  0.7546771E-02  0.1313010E+00
          4   -1    0    0  501    0  0.00000000000E+00  0.00000000000E+00  0.23640666106E+03  0.23640666106E+03  0.00000000000E+00 0. -1.
         -4   -1    0    0    0  501 -0.00000000000E+00 -0.00000000000E+00 -0.46280686370E+02  0.46280686370E+02  0.00000000000E+00 0.  1.
         24    1    1    2    0    0 -0.24445714450E+02  0.17880268323E+02  0.17564925866E+03  0.19554328158E+03  0.80419002446E+02 0. -1.
        -24    1    1    2    0    0  0.24445714450E+02 -0.17880268323E+02  0.14476716026E+02  0.87144065842E+02  0.80419002446E+02 0.  1.
<mgrwt>
<rscale>  0 0.85933189E+02</rscale>
<asrwt>0</asrwt>
<pdfrwt beam="1">  1        4 0.36370255E-01 0.85933189E+02</pdfrwt>
<pdfrwt beam="2">  1       -4 0.71201057E-02 0.85933189E+02</pdfrwt>
<totfact> 0.14498999E+03</totfact>
</mgrwt>
</event>
<event>
 4    1  0.5124795E-001  0.1005956E+03  0.7546771E-02  0.1279049E+00
          1   -1    0    0  501    0  0.00000000000E+00  0.00000000000E+00  0.12276349801E+03  0.12276349801E+03  0.00000000000E+00 0. -1.
         -1   -1    0    0    0  501 -0.00000000000E+00 -0.00000000000E+00 -0.27246892596E+03  0.27246892596E+03  0.00000000000E+00 0.  1.
         24    1    1    2    0    0 -0.24723194059E+02  0.55145410544E+02 -0.23989099076E+03  0.26012911416E+03  0.80419002446E+02 0.  1.
        -24    1    1    2    0    0  0.24723194059E+02 -0.55145410544E+02  0.90185562810E+02  0.13510330981E+03  0.80419002446E+02 0. -1.
<mgrwt>
<rscale>  0 0.10059557E+03</rscale>
<asrwt>0</asrwt>
<pdfrwt beam="1">  1        1 0.18886692E-01 0.10059557E+03</pdfrwt>
<pdfrwt beam="2">  1       -1 0.41918296E-01 0.10059557E+03</pdfrwt>
<totfact> 0.15138989E+03</totfact>
</mgrwt>
</event>
<event>
 4    1  0.5124795E-001  0.8319498E+02  0.7546771E-02  0.1320221E+00
         -1   -1    0    0    0  501 -0.00000000000E+00  0.00000000000E+00  0.10249981683E+03  0.10249981683E+03  0.00000000000E+00 0.  1.
          1   -1    0    0  501    0  0.00000000000E+00 -0.00000000000E+00 -0.78332771093E+02  0.78332771093E+02  0.00000000000E+00 0. -1.
         24    1    1    2    0    0  0.18914778215E+02 -0.98193543251E+01  0.45666760696E+02  0.94904465338E+02  0.80419002446E+02 0.  0.
        -24    1    1    2    0    0 -0.18914778215E+02  0.98193543251E+01 -0.21499714955E+02  0.85928122590E+02  0.80419002446E+02 0.  0.
<mgrwt>
<rscale>  0 0.83194979E+02</rscale>
<asrwt>0</asrwt>
<pdfrwt beam="1">  1        1 0.12051196E-01 0.83194979E+02</pdfrwt>
<pdfrwt beam="2">  1       -1 0.15769203E-01 0.83194979E+02</pdfrwt>
<totfact> 0.13154916E+04</totfact>
</mgrwt>
</event>
<event>
 4    1  0.5124795E-001  0.8633722E+02  0.7546771E-02  0.1311972E+00
         -2   -1    0    0    0  501 -0.00000000000E+00  0.00000000000E+00  0.11284611635E+02  0.11284611635E+02  0.00000000000E+00 0.  1.
          2   -1    0    0  501    0  0.00000000000E+00 -0.00000000000E+00 -0.66901864432E+03  0.66901864432E+03  0.00000000000E+00 0. -1.
         24    1    1    2    0    0  0.52849800411E+01 -0.30967161449E+02 -0.29060923089E+03  0.30316305371E+03  0.80419002446E+02 0. -1.
        -24    1    1    2    0    0 -0.52849800411E+01  0.30967161449E+02 -0.36712480180E+03  0.37714020225E+03  0.80419002446E+02 0.  0.
<mgrwt>
<rscale>  0 0.86337211E+02</rscale>
<asrwt>0</asrwt>
<pdfrwt beam="1">  1        2 0.10292594E+00 0.86337221E+02</pdfrwt>
<pdfrwt beam="2">  1       -2 0.17360942E-02 0.86337221E+02</pdfrwt>
<totfact> 0.37609087E+04</totfact>
</mgrwt>
</event>
<event>
 4    1  0.5124795E-001  0.8762923E+02  0.7546771E-02  0.1308697E+00
         -2   -1    0    0    0  501 -0.00000000000E+00  0.00000000000E+00  0.33112411287E+02  0.33112411287E+02  0.00000000000E+00 0.  1.
          2   -1    0    0  501    0  0.00000000000E+00 -0.00000000000E+00 -0.23203277699E+03  0.23203277699E+03  0.00000000000E+00 0. -1.
         24    1    1    2    0    0 -0.13063571665E+02 -0.32264603592E+02 -0.96328537607E+02  0.13022313413E+03  0.80419002446E+02 0.  0.
        -24    1    1    2    0    0  0.13063571665E+02  0.32264603592E+02 -0.10259182809E+03  0.13492205415E+03  0.80419002446E+02 0.  1.
<mgrwt>
<rscale>  0 0.87629216E+02</rscale>
<asrwt>0</asrwt>
<pdfrwt beam="1">  1        2 0.35697352E-01 0.87629227E+02</pdfrwt>
<pdfrwt beam="2">  1       -2 0.50942169E-02 0.87629227E+02</pdfrwt>
<totfact> 0.24394925E+04</totfact>
</mgrwt>
</event>
<event>
 4    1  0.5124795E-001  0.8113070E+02  0.7546771E-02  0.1325873E+00
         -1   -1    0    0    0  501 -0.00000000000E+00  0.00000000000E+00  0.58408399812E+03  0.58408399812E+03  0.00000000000E+00 0.  1.
          1   -1    0    0  501    0  0.00000000000E+00 -0.00000000000E+00 -0.17471594952E+03  0.17471594952E+03  0.00000000000E+00 0. -1.
         24    1    1    2    0    0  0.13117880264E+01  0.10642077129E+02  0.57164433379E+03  0.57737287337E+03  0.80419002446E+02 0.  1.
        -24    1    1    2    0    0 -0.13117880264E+01 -0.10642077129E+02 -0.16227628518E+03  0.18142707428E+03  0.80419002446E+02 0. -1.
<mgrwt>
<rscale>  0 0.81130700E+02</rscale>
<asrwt>0</asrwt>
<pdfrwt beam="1">  1        1 0.26879377E-01 0.81130700E+02</pdfrwt>
<pdfrwt beam="2">  1       -1 0.89859076E-01 0.81130700E+02</pdfrwt>
<totfact> 0.22825579E+02</totfact>
</mgrwt>
</event>
<event>
 4    1  0.5124795E-001  0.8655052E+02  0.7546771E-02  0.1311427E+00
         -1   -1    0    0    0  501 -0.00000000000E+00  0.00000000000E+00  0.17067360636E+03  0.17067360636E+03  0.00000000000E+00 0.  1.
          1   -1    0    0  501    0  0.00000000000E+00 -0.00000000000E+00 -0.26855950497E+03  0.26855950497E+03  0.00000000000E+00 0. -1.
         24    1    1    2    0    0  0.13531022809E+02  0.28994605829E+02  0.15192754881E+03  0.17485128477E+03  0.80419002446E+02 0.  1.
        -24    1    1    2    0    0 -0.13531022809E+02 -0.28994605829E+02 -0.24981344743E+03  0.26438182656E+03  0.80419002446E+02 0. -1.
<mgrwt>
<rscale>  0 0.86550515E+02</rscale>
<asrwt>0</asrwt>
<pdfrwt beam="1">  1        1 0.41316847E-01 0.86550515E+02</pdfrwt>
<pdfrwt beam="2">  1       -1 0.26257478E-01 0.86550515E+02</pdfrwt>
<totfact> 0.12608285E+03</totfact>
</mgrwt>
</event>
<event>
 4    1  0.5124795E-001  0.8500917E+02  0.7546771E-02  0.1315409E+00
          2   -1    0    0  501    0  0.00000000000E+00  0.00000000000E+00  0.17323690848E+03  0.17323690848E+03  0.00000000000E+00 0. -1.
         -2   -1    0    0    0  501 -0.00000000000E+00 -0.00000000000E+00 -0.46031708228E+02  0.46031708228E+02  0.00000000000E+00 0.  1.
         24    1    1    2    0    0 -0.16539339694E+02  0.22040731759E+02  0.97176325175E+02  0.12911157091E+03  0.80419002446E+02 0. -1.
        -24    1    1    2    0    0  0.16539339694E+02 -0.22040731759E+02  0.30028875074E+02  0.90157045795E+02  0.80419002446E+02 0.  1.
<mgrwt>
<rscale>  0 0.85009173E+02</rscale>
<asrwt>0</asrwt>
<pdfrwt beam="1">  1        2 0.26651832E-01 0.85009173E+02</pdfrwt>
<pdfrwt beam="2">  1       -2 0.70818013E-02 0.85009173E+02</pdfrwt>
<totfact> 0.20259205E+04</totfact>
</mgrwt>
</event>
<event>
 4    1  0.5124795E-001  0.8932593E+02  0.7546771E-02  0.1304492E+00
         -1   -1    0    0    0  501 -0.00000000000E+00  0.00000000000E+00  0.15331888906E+04  0.15331888906E+04  0.00000000000E+00 0.  1.
          1   -1    0    0  501    0  0.00000000000E+00 -0.00000000000E+00 -0.39115710945E+02  0.39115710945E+02  0.00000000000E+00 0. -1.
         24    1    1    2    0    0  0.50996791494E+00  0.38879898547E+02  0.14790250332E+04  0.14817200044E+04  0.80419002446E+02 0.  1.
        -24    1    1    2    0    0 -0.50996791494E+00 -0.38879898547E+02  0.15048146455E+02  0.90584597170E+02  0.80419002446E+02 0. -1.
<mgrwt>
<rscale>  0 0.89325934E+02</rscale>
<asrwt>0</asrwt>
<pdfrwt beam="1">  1        1 0.60178028E-02 0.89325934E+02</pdfrwt>
<pdfrwt beam="2">  1       -1 0.23587517E+00 0.89325934E+02</pdfrwt>
<totfact> 0.12885478E+02</totfact>
</mgrwt>
</event>
<event>
 4    1  0.5124795E-001  0.9959673E+02  0.7546771E-02  0.1281146E+00
         -2   -1    0    0    0  501 -0.00000000000E+00  0.00000000000E+00  0.10019211209E+02  0.10019211209E+02  0.00000000000E+00 0.  1.
          2   -1    0    0  501    0  0.00000000000E+00 -0.00000000000E+00 -0.20743447161E+04  0.20743447161E+04  0.00000000000E+00 0. -1.
         24    1    1    2    0    0 -0.42544912785E+02 -0.40524363407E+02 -0.17856518419E+04  0.17884272448E+04  0.80419002446E+02 0. -1.
        -24    1    1    2    0    0  0.42544912785E+02  0.40524363407E+02 -0.27867366295E+03  0.29593668244E+03  0.80419002446E+02 0.  1.
<mgrwt>
<rscale>  0 0.99596735E+02</rscale>
<asrwt>0</asrwt>
<pdfrwt beam="1">  1        2 0.31912978E+00 0.99596735E+02</pdfrwt>
<pdfrwt beam="2">  1       -2 0.15414179E-02 0.99596735E+02</pdfrwt>
<totfact> 0.75444343E+03</totfact>
</mgrwt>
</event>
<event>
 4    1  0.5124795E-001  0.8371765E+02  0.7546771E-02  0.1318820E+00
         -1   -1    0    0    0  501 -0.00000000000E+00  0.00000000000E+00  0.15558512509E+03  0.15558512509E+03  0.00000000000E+00 0.  1.
          1   -1    0    0  501    0  0.00000000000E+00 -0.00000000000E+00 -0.96916758187E+02  0.96916758187E+02  0.00000000000E+00 0. -1.
         24    1    1    2    0    0 -0.15221157722E+02 -0.17599594745E+02  0.12169595174E+03  0.14771103548E+03  0.80419002446E+02 0.  1.
        -24    1    1    2    0    0  0.15221157722E+02  0.17599594745E+02 -0.63027584837E+02  0.10479084780E+03  0.80419002446E+02 0. -1.
<mgrwt>
<rscale>  0 0.83717652E+02</rscale>
<asrwt>0</asrwt>
<pdfrwt beam="1">  1        1 0.14910270E-01 0.83717652E+02</pdfrwt>
<pdfrwt beam="2">  1       -1 0.23936173E-01 0.83717652E+02</pdfrwt>
<totfact> 0.51765315E+03</totfact>
</mgrwt>
</event>
<event>
 4    1  0.5124795E-001  0.8335796E+02  0.7546771E-02  0.1319783E+00
          2   -1    0    0  501    0  0.00000000000E+00  0.00000000000E+00  0.41836135878E+03  0.41836135878E+03  0.00000000000E+00 0. -1.
         -2   -1    0    0    0  501 -0.00000000000E+00 -0.00000000000E+00 -0.17219981318E+02  0.17219981318E+02  0.00000000000E+00 0.  1.
         24    1    1    2    0    0  0.18304587716E+02  0.12094417574E+02  0.24159578690E+03  0.25557205064E+03  0.80419002446E+02 0. -1.
        -24    1    1    2    0    0 -0.18304587716E+02 -0.12094417574E+02  0.15954559056E+03  0.18000928945E+03  0.80419002446E+02 0.  1.
<mgrwt>
<rscale>  0 0.83357956E+02</rscale>
<asrwt>0</asrwt>
<pdfrwt beam="1">  1        2 0.64363278E-01 0.83357956E+02</pdfrwt>
<pdfrwt beam="2">  1       -2 0.26492282E-02 0.83357956E+02</pdfrwt>
<totfact> 0.34078015E+04</totfact>
</mgrwt>
</event>
<event>
 4    1  0.5124795E-001  0.8186454E+02  0.7546771E-02  0.1323842E+00
          1   -1    0    0  501    0  0.00000000000E+00  0.00000000000E+00  0.20492605438E+02  0.20492605438E+02  0.00000000000E+00 0. -1.
         -1   -1    0    0    0  501 -0.00000000000E+00 -0.00000000000E+00 -0.50435023046E+03  0.50435023046E+03  0.00000000000E+00 0.  1.
         24    1    1    2    0    0  0.11523430076E+02  0.10089448583E+02 -0.39752752472E+03  0.40586935740E+03  0.80419002446E+02 0.  1.
        -24    1    1    2    0    0 -0.11523430076E+02 -0.10089448583E+02 -0.86330100306E+02  0.11897347850E+03  0.80419002446E+02 0.  0.
<mgrwt>
<rscale>  0 0.81864537E+02</rscale>
<asrwt>0</asrwt>
<pdfrwt beam="1">  1        1 0.31527085E-02 0.81864537E+02</pdfrwt>
<pdfrwt beam="2">  1       -1 0.77592344E-01 0.81864537E+02</pdfrwt>
<totfact> 0.50586239E+03</totfact>
</mgrwt>
</event>
<event>
 4    1  0.5124795E-001  0.1116132E+03  0.7546771E-02  0.1257611E+00
          2   -1    0    0  501    0  0.00000000000E+00  0.00000000000E+00  0.15811202495E+04  0.15811202495E+04  0.00000000000E+00 0. -1.
         -2   -1    0    0    0  501 -0.00000000000E+00 -0.00000000000E+00 -0.11918891058E+02  0.11918891058E+02  0.00000000000E+00 0.  1.
         24    1    1    2    0    0  0.75935696464E+02  0.14968659046E+02  0.12483337870E+04  0.12533135085E+04  0.80419002446E+02 0.  0.
        -24    1    1    2    0    0 -0.75935696464E+02 -0.14968659046E+02  0.32086757142E+03  0.33972563208E+03  0.80419002446E+02 0. -1.
<mgrwt>
<rscale>  0 0.11161320E+03</rscale>
<asrwt>0</asrwt>
<pdfrwt beam="1">  1        2 0.24324910E+00 0.11161320E+03</pdfrwt>
<pdfrwt beam="2">  1       -2 0.18336768E-02 0.11161320E+03</pdfrwt>
<totfact> 0.10492108E+04</totfact>
</mgrwt>
</event>
<event>
 4    1  0.5124795E-001  0.8291368E+02  0.7546771E-02  0.1320980E+00
          2   -1    0    0  501    0  0.00000000000E+00  0.00000000000E+00  0.94426069916E+02  0.94426069916E+02  0.00000000000E+00 0. -1.
         -2   -1    0    0    0  501 -0.00000000000E+00 -0.00000000000E+00 -0.78009606452E+02  0.78009606452E+02  0.00000000000E+00 0.  1.
         24    1    1    2    0    0 -0.16999464228E+02 -0.10884900550E+02  0.30478322745E+02  0.88338026669E+02  0.80419002446E+02 0. -1.
        -24    1    1    2    0    0  0.16999464228E+02  0.10884900550E+02 -0.14061859281E+02  0.84097649699E+02  0.80419002446E+02 0.  1.
<mgrwt>
<rscale>  0 0.82913683E+02</rscale>
<asrwt>0</asrwt>
<pdfrwt beam="1">  1        2 0.14527088E-01 0.82913683E+02</pdfrwt>
<pdfrwt beam="2">  1       -2 0.12001478E-01 0.82913683E+02</pdfrwt>
<totfact> 0.17635372E+04</totfact>
</mgrwt>
</event>
<event>
 4    1  0.5124795E-001  0.8532774E+02  0.7546771E-02  0.1314578E+00
         -1   -1    0    0    0  501 -0.00000000000E+00  0.00000000000E+00  0.51149104930E+02  0.51149104930E+02  0.00000000000E+00 0.  1.
          1   -1    0    0  501    0  0.00000000000E+00 -0.00000000000E+00 -0.14510494287E+03  0.14510494287E+03  0.00000000000E+00 0. -1.
         24    1    1    2    0    0  0.75042455935E+01  0.27518980547E+02 -0.33445031005E+02  0.91648208087E+02  0.80419002446E+02 0.  1.
        -24    1    1    2    0    0 -0.75042455935E+01 -0.27518980547E+02 -0.60510806938E+02  0.10460583972E+03  0.80419002446E+02 0. -1.
<mgrwt>
<rscale>  0 0.85327744E+02</rscale>
<asrwt>0</asrwt>
<pdfrwt beam="1">  1        1 0.22323837E-01 0.85327744E+02</pdfrwt>
<pdfrwt beam="2">  1       -1 0.78690932E-02 0.85327744E+02</pdfrwt>
<totfact> 0.17330777E+04</totfact>
</mgrwt>
</event>
<event>
 4    1  0.5124795E-001  0.8474409E+02  0.7546771E-02  0.1316103E+00
          1   -1    0    0  501    0  0.00000000000E+00  0.00000000000E+00  0.26736160230E+02  0.26736160230E+02  0.00000000000E+00 0. -1.
         -1   -1    0    0    0  501 -0.00000000000E+00 -0.00000000000E+00 -0.29607842020E+03  0.29607842020E+03  0.00000000000E+00 0.  1.
         24    1    1    2    0    0  0.18364562976E+02 -0.19418764729E+02 -0.18383521696E+03  0.20242763780E+03  0.80419002446E+02 0.  1.
        -24    1    1    2    0    0 -0.18364562976E+02  0.19418764729E+02 -0.85507043013E+02  0.12038694263E+03  0.80419002446E+02 0. -1.
<mgrwt>
<rscale>  0 0.84744094E+02</rscale>
<asrwt>0</asrwt>
<pdfrwt beam="1">  1        1 0.41132555E-02 0.84744094E+02</pdfrwt>
<pdfrwt beam="2">  1       -1 0.45550526E-01 0.84744094E+02</pdfrwt>
<totfact> 0.96035650E+03</totfact>
</mgrwt>
</event>
<event>
 4    1  0.5124795E-001  0.9798243E+02  0.7546771E-02  0.1284597E+00
         -1   -1    0    0    0  501 -0.00000000000E+00  0.00000000000E+00  0.46133897672E+02  0.46133897672E+02  0.00000000000E+00 0.  1.
          1   -1    0    0  501    0  0.00000000000E+00 -0.00000000000E+00 -0.43772995255E+03  0.43772995255E+03  0.00000000000E+00 0. -1.
         24    1    1    2    0    0  0.40275333132E+02 -0.38874638645E+02 -0.20570459087E+02  0.10011842852E+03  0.80419002446E+02 0.  1.
        -24    1    1    2    0    0 -0.40275333132E+02  0.38874638645E+02 -0.37102559580E+03  0.38374542170E+03  0.80419002446E+02 0. -1.
<mgrwt>
<rscale>  0 0.97982427E+02</rscale>
<asrwt>0</asrwt>
<pdfrwt beam="1">  1        1 0.67343072E-01 0.97982427E+02</pdfrwt>
<pdfrwt beam="2">  1       -1 0.70975224E-02 0.97982427E+02</pdfrwt>
<totfact> 0.52548873E+03</totfact>
</mgrwt>
</event>
<event>
 4    1  0.5124795E-001  0.8243636E+02  0.7546771E-02  0.1322276E+00
          2   -1    0    0  501    0  0.00000000000E+00  0.00000000000E+00  0.25127719150E+04  0.25127719150E+04  0.00000000000E+00 0. -1.
         -2   -1    0    0    0  501 -0.00000000000E+00 -0.00000000000E+00 -0.34170648198E+01  0.34170648198E+01  0.00000000000E+00 0.  1.
         24    1    1    2    0    0  0.98323673978E+01  0.15226990284E+02  0.18291953336E+04  0.18310519712E+04  0.80419002446E+02 0. -1.
        -24    1    1    2    0    0 -0.98323673978E+01 -0.15226990284E+02  0.68015951654E+03  0.68513700862E+03  0.80419002446E+02 0.  1.
<mgrwt>
<rscale>  0 0.82436355E+02</rscale>
<asrwt>0</asrwt>
<pdfrwt beam="1">  1        2 0.38657882E+00 0.82436355E+02</pdfrwt>
<pdfrwt beam="2">  1       -2 0.52570429E-03 0.82436355E+02</pdfrwt>
<totfact> 0.20394697E+04</totfact>
</mgrwt>
</event>
<event>
 4    1  0.5124795E-001  0.9643852E+02  0.7546771E-02  0.1287969E+00
         -2   -1    0    0    0  501 -0.00000000000E+00  0.00000000000E+00  0.37095242337E+03  0.37095242337E+03  0.00000000000E+00 0.  1.
          2   -1    0    0  501    0  0.00000000000E+00 -0.00000000000E+00 -0.39181484842E+03  0.39181484842E+03  0.00000000000E+00 0. -1.
         24    1    1    2    0    0 -0.25551467486E+02  0.46693620722E+02 -0.37941105949E+03  0.39147559275E+03  0.80419002446E+02 0. -1.
        -24    1    1    2    0    0  0.25551467486E+02 -0.46693620722E+02  0.35854863444E+03  0.37129167904E+03  0.80419002446E+02 0.  1.
<mgrwt>
<rscale>  0 0.96438518E+02</rscale>
<asrwt>0</asrwt>
<pdfrwt beam="1">  1        2 0.60279207E-01 0.96438518E+02</pdfrwt>
<pdfrwt beam="2">  1       -2 0.57069604E-01 0.96438518E+02</pdfrwt>
<totfact> 0.24471476E+02</totfact>
</mgrwt>
</event>
<event>
 4    1  0.5124795E-001  0.9919489E+02  0.7546771E-02  0.1281998E+00
          2   -1    0    0  501    0  0.00000000000E+00  0.00000000000E+00  0.11585269538E+04  0.11585269538E+04  0.00000000000E+00 0. -1.
         -2   -1    0    0    0  501 -0.00000000000E+00 -0.00000000000E+00 -0.20626780330E+02  0.20626780330E+02  0.00000000000E+00 0.  1.
         24    1    1    2    0    0  0.56261286757E+02 -0.14390197089E+02  0.10211378567E+04  0.10259445153E+04  0.80419002446E+02 0. -1.
        -24    1    1    2    0    0 -0.56261286757E+02  0.14390197089E+02  0.11676231678E+03  0.15320921883E+03  0.80419002446E+02 0.  1.
<mgrwt>
<rscale>  0 0.99194890E+02</rscale>
<asrwt>0</asrwt>
<pdfrwt beam="1">  1        2 0.17823486E+00 0.99194890E+02</pdfrwt>
<pdfrwt beam="2">  1       -2 0.31733517E-02 0.99194890E+02</pdfrwt>
<totfact> 0.78669437E+03</totfact>
</mgrwt>
</event>
<event>
 4    1  0.5124795E-001  0.8068122E+02  0.7546771E-02  0.1327129E+00
         -2   -1    0    0    0  501 -0.00000000000E+00  0.00000000000E+00  0.17651793229E+02  0.17651793229E+02  0.00000000000E+00 0.  1.
          2   -1    0    0  501    0  0.00000000000E+00 -0.00000000000E+00 -0.40023017630E+03  0.40023017630E+03  0.00000000000E+00 0. -1.
         24    1    1    2    0    0  0.17851019388E+01 -0.62494880906E+01 -0.24986882062E+03  0.26257167814E+03  0.80419002446E+02 0.  0.
        -24    1    1    2    0    0 -0.17851019388E+01  0.62494880906E+01 -0.13270956246E+03  0.15531029140E+03  0.80419002446E+02 0.  1.
<mgrwt>
<rscale>  0 0.80681216E+02</rscale>
<asrwt>0</asrwt>
<pdfrwt beam="1">  1        2 0.61573871E-01 0.80681216E+02</pdfrwt>
<pdfrwt beam="2">  1       -2 0.27156606E-02 0.80681216E+02</pdfrwt>
<totfact> 0.34311725E+04</totfact>
</mgrwt>
</event>
<event>
 4    1  0.5124795E-001  0.1297740E+03  0.7546771E-02  0.1227792E+00
         -1   -1    0    0    0  501 -0.00000000000E+00  0.00000000000E+00  0.74664271139E+02  0.74664271139E+02  0.00000000000E+00 0.  1.
          1   -1    0    0  501    0  0.00000000000E+00 -0.00000000000E+00 -0.27574680631E+03  0.27574680631E+03  0.00000000000E+00 0. -1.
         24    1    1    2    0    0 -0.18383054658E+02  0.10018047381E+03 -0.25795438980E+02  0.13231282877E+03  0.80419002446E+02 0.  1.
        -24    1    1    2    0    0  0.18383054658E+02 -0.10018047381E+03 -0.17528709619E+03  0.21809824868E+03  0.80419002446E+02 0. -1.
<mgrwt>
<rscale>  0 0.12977396E+03</rscale>
<asrwt>0</asrwt>
<pdfrwt beam="1">  1        1 0.42422587E-01 0.12977396E+03</pdfrwt>
<pdfrwt beam="2">  1       -1 0.11486811E-01 0.12977396E+03</pdfrwt>
<totfact> 0.45825972E+03</totfact>
</mgrwt>
</event>
<event>
 4    1  0.5124795E-001  0.8384584E+02  0.7546771E-02  0.1318479E+00
         -2   -1    0    0    0  501 -0.00000000000E+00  0.00000000000E+00  0.99981447934E+01  0.99981447934E+01  0.00000000000E+00 0.  1.
          2   -1    0    0  501    0  0.00000000000E+00 -0.00000000000E+00 -0.83052500849E+03  0.83052500849E+03  0.00000000000E+00 0. -1.
         24    1    1    2    0    0 -0.23689728938E+02 -0.13061273117E+01 -0.57485115341E+03  0.58093370857E+03  0.80419002446E+02 0.  0.
        -24    1    1    2    0    0  0.23689728938E+02  0.13061273117E+01 -0.24567571029E+03  0.25958944471E+03  0.80419002446E+02 0. -1.
<mgrwt>
<rscale>  0 0.83845842E+02</rscale>
<asrwt>0</asrwt>
<pdfrwt beam="1">  1        2 0.12777305E+00 0.83845842E+02</pdfrwt>
<pdfrwt beam="2">  1       -2 0.15381764E-02 0.83845842E+02</pdfrwt>
<totfact> 0.34454264E+04</totfact>
</mgrwt>
</event>
<event>
 4    1  0.5124795E-001  0.1330736E+03  0.7546771E-02  0.1222965E+00
          1   -1    0    0  501    0  0.00000000000E+00  0.00000000000E+00  0.96254210707E+03  0.96254210707E+03  0.00000000000E+00 0. -1.
         -1   -1    0    0    0  501 -0.00000000000E+00 -0.00000000000E+00 -0.30039644211E+02  0.30039644211E+02  0.00000000000E+00 0.  1.
         24    1    1    2    0    0  0.77709811754E+02 -0.72128734029E+02  0.15729199194E+03  0.20603241444E+03  0.80419002446E+02 0.  1.
        -24    1    1    2    0    0 -0.77709811754E+02  0.72128734029E+02  0.77521047092E+03  0.78654933685E+03  0.80419002446E+02 0. -1.
<mgrwt>
<rscale>  0 0.13307361E+03</rscale>
<asrwt>0</asrwt>
<pdfrwt beam="1">  1        1 0.14808338E+00 0.13307361E+03</pdfrwt>
<pdfrwt beam="2">  1       -1 0.46214845E-02 0.13307361E+03</pdfrwt>
<totfact> 0.33202723E+03</totfact>
</mgrwt>
</event>
<event>
 4    1  0.5124795E-001  0.9115737E+02  0.7546771E-02  0.1300073E+00
          2   -1    0    0  501    0  0.00000000000E+00  0.00000000000E+00  0.13711805801E+04  0.13711805801E+04  0.00000000000E+00 0. -1.
         -2   -1    0    0    0  501 -0.00000000000E+00 -0.00000000000E+00 -0.94874426888E+01  0.94874426888E+01  0.00000000000E+00 0.  1.
         24    1    1    2    0    0  0.35930982007E+02  0.23482201319E+02  0.10957580225E+04  0.10995432275E+04  0.80419002446E+02 0. -1.
        -24    1    1    2    0    0 -0.35930982007E+02 -0.23482201319E+02  0.26593511493E+03  0.28112479534E+03  0.80419002446E+02 0.  1.
<mgrwt>
<rscale>  0 0.91157365E+02</rscale>
<asrwt>0</asrwt>
<pdfrwt beam="1">  1        2 0.21095070E+00 0.91157365E+02</pdfrwt>
<pdfrwt beam="2">  1       -2 0.14596077E-02 0.91157365E+02</pdfrwt>
<totfact> 0.18447425E+04</totfact>
</mgrwt>
</event>
<event>
 4    1  0.5124795E-001  0.8505646E+02  0.7546771E-02  0.1315285E+00
          2   -1    0    0  501    0  0.00000000000E+00  0.00000000000E+00  0.18284477966E+04  0.18284477966E+04  0.00000000000E+00 0. -1.
         -2   -1    0    0    0  501 -0.00000000000E+00 -0.00000000000E+00 -0.42711918754E+01  0.42711918754E+01  0.00000000000E+00 0.  1.
         24    1    1    2    0    0  0.19114380747E+02  0.20050487649E+02  0.66342923300E+03  0.66885943573E+03  0.80419002446E+02 0.  0.
        -24    1    1    2    0    0 -0.19114380747E+02 -0.20050487649E+02  0.11607473717E+04  0.11638595528E+04  0.80419002446E+02 0. -1.
<mgrwt>
<rscale>  0 0.85056448E+02</rscale>
<asrwt>0</asrwt>
<pdfrwt beam="1">  1        2 0.28129904E+00 0.85056459E+02</pdfrwt>
<pdfrwt beam="2">  1       -2 0.65710790E-03 0.85056459E+02</pdfrwt>
<totfact> 0.33265778E+04</totfact>
</mgrwt>
</event>
<event>
 4    1  0.5124795E-001  0.9475703E+02  0.7546771E-02  0.1291724E+00
         -2   -1    0    0    0  501 -0.00000000000E+00  0.00000000000E+00  0.35949526070E+01  0.35949526070E+01  0.00000000000E+00 0.  1.
          2   -1    0    0  501    0  0.00000000000E+00 -0.00000000000E+00 -0.34141644494E+04  0.34141644494E+04  0.00000000000E+00 0. -1.
         24    1    1    2    0    0 -0.29493068832E+02 -0.40519586917E+02 -0.25906888456E+04  0.25924211827E+04  0.80419002446E+02 0.  1.
        -24    1    1    2    0    0  0.29493068832E+02  0.40519586917E+02 -0.81988065123E+03  0.82533821931E+03  0.80419002446E+02 0.  0.
<mgrwt>
<rscale>  0 0.94757026E+02</rscale>
<asrwt>0</asrwt>
<pdfrwt beam="1">  1        2 0.52525403E+00 0.94757026E+02</pdfrwt>
<pdfrwt beam="2">  1       -2 0.55307177E-03 0.94757026E+02</pdfrwt>
<totfact> 0.58646272E+03</totfact>
</mgrwt>
</event>
<event>
 4    1  0.5124795E-001  0.9371895E+02  0.7546771E-02  0.1294088E+00
         -2   -1    0    0    0  501 -0.00000000000E+00  0.00000000000E+00  0.18669056356E+02  0.18669056356E+02  0.00000000000E+00 0.  1.
          2   -1    0    0  501    0  0.00000000000E+00 -0.00000000000E+00 -0.49461595747E+03  0.49461595747E+03  0.00000000000E+00 0. -1.
         24    1    1    2    0    0 -0.34515656532E+02  0.33536420117E+02 -0.18126949493E+03  0.20406339154E+03  0.80419002446E+02 0.  1.
        -24    1    1    2    0    0  0.34515656532E+02 -0.33536420117E+02 -0.29467740619E+03  0.30922162229E+03  0.80419002446E+02 0. -1.
<mgrwt>
<rscale>  0 0.93718942E+02</rscale>
<asrwt>0</asrwt>
<pdfrwt beam="1">  1        2 0.76094754E-01 0.93718954E+02</pdfrwt>
<pdfrwt beam="2">  1       -2 0.28721629E-02 0.93718954E+02</pdfrwt>
<totfact> 0.25696881E+04</totfact>
</mgrwt>
</event>
<event>
 4    1  0.5124795E-001  0.1050955E+03  0.7546771E-02  0.1269931E+00
         -2   -1    0    0    0  501 -0.00000000000E+00  0.00000000000E+00  0.16533567540E+02  0.16533567540E+02  0.00000000000E+00 0.  1.
          2   -1    0    0  501    0  0.00000000000E+00 -0.00000000000E+00 -0.90408268341E+03  0.90408268341E+03  0.00000000000E+00 0. -1.
         24    1    1    2    0    0 -0.25230799788E+02  0.62779493468E+02 -0.67897623746E+03  0.68706171852E+03  0.80419002446E+02 0. -1.
        -24    1    1    2    0    0  0.25230799788E+02 -0.62779493468E+02 -0.20857287840E+03  0.23355453243E+03  0.80419002446E+02 0.  1.
<mgrwt>
<rscale>  0 0.10509555E+03</rscale>
<asrwt>0</asrwt>
<pdfrwt beam="1">  1        2 0.13908969E+00 0.10509555E+03</pdfrwt>
<pdfrwt beam="2">  1       -2 0.25436250E-02 0.10509555E+03</pdfrwt>
<totfact> 0.15333556E+04</totfact>
</mgrwt>
</event>
<event>
 4    1  0.5124795E-001  0.8977090E+02  0.7546771E-02  0.1303407E+00
          2   -1    0    0  501    0  0.00000000000E+00  0.00000000000E+00  0.13179795643E+04  0.13179795643E+04  0.00000000000E+00 0. -1.
         -2   -1    0    0    0  501 -0.00000000000E+00 -0.00000000000E+00 -0.73205620945E+01  0.73205620945E+01  0.00000000000E+00 0.  1.
         24    1    1    2    0    0 -0.21279096305E+02  0.33746099651E+02  0.92429271746E+03  0.92864193459E+03  0.80419002446E+02 0. -1.
        -24    1    1    2    0    0  0.21279096305E+02 -0.33746099651E+02  0.38636628477E+03  0.39665819183E+03  0.80419002446E+02 0.  1.
<mgrwt>
<rscale>  0 0.89770904E+02</rscale>
<asrwt>0</asrwt>
<pdfrwt beam="1">  1        2 0.20276590E+00 0.89770904E+02</pdfrwt>
<pdfrwt beam="2">  1       -2 0.11262414E-02 0.89770904E+02</pdfrwt>
<totfact> 0.28403355E+04</totfact>
</mgrwt>
</event>
<event>
 4    1  0.5124795E-001  0.1071643E+03  0.7546771E-02  0.1265913E+00
          2   -1    0    0  501    0  0.00000000000E+00  0.00000000000E+00  0.40722981397E+03  0.40722981397E+03  0.00000000000E+00 0. -1.
         -2   -1    0    0    0  501 -0.00000000000E+00 -0.00000000000E+00 -0.28587504499E+02  0.28587504499E+02  0.00000000000E+00 0.  1.
         24    1    1    2    0    0 -0.65378410431E+02  0.27251249528E+02  0.16397522152E+03  0.19588786684E+03  0.80419002446E+02 0.  0.
        -24    1    1    2    0    0  0.65378410431E+02 -0.27251249528E+02  0.21466708795E+03  0.23992945162E+03  0.80419002446E+02 0.  1.
<mgrwt>
<rscale>  0 0.10716429E+03</rscale>
<asrwt>0</asrwt>
<pdfrwt beam="1">  1        2 0.62650736E-01 0.10716431E+03</pdfrwt>
<pdfrwt beam="2">  1       -2 0.43980779E-02 0.10716431E+03</pdfrwt>
<totfact> 0.17154388E+04</totfact>
</mgrwt>
</event>
<event>
 4    1  0.5124795E-001  0.8552670E+02  0.7546771E-02  0.1314061E+00
          4   -1    0    0  501    0  0.00000000000E+00  0.00000000000E+00  0.13066456930E+03  0.13066456930E+03  0.00000000000E+00 0. -1.
         -4   -1    0    0    0  501 -0.00000000000E+00 -0.00000000000E+00 -0.57606772462E+02  0.57606772462E+02  0.00000000000E+00 0.  1.
         24    1    1    2    0    0 -0.15489743750E+02 -0.24650935112E+02  0.52339995251E+02  0.10027109165E+03  0.80419002446E+02 0.  0.
        -24    1    1    2    0    0  0.15489743750E+02  0.24650935112E+02  0.20717801591E+02  0.88000250116E+02  0.80419002446E+02 0. -1.
<mgrwt>
<rscale>  0 0.85526702E+02</rscale>
<asrwt>0</asrwt>
<pdfrwt beam="1">  1        4 0.20102241E-01 0.85526702E+02</pdfrwt>
<pdfrwt beam="2">  1       -4 0.88625804E-02 0.85526702E+02</pdfrwt>
<totfact> 0.30246897E+03</totfact>
</mgrwt>
</event>
<event>
 4    1  0.5124795E-001  0.8043006E+02  0.7546771E-02  0.1327835E+00
         -2   -1    0    0    0  501 -0.00000000000E+00  0.00000000000E+00  0.61193106048E+01  0.61193106048E+01  0.00000000000E+00 0.  1.
          2   -1    0    0  501    0  0.00000000000E+00 -0.00000000000E+00 -0.10840754243E+04  0.10840754243E+04  0.00000000000E+00 0. -1.
         24    1    1    2    0    0  0.13334738802E+01  0.24037094236E-01 -0.62489347413E+03  0.63004829076E+03  0.80419002446E+02 0.  0.
        -24    1    1    2    0    0 -0.13334738802E+01 -0.24037094236E-01 -0.45306263952E+03  0.46014644410E+03  0.80419002446E+02 0.  1.
<mgrwt>
<rscale>  0 0.80430061E+02</rscale>
<asrwt>0</asrwt>
<pdfrwt beam="1">  1        2 0.16678089E+00 0.80430061E+02</pdfrwt>
<pdfrwt beam="2">  1       -2 0.94143209E-03 0.80430061E+02</pdfrwt>
<totfact> 0.48467753E+04</totfact>
</mgrwt>
</event>
<event>
 4    1  0.5124795E-001  0.8550734E+02  0.7546771E-02  0.1314111E+00
         -1   -1    0    0    0  501 -0.00000000000E+00  0.00000000000E+00  0.13896361342E+03  0.13896361342E+03  0.00000000000E+00 0.  1.
          1   -1    0    0  501    0  0.00000000000E+00 -0.00000000000E+00 -0.86952866983E+02  0.86952866983E+02  0.00000000000E+00 0. -1.
         24    1    1    2    0    0  0.58040928893E+01  0.28471055856E+02  0.96990216442E+02  0.12930045072E+03  0.80419002446E+02 0.  1.
        -24    1    1    2    0    0 -0.58040928893E+01 -0.28471055856E+02 -0.44979470005E+02  0.96616029685E+02  0.80419002446E+02 0. -1.
<mgrwt>
<rscale>  0 0.85507336E+02</rscale>
<asrwt>0</asrwt>
<pdfrwt beam="1">  1        1 0.13377364E-01 0.85507336E+02</pdfrwt>
<pdfrwt beam="2">  1       -1 0.21379018E-01 0.85507336E+02</pdfrwt>
<totfact> 0.71427967E+03</totfact>
</mgrwt>
</event>
<event>
 4    1  0.5124795E-001  0.8170267E+02  0.7546771E-02  0.1324288E+00
          1   -1    0    0  501    0  0.00000000000E+00  0.00000000000E+00  0.22613601787E+03  0.22613601787E+03  0.00000000000E+00 0. -1.
         -1   -1    0    0    0  501 -0.00000000000E+00 -0.00000000000E+00 -0.34959839527E+02  0.34959839527E+02  0.00000000000E+00 0.  1.
         24    1    1    2    0    0  0.14421016336E+02  0.38064461549E+00  0.44087149884E+02  0.92838587569E+02  0.80419002446E+02 0.  0.
        -24    1    1    2    0    0 -0.14421016336E+02 -0.38064461549E+00  0.14708902846E+03  0.16825726982E+03  0.80419002446E+02 0.  0.
<mgrwt>
<rscale>  0 0.81702672E+02</rscale>
<asrwt>0</asrwt>
<pdfrwt beam="1">  1        1 0.34790156E-01 0.81702672E+02</pdfrwt>
<pdfrwt beam="2">  1       -1 0.53784370E-02 0.81702672E+02</pdfrwt>
<totfact> 0.17522456E+04</totfact>
</mgrwt>
</event>
<event>
 4    1  0.5124795E-001  0.8415181E+02  0.7546771E-02  0.1317666E+00
         -3   -1    0    0    0  501 -0.00000000000E+00  0.00000000000E+00  0.10542384041E+03  0.10542384041E+03  0.00000000000E+00 0.  1.
          3   -1    0    0  501    0  0.00000000000E+00 -0.00000000000E+00 -0.10896001770E+03  0.10896001770E+03  0.00000000000E+00 0. -1.
         24    1    1    2    0    0  0.22456009096E+02 -0.10489928143E+02  0.64614556329E+02  0.10609697348E+03  0.80419002446E+02 0.  1.
        -24    1    1    2    0    0 -0.22456009096E+02  0.10489928143E+02 -0.68150733613E+02  0.10828688463E+03  0.80419002446E+02 0. -1.
<mgrwt>
<rscale>  0 0.84151809E+02</rscale>
<asrwt>0</asrwt>
<pdfrwt beam="1">  1        3 0.16763080E-01 0.84151809E+02</pdfrwt>
<pdfrwt beam="2">  1       -3 0.16219052E-01 0.84151809E+02</pdfrwt>
<totfact> 0.20735084E+03</totfact>
</mgrwt>
</event>
<event>
 4    1  0.5124795E-001  0.8097645E+02  0.7546771E-02  0.1326303E+00
          2   -1    0    0  501    0  0.00000000000E+00  0.00000000000E+00  0.17141660707E+04  0.17141660707E+04  0.00000000000E+00 0. -1.
         -2   -1    0    0    0  501 -0.00000000000E+00 -0.00000000000E+00 -0.61888723068E+01  0.61888723068E+01  0.00000000000E+00 0.  1.
         24    1    1    2    0    0  0.17639567294E+01  0.93197657413E+01  0.13855672083E+04  0.13879314371E+04  0.80419002446E+02 0.  0.
        -24    1    1    2    0    0 -0.17639567294E+01 -0.93197657413E+01  0.32240999016E+03  0.33242350592E+03  0.80419002446E+02 0.  1.
<mgrwt>
<rscale>  0 0.80976450E+02</rscale>
<asrwt>0</asrwt>
<pdfrwt beam="1">  1        2 0.26371748E+00 0.80976450E+02</pdfrwt>
<pdfrwt beam="2">  1       -2 0.95213557E-03 0.80976450E+02</pdfrwt>
<totfact> 0.22432755E+04</totfact>
</mgrwt>
</event>
<event>
 4    1  0.5124795E-001  0.8502314E+02  0.7546771E-02  0.1315372E+00
          1   -1    0    0  501    0  0.00000000000E+00  0.00000000000E+00  0.32450470991E+02  0.32450470991E+02  0.00000000000E+00 0. -1.
         -1   -1    0    0    0  501 -0.00000000000E+00 -0.00000000000E+00 -0.30037325668E+03  0.30037325668E+03  0.00000000000E+00 0.  1.
         24    1    1    2    0    0 -0.13607619524E+02  0.24011489317E+02 -0.21854739558E+03  0.23450351596E+03  0.80419002446E+02 0. -1.
        -24    1    1    2    0    0  0.13607619524E+02 -0.24011489317E+02 -0.49375390112E+02  0.98320211714E+02  0.80419002446E+02 0. -1.
<mgrwt>
<rscale>  0 0.85023143E+02</rscale>
<asrwt>0</asrwt>
<pdfrwt beam="1">  1        1 0.49923802E-02 0.85023143E+02</pdfrwt>
<pdfrwt beam="2">  1       -1 0.46211269E-01 0.85023143E+02</pdfrwt>
<totfact> 0.72070870E+03</totfact>
</mgrwt>
</event>
<event>
 4    1  0.5124795E-001  0.1324634E+03  0.7546771E-02  0.1223846E+00
         -2   -1    0    0    0  501 -0.00000000000E+00  0.00000000000E+00  0.46812796812E+02  0.46812796812E+02  0.00000000000E+00 0.  1.
          2   -1    0    0  501    0  0.00000000000E+00 -0.00000000000E+00 -0.49680178143E+03  0.49680178143E+03  0.00000000000E+00 0. -1.
         24    1    1    2    0    0 -0.45035613202E+02  0.95137429518E+02 -0.35967667692E+03  0.38329344480E+03  0.80419002446E+02 0. -1.
        -24    1    1    2    0    0  0.45035613202E+02 -0.95137429518E+02 -0.90312307696E+02  0.16032113344E+03  0.80419002446E+02 0.  1.
<mgrwt>
<rscale>  0 0.13246340E+03</rscale>
<asrwt>0</asrwt>
<pdfrwt beam="1">  1        2 0.76431043E-01 0.13246340E+03</pdfrwt>
<pdfrwt beam="2">  1       -2 0.72019687E-02 0.13246340E+03</pdfrwt>
<totfact> 0.66940683E+03</totfact>
</mgrwt>
</event>
<event>
 4    1  0.5124795E-001  0.8912129E+02  0.7546771E-02  0.1304994E+00
          1   -1    0    0  501    0  0.00000000000E+00  0.00000000000E+00  0.39125948541E+03  0.39125948541E+03  0.00000000000E+00 0. -1.
         -1   -1    0    0    0  501 -0.00000000000E+00 -0.00000000000E+00 -0.77992218326E+02  0.77992218326E+02  0.00000000000E+00 0.  1.
         24    1    1    2    0    0 -0.35454030283E+02 -0.14778358535E+02 -0.45160480027E+02  0.99910325067E+02  0.80419002446E+02 0.  1.
        -24    1    1    2    0    0  0.35454030283E+02  0.14778358535E+02  0.35842774711E+03  0.36934137867E+03  0.80419002446E+02 0. -1.
<mgrwt>
<rscale>  0 0.89121289E+02</rscale>
<asrwt>0</asrwt>
<pdfrwt beam="1">  1        1 0.60193766E-01 0.89121289E+02</pdfrwt>
<pdfrwt beam="2">  1       -1 0.11998803E-01 0.89121289E+02</pdfrwt>
<totfact> 0.27288348E+03</totfact>
</mgrwt>
</event>
<event>
 4    1  0.5124795E-001  0.8453362E+02  0.7546771E-02  0.1316657E+00
          2   -1    0    0  501    0  0.00000000000E+00  0.00000000000E+00  0.47190796444E+03  0.47190796444E+03  0.00000000000E+00 0. -1.
         -2   -1    0    0    0  501 -0.00000000000E+00 -0.00000000000E+00 -0.16955044636E+02  0.16955044636E+02  0.00000000000E+00 0.  1.
         24    1    1    2    0    0  0.72351652133E+01  0.25027359671E+02  0.30739275171E+03  0.31880438534E+03  0.80419002446E+02 0.  0.
        -24    1    1    2    0    0 -0.72351652133E+01 -0.25027359671E+02  0.14756016809E+03  0.17005862374E+03  0.80419002446E+02 0.  0.
<mgrwt>
<rscale>  0 0.84533616E+02</rscale>
<asrwt>0</asrwt>
<pdfrwt beam="1">  1        2 0.72601215E-01 0.84533616E+02</pdfrwt>
<pdfrwt beam="2">  1       -2 0.26084688E-02 0.84533616E+02</pdfrwt>
<totfact> 0.30722158E+04</totfact>
</mgrwt>
</event>
<event>
 4    1  0.5124795E-001  0.9834792E+02  0.7546771E-02  0.1283809E+00
          2   -1    0    0  501    0  0.00000000000E+00  0.00000000000E+00  0.30308508914E+03  0.30308508914E+03  0.00000000000E+00 0. -1.
         -2   -1    0    0    0  501 -0.00000000000E+00 -0.00000000000E+00 -0.31932169655E+02  0.31932169655E+02  0.00000000000E+00 0.  1.
         24    1    1    2    0    0  0.36978548935E+02  0.42868229362E+02  0.13969489325E+03  0.17084196593E+03  0.80419002446E+02 0. -1.
        -24    1    1    2    0    0 -0.36978548935E+02 -0.42868229362E+02  0.13145802624E+03  0.16417529286E+03  0.80419002446E+02 0.  0.
<mgrwt>
<rscale>  0 0.98347924E+02</rscale>
<asrwt>0</asrwt>
<pdfrwt beam="1">  1        2 0.46628473E-01 0.98347924E+02</pdfrwt>
<pdfrwt beam="2">  1       -2 0.49126417E-02 0.98347924E+02</pdfrwt>
<totfact> 0.19695972E+04</totfact>
</mgrwt>
</event>
<event>
 4    1  0.5124795E-001  0.9441494E+02  0.7546771E-02  0.1292499E+00
         -2   -1    0    0    0  501 -0.00000000000E+00  0.00000000000E+00  0.11462644998E+03  0.11462644998E+03  0.00000000000E+00 0.  1.
          2   -1    0    0  501    0  0.00000000000E+00 -0.00000000000E+00 -0.38855236073E+03  0.38855236073E+03  0.00000000000E+00 0. -1.
         24    1    1    2    0    0 -0.49006500715E+02 -0.67325969434E+01 -0.36197081694E+03  0.37408161308E+03  0.80419002446E+02 0. -1.
        -24    1    1    2    0    0  0.49006500715E+02  0.67325969434E+01  0.88044906189E+02  0.12909719762E+03  0.80419002446E+02 0.  1.
<mgrwt>
<rscale>  0 0.94414940E+02</rscale>
<asrwt>0</asrwt>
<pdfrwt beam="1">  1        2 0.59777287E-01 0.94414940E+02</pdfrwt>
<pdfrwt beam="2">  1       -2 0.17634838E-01 0.94414940E+02</pdfrwt>
<totfact> 0.20735699E+03</totfact>
</mgrwt>
</event>
<event>
 4    1  0.5124795E-001  0.9778888E+02  0.7546771E-02  0.1285016E+00
         -2   -1    0    0    0  501 -0.00000000000E+00  0.00000000000E+00  0.39103693666E+01  0.39103693666E+01  0.00000000000E+00 0.  1.
          2   -1    0    0  501    0  0.00000000000E+00 -0.00000000000E+00 -0.24542038982E+04  0.24542038982E+04  0.00000000000E+00 0. -1.
         24    1    1    2    0    0  0.34602739325E+02 -0.43567189240E+02 -0.12984938256E+04  0.13021708339E+04  0.80419002446E+02 0.  1.
        -24    1    1    2    0    0 -0.34602739325E+02  0.43567189240E+02 -0.11517997032E+04  0.11559434337E+04  0.80419002446E+02 0. -1.
<mgrwt>
<rscale>  0 0.97788882E+02</rscale>
<asrwt>0</asrwt>
<pdfrwt beam="1">  1        2 0.37756966E+00 0.97788882E+02</pdfrwt>
<pdfrwt beam="2">  1       -2 0.60159555E-03 0.97788882E+02</pdfrwt>
<totfact> 0.18265131E+04</totfact>
</mgrwt>
</event>
<event>
 4    1  0.5124795E-001  0.8251954E+02  0.7546771E-02  0.1322050E+00
          1   -1    0    0  501    0  0.00000000000E+00  0.00000000000E+00  0.11828320804E+04  0.11828320804E+04  0.00000000000E+00 0. -1.
         -1   -1    0    0    0  501 -0.00000000000E+00 -0.00000000000E+00 -0.58391387856E+01  0.58391387856E+01  0.00000000000E+00 0.  1.
         24    1    1    2    0    0 -0.13243614200E+02 -0.12917602361E+02  0.51797297826E+03  0.52450498561E+03  0.80419002446E+02 0.  1.
        -24    1    1    2    0    0  0.13243614200E+02  0.12917602361E+02  0.65901996333E+03  0.66416623355E+03  0.80419002446E+02 0. -1.
<mgrwt>
<rscale>  0 0.82519535E+02</rscale>
<asrwt>0</asrwt>
<pdfrwt beam="1">  1        1 0.18197398E+00 0.82519535E+02</pdfrwt>
<pdfrwt beam="2">  1       -1 0.89832999E-03 0.82519535E+02</pdfrwt>
<totfact> 0.23670667E+04</totfact>
</mgrwt>
</event>
<event>
 4    1  0.5124795E-001  0.8427947E+02  0.7546771E-02  0.1317328E+00
          2   -1    0    0  501    0  0.00000000000E+00  0.00000000000E+00  0.19047320010E+04  0.19047320010E+04  0.00000000000E+00 0. -1.
         -2   -1    0    0    0  501 -0.00000000000E+00 -0.00000000000E+00 -0.15846990164E+02  0.15846990164E+02  0.00000000000E+00 0.  1.
         24    1    1    2    0    0 -0.22015406992E+02  0.12293705163E+02  0.17841758781E+04  0.17861653320E+04  0.80419002446E+02 0. -1.
        -24    1    1    2    0    0  0.22015406992E+02 -0.12293705163E+02  0.10470913269E+03  0.13441365911E+03  0.80419002446E+02 0.  1.
<mgrwt>
<rscale>  0 0.84279471E+02</rscale>
<asrwt>0</asrwt>
<pdfrwt beam="1">  1        2 0.29303551E+00 0.84279471E+02</pdfrwt>
<pdfrwt beam="2">  1       -2 0.24380000E-02 0.84279471E+02</pdfrwt>
<totfact> 0.47331789E+03</totfact>
</mgrwt>
</event>
<event>
 4    1  0.5124795E-001  0.8294833E+02  0.7546771E-02  0.1320887E+00
          1   -1    0    0  501    0  0.00000000000E+00  0.00000000000E+00  0.20887759405E+03  0.20887759405E+03  0.00000000000E+00 0. -1.
         -1   -1    0    0    0  501 -0.00000000000E+00 -0.00000000000E+00 -0.35729028985E+02  0.35729028985E+02  0.00000000000E+00 0.  1.
         24    1    1    2    0    0 -0.10596854800E+02  0.17346951282E+02  0.52403506047E+02  0.98115001150E+02  0.80419002446E+02 0.  1.
        -24    1    1    2    0    0  0.10596854800E+02 -0.17346951282E+02  0.12074505902E+03  0.14649162188E+03  0.80419002446E+02 0. -1.
<mgrwt>
<rscale>  0 0.82948333E+02</rscale>
<asrwt>0</asrwt>
<pdfrwt beam="1">  1        1 0.32135014E-01 0.82948333E+02</pdfrwt>
<pdfrwt beam="2">  1       -1 0.54967738E-02 0.82948333E+02</pdfrwt>
<totfact> 0.18729776E+04</totfact>
</mgrwt>
</event>
<event>
 4    1  0.5124795E-001  0.8372265E+02  0.7546771E-02  0.1318807E+00
         -2   -1    0    0    0  501 -0.00000000000E+00  0.00000000000E+00  0.12126009297E+03  0.12126009297E+03  0.00000000000E+00 0.  1.
          2   -1    0    0  501    0  0.00000000000E+00 -0.00000000000E+00 -0.61283663915E+02  0.61283663915E+02  0.00000000000E+00 0. -1.
         24    1    1    2    0    0  0.22934843730E+02 -0.40317890448E+01  0.51732791410E+02  0.98416259029E+02  0.80419002446E+02 0.  1.
        -24    1    1    2    0    0 -0.22934843730E+02  0.40317890448E+01  0.82436376474E+01  0.84127497858E+02  0.80419002446E+02 0. -1.
<mgrwt>
<rscale>  0 0.83722638E+02</rscale>
<asrwt>0</asrwt>
<pdfrwt beam="1">  1        2 0.94282560E-02 0.83722648E+02</pdfrwt>
<pdfrwt beam="2">  1       -2 0.18655399E-01 0.83722648E+02</pdfrwt>
<totfact> 0.14469096E+04</totfact>
</mgrwt>
</event>
<event>
 4    1  0.5124795E-001  0.1068065E+03  0.7546771E-02  0.1266601E+00
          1   -1    0    0  501    0  0.00000000000E+00  0.00000000000E+00  0.16617929227E+04  0.16617929227E+04  0.00000000000E+00 0. -1.
         -1   -1    0    0    0  501 -0.00000000000E+00 -0.00000000000E+00 -0.94090214304E+01  0.94090214304E+01  0.00000000000E+00 0.  1.
         24    1    1    2    0    0 -0.70027446338E+02 -0.60481321538E+01  0.39166538738E+03  0.40596725825E+03  0.80419002446E+02 0.  1.
        -24    1    1    2    0    0  0.70027446338E+02  0.60481321538E+01  0.12607185139E+04  0.12652346859E+04  0.80419002446E+02 0. -1.
<mgrwt>
<rscale>  0 0.10680655E+03</rscale>
<asrwt>0</asrwt>
<pdfrwt beam="1">  1        1 0.25566022E+00 0.10680655E+03</pdfrwt>
<pdfrwt beam="2">  1       -1 0.14475431E-02 0.10680655E+03</pdfrwt>
<totfact> 0.59969747E+03</totfact>
</mgrwt>
</event>
<event>
 4    1  0.5124795E-001  0.8167333E+02  0.7546771E-02  0.1324369E+00
          2   -1    0    0  501    0  0.00000000000E+00  0.00000000000E+00  0.33307753258E+04  0.33307753258E+04  0.00000000000E+00 0. -1.
         -2   -1    0    0    0  501 -0.00000000000E+00 -0.00000000000E+00 -0.30051271303E+01  0.30051271303E+01  0.00000000000E+00 0.  1.
         24    1    1    2    0    0  0.15140515091E+01  0.14178301595E+02  0.26266111201E+04  0.26278806116E+04  0.80419002446E+02 0. -1.
        -24    1    1    2    0    0 -0.15140515091E+01 -0.14178301595E+02  0.70115907859E+03  0.70589984136E+03  0.80419002446E+02 0.  0.
<mgrwt>
<rscale>  0 0.81673328E+02</rscale>
<asrwt>0</asrwt>
<pdfrwt beam="1">  1        2 0.51242402E+00 0.81673328E+02</pdfrwt>
<pdfrwt beam="2">  1       -2 0.46232991E-03 0.81673328E+02</pdfrwt>
<totfact> 0.84790931E+03</totfact>
</mgrwt>
</event>
<event>
 4    1  0.5124795E-001  0.8787746E+02  0.7546771E-02  0.1308075E+00
         -2   -1    0    0    0  501 -0.00000000000E+00  0.00000000000E+00  0.11892288269E+03  0.11892288269E+03  0.00000000000E+00 0.  1.
          2   -1    0    0  501    0  0.00000000000E+00 -0.00000000000E+00 -0.74109718815E+02  0.74109718815E+02  0.00000000000E+00 0. -1.
         24    1    1    2    0    0  0.28614206105E+02  0.20891592501E+02 -0.11549818834E+02  0.88633208775E+02  0.80419002446E+02 0. -1.
        -24    1    1    2    0    0 -0.28614206105E+02 -0.20891592501E+02  0.56362982708E+02  0.10439939273E+03  0.80419002446E+02 0.  1.
<mgrwt>
<rscale>  0 0.87877457E+02</rscale>
<asrwt>0</asrwt>
<pdfrwt beam="1">  1        2 0.11401495E-01 0.87877457E+02</pdfrwt>
<pdfrwt beam="2">  1       -2 0.18295828E-01 0.87877457E+02</pdfrwt>
<totfact> 0.11947107E+04</totfact>
</mgrwt>
</event>
<event>
 4    1  0.5124795E-001  0.8843988E+02  0.7546771E-02  0.1306674E+00
          2   -1    0    0  501    0  0.00000000000E+00  0.00000000000E+00  0.59726600466E+03  0.59726600466E+03  0.00000000000E+00 0. -1.
         -2   -1    0    0    0  501 -0.00000000000E+00 -0.00000000000E+00 -0.39750727853E+02  0.39750727853E+02  0.00000000000E+00 0.  1.
         24    1    1    2    0    0  0.33910123125E+02  0.14300326026E+02  0.53957586408E+03  0.54677575369E+03  0.80419002446E+02 0. -1.
        -24    1    1    2    0    0 -0.33910123125E+02 -0.14300326026E+02  0.17939412727E+02  0.90240978819E+02  0.80419002446E+02 0.  1.
<mgrwt>
<rscale>  0 0.88439876E+02</rscale>
<asrwt>0</asrwt>
<pdfrwt beam="1">  1        2 0.91887071E-01 0.88439876E+02</pdfrwt>
<pdfrwt beam="2">  1       -2 0.61154970E-02 0.88439876E+02</pdfrwt>
<totfact> 0.68218219E+03</totfact>
</mgrwt>
</event>
<event>
 4    1  0.5124795E-001  0.8185530E+02  0.7546771E-02  0.1323867E+00
          2   -1    0    0  501    0  0.00000000000E+00  0.00000000000E+00  0.50581713875E+02  0.50581713875E+02  0.00000000000E+00 0. -1.
         -2   -1    0    0    0  501 -0.00000000000E+00 -0.00000000000E+00 -0.13733687984E+03  0.13733687984E+03  0.00000000000E+00 0.  1.
         24    1    1    2    0    0  0.23885235223E+01  0.15078762694E+02 -0.25680197085E+02  0.85789058776E+02  0.80419002446E+02 0.  0.
        -24    1    1    2    0    0 -0.23885235223E+01 -0.15078762694E+02 -0.61074968884E+02  0.10212953494E+03  0.80419002446E+02 0.  0.
<mgrwt>
<rscale>  0 0.81855300E+02</rscale>
<asrwt>0</asrwt>
<pdfrwt beam="1">  1        2 0.77818023E-02 0.81855300E+02</pdfrwt>
<pdfrwt beam="2">  1       -2 0.21128750E-01 0.81855300E+02</pdfrwt>
<totfact> 0.14837164E+04</totfact>
</mgrwt>
</event>
<event>
 4    1  0.5124795E-001  0.8538819E+02  0.7546771E-02  0.1314420E+00
         -2   -1    0    0    0  501 -0.00000000000E+00  0.00000000000E+00  0.13390554485E+03  0.13390554485E+03  0.00000000000E+00 0.  1.
          2   -1    0    0  501    0  0.00000000000E+00 -0.00000000000E+00 -0.39443095952E+03  0.39443095952E+03  0.00000000000E+00 0. -1.
         24    1    1    2    0    0 -0.95348416418E+01  0.27074237360E+02 -0.37552031429E+03  0.38510602428E+03  0.80419002446E+02 0. -1.
        -24    1    1    2    0    0  0.95348416418E+01 -0.27074237360E+02  0.11499489962E+03  0.14323048009E+03  0.80419002446E+02 0.  1.
<mgrwt>
<rscale>  0 0.85388193E+02</rscale>
<asrwt>0</asrwt>
<pdfrwt beam="1">  1        2 0.60681685E-01 0.85388193E+02</pdfrwt>
<pdfrwt beam="2">  1       -2 0.20600854E-01 0.85388193E+02</pdfrwt>
<totfact> 0.15695598E+03</totfact>
</mgrwt>
</event>
<event>
 4    1  0.5124795E-001  0.1061167E+03  0.7546771E-02  0.1267935E+00
         -4   -1    0    0    0  501 -0.00000000000E+00  0.00000000000E+00  0.47050816055E+03  0.47050816055E+03  0.00000000000E+00 0.  1.
          4   -1    0    0  501    0  0.00000000000E+00 -0.00000000000E+00 -0.32463844252E+02  0.32463844252E+02  0.00000000000E+00 0. -1.
         24    1    1    2    0    0  0.62772107501E+02  0.29209757082E+02  0.90106728984E+02  0.13921201798E+03  0.80419002446E+02 0.  0.
        -24    1    1    2    0    0 -0.62772107501E+02 -0.29209757082E+02  0.34793758731E+03  0.36375998682E+03  0.80419002446E+02 0. -1.
<mgrwt>
<rscale>  0 0.10611674E+03</rscale>
<asrwt>0</asrwt>
<pdfrwt beam="1">  1        4 0.49944379E-02 0.10611674E+03</pdfrwt>
<pdfrwt beam="2">  1       -4 0.72385866E-01 0.10611674E+03</pdfrwt>
<totfact> 0.66697755E+02</totfact>
</mgrwt>
</event>
<event>
 4    1  0.5124795E-001  0.8929203E+02  0.7546771E-02  0.1304575E+00
          2   -1    0    0  501    0  0.00000000000E+00  0.00000000000E+00  0.39576133584E+03  0.39576133584E+03  0.00000000000E+00 0. -1.
         -2   -1    0    0    0  501 -0.00000000000E+00 -0.00000000000E+00 -0.21859768229E+02  0.21859768229E+02  0.00000000000E+00 0.  1.
         24    1    1    2    0    0 -0.38258754031E+02 -0.64899169804E+01  0.24541453825E+03  0.26115390639E+03  0.80419002446E+02 0.  0.
        -24    1    1    2    0    0  0.38258754031E+02  0.64899169804E+01  0.12848702937E+03  0.15646719769E+03  0.80419002446E+02 0.  1.
<mgrwt>
<rscale>  0 0.89292033E+02</rscale>
<asrwt>0</asrwt>
<pdfrwt beam="1">  1        2 0.60886354E-01 0.89292033E+02</pdfrwt>
<pdfrwt beam="2">  1       -2 0.33630416E-02 0.89292033E+02</pdfrwt>
<totfact> 0.25756513E+04</totfact>
</mgrwt>
</event>
<event>
 4    1  0.5124795E-001  0.8138533E+02  0.7546771E-02  0.1325165E+00
          2   -1    0    0  501    0  0.00000000000E+00  0.00000000000E+00  0.85401546341E+03  0.85401546341E+03  0.00000000000E+00 0. -1.
         -2   -1    0    0    0  501 -0.00000000000E+00 -0.00000000000E+00 -0.10804606422E+03  0.10804606422E+03  0.00000000000E+00 0.  1.
         24    1    1    2    0    0 -0.32643687968E+01 -0.12070605033E+02  0.83642923758E+03  0.84037934354E+03  0.80419002446E+02 0. -1.
        -24    1    1    2    0    0  0.32643687968E+01  0.12070605033E+02 -0.90459838393E+02  0.12168218409E+03  0.80419002446E+02 0.  1.
<mgrwt>
<rscale>  0 0.81385328E+02</rscale>
<asrwt>0</asrwt>
<pdfrwt beam="1">  1        2 0.13138699E+00 0.81385328E+02</pdfrwt>
<pdfrwt beam="2">  1       -2 0.16622472E-01 0.81385328E+02</pdfrwt>
<totfact> 0.94126280E+02</totfact>
</mgrwt>
</event>
<event>
 4    1  0.5124795E-001  0.8664261E+02  0.7546771E-02  0.1311192E+00
         -2   -1    0    0    0  501 -0.00000000000E+00  0.00000000000E+00  0.42291410217E+01  0.42291410217E+01  0.00000000000E+00 0.  1.
          2   -1    0    0  501    0  0.00000000000E+00 -0.00000000000E+00 -0.18932960768E+04  0.18932960768E+04  0.00000000000E+00 0. -1.
         24    1    1    2    0    0  0.30621040887E+02 -0.10103137254E+02 -0.70742811726E+03  0.71271416330E+03  0.80419002446E+02 0.  1.
        -24    1    1    2    0    0 -0.30621040887E+02  0.10103137254E+02 -0.11816388185E+04  0.11848110545E+04  0.80419002446E+02 0.  1.
<mgrwt>
<rscale>  0 0.86642596E+02</rscale>
<asrwt>0</asrwt>
<pdfrwt beam="1">  1        2 0.29127728E+00 0.86642606E+02</pdfrwt>
<pdfrwt beam="2">  1       -2 0.65063493E-03 0.86642606E+02</pdfrwt>
<totfact> 0.31350071E+04</totfact>
</mgrwt>
</event>
<event>
 4    1  0.5124795E-001  0.1084449E+03  0.7546771E-02  0.1263477E+00
         -1   -1    0    0    0  501 -0.00000000000E+00  0.00000000000E+00  0.84094856497E+02  0.84094856497E+02  0.00000000000E+00 0.  1.
          1   -1    0    0  501    0  0.00000000000E+00 -0.00000000000E+00 -0.52809568087E+03  0.52809568087E+03  0.00000000000E+00 0. -1.
         24    1    1    2    0    0  0.25514700668E+02  0.68132845473E+02  0.40455314895E+02  0.11574512102E+03  0.80419002446E+02 0.  1.
        -24    1    1    2    0    0 -0.25514700668E+02 -0.68132845473E+02 -0.48445613927E+03  0.49644541634E+03  0.80419002446E+02 0. -1.
<mgrwt>
<rscale>  0 0.10844492E+03</rscale>
<asrwt>0</asrwt>
<pdfrwt beam="1">  1        1 0.81245489E-01 0.10844492E+03</pdfrwt>
<pdfrwt beam="2">  1       -1 0.12937670E-01 0.10844492E+03</pdfrwt>
<totfact> 0.16737391E+03</totfact>
</mgrwt>
</event>
<event>
 4    1  0.5124795E-001  0.8924103E+02  0.7546771E-02  0.1304700E+00
          2   -1    0    0  501    0  0.00000000000E+00  0.00000000000E+00  0.12027115776E+03  0.12027115776E+03  0.00000000000E+00 0. -1.
         -2   -1    0    0    0  501 -0.00000000000E+00 -0.00000000000E+00 -0.21223750757E+03  0.21223750757E+03  0.00000000000E+00 0.  1.
         24    1    1    2    0    0 -0.26387866596E+01 -0.38597692836E+02  0.91918408711E+02  0.12811305516E+03  0.80419002446E+02 0. -1.
        -24    1    1    2    0    0  0.26387866596E+01  0.38597692836E+02 -0.18388475852E+03  0.20439561018E+03  0.80419002446E+02 0.  1.
<mgrwt>
<rscale>  0 0.89241028E+02</rscale>
<asrwt>0</asrwt>
<pdfrwt beam="1">  1        2 0.18503255E-01 0.89241028E+02</pdfrwt>
<pdfrwt beam="2">  1       -2 0.32651924E-01 0.89241028E+02</pdfrwt>
<totfact> 0.25100373E+03</totfact>
</mgrwt>
</event>
<event>
 4    1  0.5124795E-001  0.9669128E+02  0.7546771E-02  0.1287412E+00
         -2   -1    0    0    0  501 -0.00000000000E+00  0.00000000000E+00  0.12213054349E+02  0.12213054349E+02  0.00000000000E+00 0.  1.
          2   -1    0    0  501    0  0.00000000000E+00 -0.00000000000E+00 -0.18593822751E+04  0.18593822751E+04  0.00000000000E+00 0. -1.
         24    1    1    2    0    0 -0.11727950001E+02  0.52387430286E+02 -0.16413476814E+04  0.16441932414E+04  0.80419002446E+02 0. -1.
        -24    1    1    2    0    0  0.11727950001E+02 -0.52387430286E+02 -0.20582153934E+03  0.22740208811E+03  0.80419002446E+02 0.  1.
<mgrwt>
<rscale>  0 0.96691280E+02</rscale>
<asrwt>0</asrwt>
<pdfrwt beam="1">  1        2 0.28605867E+00 0.96691280E+02</pdfrwt>
<pdfrwt beam="2">  1       -2 0.18789323E-02 0.96691280E+02</pdfrwt>
<totfact> 0.72830950E+03</totfact>
</mgrwt>
</event>
<event>
 4    1  0.5124795E-001  0.8525979E+02  0.7546771E-02  0.1314755E+00
         -2   -1    0    0    0  501 -0.00000000000E+00  0.00000000000E+00  0.10740084488E+03  0.10740084488E+03  0.00000000000E+00 0.  1.
          2   -1    0    0  501    0  0.00000000000E+00 -0.00000000000E+00 -0.78644018203E+02  0.78644018203E+02  0.00000000000E+00 0. -1.
         24    1    1    2    0    0 -0.28310754231E+02  0.71924130772E+00 -0.20349322890E+02  0.87654589210E+02  0.80419002446E+02 0.  0.
        -24    1    1    2    0    0  0.28310754231E+02 -0.71924130772E+00  0.49106149569E+02  0.98390273874E+02  0.80419002446E+02 0.  0.
<mgrwt>
<rscale>  0 0.85259792E+02</rscale>
<asrwt>0</asrwt>
<pdfrwt beam="1">  1        2 0.12099080E-01 0.85259792E+02</pdfrwt>
<pdfrwt beam="2">  1       -2 0.16523207E-01 0.85259792E+02</pdfrwt>
<totfact> 0.13121176E+04</totfact>
</mgrwt>
</event>
<event>
 4    1  0.5124795E-001  0.9417739E+02  0.7546771E-02  0.1293040E+00
         -2   -1    0    0    0  501 -0.00000000000E+00  0.00000000000E+00  0.86310968855E+01  0.86310968855E+01  0.00000000000E+00 0.  1.
          2   -1    0    0  501    0  0.00000000000E+00 -0.00000000000E+00 -0.16390414181E+04  0.16390414181E+04  0.00000000000E+00 0. -1.
         24    1    1    2    0    0  0.47738787692E+02 -0.11098354876E+02 -0.13183820007E+04  0.13217414577E+04  0.80419002446E+02 0.  0.
        -24    1    1    2    0    0 -0.47738787692E+02  0.11098354876E+02 -0.31202832046E+03  0.32593105721E+03  0.80419002446E+02 0. -1.
<mgrwt>
<rscale>  0 0.94177393E+02</rscale>
<asrwt>0</asrwt>
<pdfrwt beam="1">  1        2 0.25216049E+00 0.94177393E+02</pdfrwt>
<pdfrwt beam="2">  1       -2 0.13278596E-02 0.94177393E+02</pdfrwt>
<totfact> 0.15427813E+04</totfact>
</mgrwt>
</event>
<event>
 4    1  0.5124795E-001  0.1017731E+03  0.7546771E-02  0.1276611E+00
         -2   -1    0    0    0  501 -0.00000000000E+00  0.00000000000E+00  0.30497871541E+01  0.30497871541E+01  0.00000000000E+00 0.  1.
          2   -1    0    0  501    0  0.00000000000E+00 -0.00000000000E+00 -0.38998500641E+04  0.38998500641E+04  0.00000000000E+00 0. -1.
         24    1    1    2    0    0  0.61424343260E+02  0.10843915450E+02 -0.26496747409E+04  0.26516285541E+04  0.80419002446E+02 0. -1.
        -24    1    1    2    0    0 -0.61424343260E+02 -0.10843915450E+02 -0.12471255360E+04  0.12512712971E+04  0.80419002446E+02 0.  1.
<mgrwt>
<rscale>  0 0.10177306E+03</rscale>
<asrwt>0</asrwt>
<pdfrwt beam="1">  1        2 0.59997568E+00 0.10177306E+03</pdfrwt>
<pdfrwt beam="2">  1       -2 0.46919900E-03 0.10177306E+03</pdfrwt>
<totfact> 0.34941384E+03</totfact>
</mgrwt>
</event>
<event>
 4    1  0.5124795E-001  0.1095477E+03  0.7546771E-02  0.1261410E+00
         -1   -1    0    0    0  501 -0.00000000000E+00  0.00000000000E+00  0.84069241529E+02  0.84069241529E+02  0.00000000000E+00 0.  1.
          1   -1    0    0  501    0  0.00000000000E+00 -0.00000000000E+00 -0.14395044962E+03  0.14395044962E+03  0.00000000000E+00 0. -1.
         24    1    1    2    0    0 -0.73930694351E+02 -0.82296011575E+01 -0.19519214427E+02  0.11127304071E+03  0.80419002446E+02 0.  1.
        -24    1    1    2    0    0  0.73930694351E+02  0.82296011575E+01 -0.40361993667E+02  0.11674665044E+03  0.80419002446E+02 0. -1.
<mgrwt>
<rscale>  0 0.10954766E+03</rscale>
<asrwt>0</asrwt>
<pdfrwt beam="1">  1        1 0.22146223E-01 0.10954766E+03</pdfrwt>
<pdfrwt beam="2">  1       -1 0.12933730E-01 0.10954766E+03</pdfrwt>
<totfact> 0.84504150E+03</totfact>
</mgrwt>
</event>
<event>
 4    1  0.5124795E-001  0.9423161E+02  0.7546771E-02  0.1292916E+00
          1   -1    0    0  501    0  0.00000000000E+00  0.00000000000E+00  0.48027184544E+03  0.48027184544E+03  0.00000000000E+00 0. -1.
         -1   -1    0    0    0  501 -0.00000000000E+00 -0.00000000000E+00 -0.20479639613E+02  0.20479639613E+02  0.00000000000E+00 0.  1.
         24    1    1    2    0    0  0.44645590534E+02 -0.20473209342E+02  0.15183021779E+03  0.17869530504E+03  0.80419002446E+02 0.  1.
        -24    1    1    2    0    0 -0.44645590534E+02  0.20473209342E+02  0.30796198804E+03  0.32205618001E+03  0.80419002446E+02 0. -1.
<mgrwt>
<rscale>  0 0.94231614E+02</rscale>
<asrwt>0</asrwt>
<pdfrwt beam="1">  1        1 0.73887968E-01 0.94231614E+02</pdfrwt>
<pdfrwt beam="2">  1       -1 0.31507141E-02 0.94231614E+02</pdfrwt>
<totfact> 0.15289150E+04</totfact>
</mgrwt>
</event>
<event>
 4    1  0.5124795E-001  0.1003907E+03  0.7546771E-02  0.1279477E+00
         -3   -1    0    0    0  501 -0.00000000000E+00  0.00000000000E+00  0.10798944015E+03  0.10798944015E+03  0.00000000000E+00 0.  1.
          3   -1    0    0  501    0  0.00000000000E+00 -0.00000000000E+00 -0.14962689134E+03  0.14962689134E+03  0.00000000000E+00 0. -1.
         24    1    1    2    0    0 -0.42812771313E+02 -0.42167994978E+02  0.58193414316E+02  0.11603776373E+03  0.80419002446E+02 0.  1.
        -24    1    1    2    0    0  0.42812771313E+02  0.42167994978E+02 -0.99830865501E+02  0.14157856776E+03  0.80419002446E+02 0. -1.
<mgrwt>
<rscale>  0 0.10039068E+03</rscale>
<asrwt>0</asrwt>
<pdfrwt beam="1">  1        3 0.23019522E-01 0.10039068E+03</pdfrwt>
<pdfrwt beam="2">  1       -3 0.16613760E-01 0.10039068E+03</pdfrwt>
<totfact> 0.11855305E+03</totfact>
</mgrwt>
</event>
<event>
 4    1  0.5124795E-001  0.9174846E+02  0.7546771E-02  0.1298672E+00
          1   -1    0    0  501    0  0.00000000000E+00  0.00000000000E+00  0.88717318610E+02  0.88717318610E+02  0.00000000000E+00 0. -1.
         -1   -1    0    0    0  501 -0.00000000000E+00 -0.00000000000E+00 -0.10080087173E+03  0.10080087173E+03  0.00000000000E+00 0.  1.
         24    1    1    2    0    0  0.33380897290E+02 -0.28918489249E+02 -0.29001453382E+02  0.96222988818E+02  0.80419002446E+02 0.  1.
        -24    1    1    2    0    0 -0.33380897290E+02  0.28918489249E+02  0.16917900259E+02  0.93295201526E+02  0.80419002446E+02 0. -1.
<mgrwt>
<rscale>  0 0.91748457E+02</rscale>
<asrwt>0</asrwt>
<pdfrwt beam="1">  1        1 0.13648818E-01 0.91748457E+02</pdfrwt>
<pdfrwt beam="2">  1       -1 0.15507826E-01 0.91748457E+02</pdfrwt>
<totfact> 0.11615552E+04</totfact>
</mgrwt>
</event>
<event>
 4    1  0.5124795E-001  0.9171332E+02  0.7546771E-02  0.1298755E+00
          2   -1    0    0  501    0  0.00000000000E+00  0.00000000000E+00  0.99235227298E+03  0.99235227298E+03  0.00000000000E+00 0. -1.
         -2   -1    0    0    0  501 -0.00000000000E+00 -0.00000000000E+00 -0.25849089863E+02  0.25849089863E+02  0.00000000000E+00 0.  1.
         24    1    1    2    0    0  0.39225583753E+02  0.20136282346E+02  0.90061814091E+03  0.90527585187E+03  0.80419002446E+02 0. -1.
        -24    1    1    2    0    0 -0.39225583753E+02 -0.20136282346E+02  0.65885042207E+02  0.11292551097E+03  0.80419002446E+02 0.  1.
<mgrwt>
<rscale>  0 0.91713316E+02</rscale>
<asrwt>0</asrwt>
<pdfrwt beam="1">  1        2 0.15266955E+00 0.91713316E+02</pdfrwt>
<pdfrwt beam="2">  1       -2 0.39767838E-02 0.91713316E+02</pdfrwt>
<totfact> 0.69976718E+03</totfact>
</mgrwt>
</event>
<event>
 4    1  0.5124795E-001  0.8998689E+02  0.7546771E-02  0.1302883E+00
         -2   -1    0    0    0  501 -0.00000000000E+00  0.00000000000E+00  0.13981267106E+03  0.13981267106E+03  0.00000000000E+00 0.  1.
          2   -1    0    0  501    0  0.00000000000E+00 -0.00000000000E+00 -0.59736018007E+02  0.59736018007E+02  0.00000000000E+00 0. -1.
         24    1    1    2    0    0  0.38543856441E+02  0.12033087631E+02  0.22631255996E+02  0.92789082168E+02  0.80419002446E+02 0.  0.
        -24    1    1    2    0    0 -0.38543856441E+02 -0.12033087631E+02  0.57445397054E+02  0.10675960689E+03  0.80419002446E+02 0. -1.
<mgrwt>
<rscale>  0 0.89986888E+02</rscale>
<asrwt>0</asrwt>
<pdfrwt beam="1">  1        2 0.91901566E-02 0.89986888E+02</pdfrwt>
<pdfrwt beam="2">  1       -2 0.21509642E-01 0.89986888E+02</pdfrwt>
<totfact> 0.11853135E+04</totfact>
</mgrwt>
</event>
<event>
 4    1  0.5124795E-001  0.9124990E+02  0.7546771E-02  0.1299853E+00
          1   -1    0    0  501    0  0.00000000000E+00  0.00000000000E+00  0.75153934677E+03  0.75153934677E+03  0.00000000000E+00 0. -1.
         -1   -1    0    0    0  501 -0.00000000000E+00 -0.00000000000E+00 -0.20962649075E+02  0.20962649075E+02  0.00000000000E+00 0.  1.
         24    1    1    2    0    0 -0.42460843549E+02 -0.75103385984E+01  0.10007329208E+03  0.13542971669E+03  0.80419002446E+02 0.  1.
        -24    1    1    2    0    0  0.42460843549E+02  0.75103385984E+01  0.63050340562E+03  0.63707227915E+03  0.80419002446E+02 0.  1.
<mgrwt>
<rscale>  0 0.91249901E+02</rscale>
<asrwt>0</asrwt>
<pdfrwt beam="1">  1        1 0.11562142E+00 0.91249901E+02</pdfrwt>
<pdfrwt beam="2">  1       -1 0.32250235E-02 0.91249901E+02</pdfrwt>
<totfact> 0.80633964E+03</totfact>
</mgrwt>
</event>
<event>
 4    1  0.5124795E-001  0.8331452E+02  0.7546771E-02  0.1319900E+00
          1   -1    0    0  501    0  0.00000000000E+00  0.00000000000E+00  0.12319062151E+04  0.12319062151E+04  0.00000000000E+00 0. -1.
         -1   -1    0    0    0  501 -0.00000000000E+00 -0.00000000000E+00 -0.59971227317E+01  0.59971227317E+01  0.00000000000E+00 0.  1.
         24    1    1    2    0    0  0.16946033461E+02  0.13672078786E+02  0.46077806016E+03  0.46824964546E+03  0.80419002446E+02 0.  1.
        -24    1    1    2    0    0 -0.16946033461E+02 -0.13672078786E+02  0.76513103220E+03  0.76965369237E+03  0.80419002446E+02 0. -1.
<mgrwt>
<rscale>  0 0.83314523E+02</rscale>
<asrwt>0</asrwt>
<pdfrwt beam="1">  1        1 0.18952383E+00 0.83314523E+02</pdfrwt>
<pdfrwt beam="2">  1       -1 0.92263525E-03 0.83314523E+02</pdfrwt>
<totfact> 0.21157098E+04</totfact>
</mgrwt>
</event>
<event>
 4    1  0.5124795E-001  0.1036090E+03  0.7546771E-02  0.1272885E+00
          1   -1    0    0  501    0  0.00000000000E+00  0.00000000000E+00  0.15119098607E+03  0.15119098607E+03  0.00000000000E+00 0. -1.
         -1   -1    0    0    0  501 -0.00000000000E+00 -0.00000000000E+00 -0.71157796828E+02  0.71157796828E+02  0.00000000000E+00 0.  1.
         24    1    1    2    0    0  0.17666482759E+02 -0.62892881872E+02  0.34811558506E+02  0.10930086808E+03  0.80419002446E+02 0.  0.
        -24    1    1    2    0    0 -0.17666482759E+02  0.62892881872E+02  0.45221630731E+02  0.11304791481E+03  0.80419002446E+02 0. -1.
<mgrwt>
<rscale>  0 0.10360905E+03</rscale>
<asrwt>0</asrwt>
<pdfrwt beam="1">  1        1 0.23260152E-01 0.10360905E+03</pdfrwt>
<pdfrwt beam="2">  1       -1 0.10947353E-01 0.10360905E+03</pdfrwt>
<totfact> 0.10210686E+04</totfact>
</mgrwt>
</event>
<event>
 4    1  0.5124795E-001  0.8487646E+02  0.7546771E-02  0.1315756E+00
          2   -1    0    0  501    0  0.00000000000E+00  0.00000000000E+00  0.94116318169E+03  0.94116318169E+03  0.00000000000E+00 0. -1.
         -2   -1    0    0    0  501 -0.00000000000E+00 -0.00000000000E+00 -0.76851255545E+01  0.76851255545E+01  0.00000000000E+00 0.  1.
         24    1    1    2    0    0 -0.25635212523E+02 -0.89237837418E+01  0.49675015598E+03  0.50394913579E+03  0.80419002446E+02 0.  1.
        -24    1    1    2    0    0  0.25635212523E+02  0.89237837418E+01  0.43672790016E+03  0.44489917146E+03  0.80419002446E+02 0.  0.
<mgrwt>
<rscale>  0 0.84876463E+02</rscale>
<asrwt>0</asrwt>
<pdfrwt beam="1">  1        2 0.14479424E+00 0.84876463E+02</pdfrwt>
<pdfrwt beam="2">  1       -2 0.11823278E-02 0.84876463E+02</pdfrwt>
<totfact> 0.42778058E+04</totfact>
</mgrwt>
</event>
<event>
 4    1  0.5124795E-001  0.8980604E+02  0.7546771E-02  0.1303322E+00
          3   -1    0    0  501    0  0.00000000000E+00  0.00000000000E+00  0.95352889030E+02  0.95352889030E+02  0.00000000000E+00 0. -1.
         -3   -1    0    0    0  501 -0.00000000000E+00 -0.00000000000E+00 -0.86854577196E+02  0.86854577196E+02  0.00000000000E+00 0.  1.
         24    1    1    2    0    0 -0.14887566632E+02 -0.37098111139E+02 -0.10487935626E+02  0.90416382577E+02  0.80419002446E+02 0. -1.
        -24    1    1    2    0    0  0.14887566632E+02  0.37098111139E+02  0.18986247460E+02  0.91791083648E+02  0.80419002446E+02 0.  1.
<mgrwt>
<rscale>  0 0.89806043E+02</rscale>
<asrwt>0</asrwt>
<pdfrwt beam="1">  1        3 0.14669675E-01 0.89806043E+02</pdfrwt>
<pdfrwt beam="2">  1       -3 0.13362243E-01 0.89806043E+02</pdfrwt>
<totfact> 0.36595868E+03</totfact>
</mgrwt>
</event>
<event>
 4    1  0.5124795E-001  0.8358283E+02  0.7546771E-02  0.1319181E+00
         -2   -1    0    0    0  501 -0.00000000000E+00  0.00000000000E+00  0.69494233731E+01  0.69494233731E+01  0.00000000000E+00 0.  1.
          2   -1    0    0  501    0  0.00000000000E+00 -0.00000000000E+00 -0.17121218675E+04  0.17121218675E+04  0.00000000000E+00 0. -1.
         24    1    1    2    0    0  0.61303982163E+01  0.21938372305E+02 -0.14048656358E+04  0.14073498302E+04  0.80419002446E+02 0. -1.
        -24    1    1    2    0    0 -0.61303982163E+01 -0.21938372305E+02 -0.30030680834E+03  0.31172146068E+03  0.80419002446E+02 0.  1.
<mgrwt>
<rscale>  0 0.83582833E+02</rscale>
<asrwt>0</asrwt>
<pdfrwt beam="1">  1        2 0.26340355E+00 0.83582833E+02</pdfrwt>
<pdfrwt beam="2">  1       -2 0.10691413E-02 0.83582833E+02</pdfrwt>
<totfact> 0.19134131E+04</totfact>
</mgrwt>
</event>
<event>
 4    1  0.5124795E-001  0.8159653E+02  0.7546771E-02  0.1324581E+00
         -2   -1    0    0    0  501 -0.00000000000E+00  0.00000000000E+00  0.61678909762E+02  0.61678909762E+02  0.00000000000E+00 0.  1.
          2   -1    0    0  501    0  0.00000000000E+00 -0.00000000000E+00 -0.11062831359E+03  0.11062831359E+03  0.00000000000E+00 0. -1.
         24    1    1    2    0    0  0.92264396029E+01  0.10278514329E+02 -0.11059540668E+02  0.82342604032E+02  0.80419002446E+02 0.  1.
        -24    1    1    2    0    0 -0.92264396029E+01 -0.10278514329E+02 -0.37889863157E+02  0.89964619318E+02  0.80419002446E+02 0. -1.
<mgrwt>
<rscale>  0 0.81596524E+02</rscale>
<asrwt>0</asrwt>
<pdfrwt beam="1">  1        2 0.17019740E-01 0.81596534E+02</pdfrwt>
<pdfrwt beam="2">  1       -2 0.94890631E-02 0.81596534E+02</pdfrwt>
<totfact> 0.21177892E+04</totfact>
</mgrwt>
</event>
<event>
 4    1  0.5124795E-001  0.1029281E+03  0.7546771E-02  0.1274256E+00
         -2   -1    0    0    0  501 -0.00000000000E+00  0.00000000000E+00  0.14659412307E+02  0.14659412307E+02  0.00000000000E+00 0.  1.
          2   -1    0    0  501    0  0.00000000000E+00 -0.00000000000E+00 -0.98780415124E+03  0.98780415124E+03  0.00000000000E+00 0. -1.
         24    1    1    2    0    0 -0.12006667841E+02 -0.63109449219E+02 -0.22690258096E+03  0.24915649672E+03  0.80419002446E+02 0.  0.
        -24    1    1    2    0    0  0.12006667841E+02  0.63109449219E+02 -0.74624215797E+03  0.75330706683E+03  0.80419002446E+02 0. -1.
<mgrwt>
<rscale>  0 0.10292804E+03</rscale>
<asrwt>0</asrwt>
<pdfrwt beam="1">  1        2 0.15196993E+00 0.10292805E+03</pdfrwt>
<pdfrwt beam="2">  1       -2 0.22552932E-02 0.10292805E+03</pdfrwt>
<totfact> 0.16212445E+04</totfact>
</mgrwt>
</event>
<event>
 4    1  0.5124795E-001  0.8770535E+02  0.7546771E-02  0.1308506E+00
          2   -1    0    0  501    0  0.00000000000E+00  0.00000000000E+00  0.15968489325E+02  0.15968489325E+02  0.00000000000E+00 0. -1.
         -2   -1    0    0    0  501 -0.00000000000E+00 -0.00000000000E+00 -0.66688538222E+03  0.66688538222E+03  0.00000000000E+00 0.  1.
         24    1    1    2    0    0  0.33863258955E+02 -0.88483317740E+01 -0.14554639178E+03  0.16992934237E+03  0.80419002446E+02 0.  0.
        -24    1    1    2    0    0 -0.33863258955E+02  0.88483317740E+01 -0.50537050112E+03  0.51292452918E+03  0.80419002446E+02 0.  0.
<mgrwt>
<rscale>  0 0.87705355E+02</rscale>
<asrwt>0</asrwt>
<pdfrwt beam="1">  1        2 0.24566909E-02 0.87705355E+02</pdfrwt>
<pdfrwt beam="2">  1       -2 0.10259774E+00 0.87705355E+02</pdfrwt>
<totfact> 0.30493628E+03</totfact>
</mgrwt>
</event>
<event>
 4    1  0.5124795E-001  0.8129334E+02  0.7546771E-02  0.1325421E+00
         -1   -1    0    0    0  501 -0.00000000000E+00  0.00000000000E+00  0.76865329200E+02  0.76865329200E+02  0.00000000000E+00 0.  1.
          1   -1    0    0  501    0  0.00000000000E+00 -0.00000000000E+00 -0.51071650896E+03  0.51071650896E+03  0.00000000000E+00 0. -1.
         24    1    1    2    0    0 -0.10526947192E+02 -0.55294974216E+01  0.50997431713E+02  0.95965337256E+02  0.80419002446E+02 0.  0.
        -24    1    1    2    0    0  0.10526947192E+02  0.55294974216E+01 -0.48484861147E+03  0.49161650090E+03  0.80419002446E+02 0.  0.
<mgrwt>
<rscale>  0 0.81293345E+02</rscale>
<asrwt>0</asrwt>
<pdfrwt beam="1">  1        1 0.78571774E-01 0.81293345E+02</pdfrwt>
<pdfrwt beam="2">  1       -1 0.11825435E-01 0.81293345E+02</pdfrwt>
<totfact> 0.19870787E+03</totfact>
</mgrwt>
</event>
<event>
 4    1  0.5124795E-001  0.2286943E+03  0.7546771E-02  0.1127562E+00
          2   -1    0    0  501    0  0.00000000000E+00  0.00000000000E+00  0.28979852194E+03  0.28979852194E+03  0.00000000000E+00 0. -1.
         -2   -1    0    0    0  501 -0.00000000000E+00 -0.00000000000E+00 -0.70110772808E+03  0.70110772808E+03  0.00000000000E+00 0.  1.
         24    1    1    2    0    0  0.20538529522E+03  0.60421451527E+02  0.22129475090E+03  0.31823333268E+03  0.80419002446E+02 0. -1.
        -24    1    1    2    0    0 -0.20538529522E+03 -0.60421451527E+02 -0.63260395704E+03  0.67267291733E+03  0.80419002446E+02 0.  1.
<mgrwt>
<rscale>  0 0.22869431E+03</rscale>
<asrwt>0</asrwt>
<pdfrwt beam="1">  1        2 0.44584389E-01 0.22869431E+03</pdfrwt>
<pdfrwt beam="2">  1       -2 0.10786273E+00 0.22869431E+03</pdfrwt>
<totfact> 0.82606445E+01</totfact>
</mgrwt>
</event>
<event>
 4    1  0.5124795E-001  0.1071184E+03  0.7546771E-02  0.1266001E+00
         -2   -1    0    0    0  501 -0.00000000000E+00  0.00000000000E+00  0.17860170356E+02  0.17860170356E+02  0.00000000000E+00 0.  1.
          2   -1    0    0  501    0  0.00000000000E+00 -0.00000000000E+00 -0.87085115917E+03  0.87085115917E+03  0.00000000000E+00 0. -1.
         24    1    1    2    0    0  0.70224692948E+02  0.86960661623E+01 -0.65405958036E+03  0.66277317363E+03  0.80419002446E+02 0. -1.
        -24    1    1    2    0    0 -0.70224692948E+02 -0.86960661623E+01 -0.19893140845E+03  0.22593815589E+03  0.80419002446E+02 0.  1.
<mgrwt>
<rscale>  0 0.10711837E+03</rscale>
<asrwt>0</asrwt>
<pdfrwt beam="1">  1        2 0.13397708E+00 0.10711837E+03</pdfrwt>
<pdfrwt beam="2">  1       -2 0.27477189E-02 0.10711837E+03</pdfrwt>
<totfact> 0.14401752E+04</totfact>
</mgrwt>
</event>
<event>
 4    1  0.5124795E-001  0.9268022E+02  0.7546771E-02  0.1296488E+00
          1   -1    0    0  501    0  0.00000000000E+00  0.00000000000E+00  0.37059860208E+03  0.37059860208E+03  0.00000000000E+00 0. -1.
         -1   -1    0    0    0  501 -0.00000000000E+00 -0.00000000000E+00 -0.36499487593E+02  0.36499487593E+02  0.00000000000E+00 0.  1.
         24    1    1    2    0    0  0.43233397751E+02 -0.15914761714E+02  0.44077346998E+02  0.10262765122E+03  0.80419002446E+02 0.  1.
        -24    1    1    2    0    0 -0.43233397751E+02  0.15914761714E+02  0.29002176749E+03  0.30447043846E+03  0.80419002446E+02 0. -1.
<mgrwt>
<rscale>  0 0.92680215E+02</rscale>
<asrwt>0</asrwt>
<pdfrwt beam="1">  1        1 0.57015167E-01 0.92680215E+02</pdfrwt>
<pdfrwt beam="2">  1       -1 0.56153060E-02 0.92680215E+02</pdfrwt>
<totfact> 0.91069928E+03</totfact>
</mgrwt>
</event>
<event>
 4    1  0.5124795E-001  0.9324746E+02  0.7546771E-02  0.1295173E+00
         -2   -1    0    0    0  501 -0.00000000000E+00  0.00000000000E+00  0.14377371537E+02  0.14377371537E+02  0.00000000000E+00 0.  1.
          2   -1    0    0  501    0  0.00000000000E+00 -0.00000000000E+00 -0.10533523344E+04  0.10533523344E+04  0.00000000000E+00 0. -1.
         24    1    1    2    0    0 -0.47028365705E+02  0.40256122518E+01 -0.86787508758E+03  0.87287012569E+03  0.80419002446E+02 0. -1.
        -24    1    1    2    0    0  0.47028365705E+02 -0.40256122518E+01 -0.17109987526E+03  0.19485958022E+03  0.80419002446E+02 0.  1.
<mgrwt>
<rscale>  0 0.93247459E+02</rscale>
<asrwt>0</asrwt>
<pdfrwt beam="1">  1        2 0.16205423E+00 0.93247459E+02</pdfrwt>
<pdfrwt beam="2">  1       -2 0.22119030E-02 0.93247459E+02</pdfrwt>
<totfact> 0.15156711E+04</totfact>
</mgrwt>
</event>
<event>
 4    1  0.5124795E-001  0.8430670E+02  0.7546771E-02  0.1317256E+00
         -4   -1    0    0    0  501 -0.00000000000E+00  0.00000000000E+00  0.22063710546E+03  0.22063710546E+03  0.00000000000E+00 0.  1.
          4   -1    0    0  501    0  0.00000000000E+00 -0.00000000000E+00 -0.34109359060E+02  0.34109359060E+02  0.00000000000E+00 0. -1.
         24    1    1    2    0    0  0.23678423246E+02  0.89294543730E+01  0.63239131087E+02  0.10538883498E+03  0.80419002446E+02 0.  0.
        -24    1    1    2    0    0 -0.23678423246E+02 -0.89294543730E+01  0.12328861532E+03  0.14935762955E+03  0.80419002446E+02 0.  0.
<mgrwt>
<rscale>  0 0.84306695E+02</rscale>
<asrwt>0</asrwt>
<pdfrwt beam="1">  1        4 0.52475938E-02 0.84306695E+02</pdfrwt>
<pdfrwt beam="2">  1       -4 0.33944169E-01 0.84306695E+02</pdfrwt>
<totfact> 0.26904742E+03</totfact>
</mgrwt>
</event>
<event>
 4    1  0.5124795E-001  0.8058401E+02  0.7546771E-02  0.1327402E+00
         -2   -1    0    0    0  501 -0.00000000000E+00  0.00000000000E+00  0.46054283292E+02  0.46054283292E+02  0.00000000000E+00 0.  1.
          2   -1    0    0  501    0  0.00000000000E+00 -0.00000000000E+00 -0.14481911216E+03  0.14481911216E+03  0.00000000000E+00 0. -1.
         24    1    1    2    0    0 -0.45842012292E+01  0.23563918213E+01 -0.64874994165E+02  0.10345312129E+03  0.80419002446E+02 0. -1.
        -24    1    1    2    0    0  0.45842012292E+01 -0.23563918213E+01 -0.33889834706E+02  0.87420274159E+02  0.80419002446E+02 0.  1.
<mgrwt>
<rscale>  0 0.80584015E+02</rscale>
<asrwt>0</asrwt>
<pdfrwt beam="1">  1        2 0.22279863E-01 0.80584015E+02</pdfrwt>
<pdfrwt beam="2">  1       -2 0.70852745E-02 0.80584015E+02</pdfrwt>
<totfact> 0.24453777E+04</totfact>
</mgrwt>
</event>
<event>
 4    1  0.5124795E-001  0.1751521E+03  0.7546771E-02  0.1172579E+00
         -1   -1    0    0    0  501 -0.00000000000E+00  0.00000000000E+00  0.21698638310E+03  0.21698638310E+03  0.00000000000E+00 0.  1.
          1   -1    0    0  501    0  0.00000000000E+00 -0.00000000000E+00 -0.14599194393E+03  0.14599194393E+03  0.00000000000E+00 0. -1.
         24    1    1    2    0    0 -0.10989053825E+03 -0.11015950440E+03  0.67742804173E+02  0.18779603371E+03  0.80419002446E+02 0.  1.
        -24    1    1    2    0    0  0.10989053825E+03  0.11015950440E+03  0.32516350013E+01  0.17518229332E+03  0.80419002446E+02 0. -1.
<mgrwt>
<rscale>  0 0.17515211E+03</rscale>
<asrwt>0</asrwt>
<pdfrwt beam="1">  1        1 0.22460299E-01 0.17515211E+03</pdfrwt>
<pdfrwt beam="2">  1       -1 0.33382520E-01 0.17515211E+03</pdfrwt>
<totfact> 0.18384899E+03</totfact>
</mgrwt>
</event>
<event>
 4    1  0.5124795E-001  0.8668283E+02  0.7546771E-02  0.1311090E+00
          2   -1    0    0  501    0  0.00000000000E+00  0.00000000000E+00  0.54217924143E+03  0.54217924143E+03  0.00000000000E+00 0. -1.
         -2   -1    0    0    0  501 -0.00000000000E+00 -0.00000000000E+00 -0.28566941878E+02  0.28566941878E+02  0.00000000000E+00 0.  1.
         24    1    1    2    0    0  0.30151609799E+02 -0.11729353326E+02  0.46157370749E+03  0.46964263084E+03  0.80419002446E+02 0.  1.
        -24    1    1    2    0    0 -0.30151609799E+02  0.11729353326E+02  0.52038592058E+02  0.10110355246E+03  0.80419002446E+02 0.  1.
<mgrwt>
<rscale>  0 0.86682831E+02</rscale>
<asrwt>0</asrwt>
<pdfrwt beam="1">  1        2 0.83412183E-01 0.86682831E+02</pdfrwt>
<pdfrwt beam="2">  1       -2 0.43949145E-02 0.86682831E+02</pdfrwt>
<totfact> 0.12387713E+04</totfact>
</mgrwt>
</event>
<event>
 4    1  0.5124795E-001  0.1103844E+03  0.7546771E-02  0.1259860E+00
          2   -1    0    0  501    0  0.00000000000E+00  0.00000000000E+00  0.16573246393E+04  0.16573246393E+04  0.00000000000E+00 0. -1.
         -2   -1    0    0    0  501 -0.00000000000E+00 -0.00000000000E+00 -0.10255482578E+02  0.10255482578E+02  0.00000000000E+00 0.  1.
         24    1    1    2    0    0  0.34207247130E+02 -0.67434215254E+02  0.12671788930E+04  0.12719776225E+04  0.80419002446E+02 0. -1.
        -24    1    1    2    0    0 -0.34207247130E+02  0.67434215254E+02  0.37989026366E+03  0.39560249939E+03  0.80419002446E+02 0.  0.
<mgrwt>
<rscale>  0 0.11038444E+03</rscale>
<asrwt>0</asrwt>
<pdfrwt beam="1">  1        2 0.25497281E+00 0.11038444E+03</pdfrwt>
<pdfrwt beam="2">  1       -2 0.15777679E-02 0.11038444E+03</pdfrwt>
<totfact> 0.11903200E+04</totfact>
</mgrwt>
</event>
<event>
 4    1  0.5124795E-001  0.1104594E+03  0.7546771E-02  0.1259721E+00
         -2   -1    0    0    0  501 -0.00000000000E+00  0.00000000000E+00  0.22238284623E+02  0.22238284623E+02  0.00000000000E+00 0.  1.
          2   -1    0    0  501    0  0.00000000000E+00 -0.00000000000E+00 -0.74249501962E+03  0.74249501962E+03  0.00000000000E+00 0. -1.
         24    1    1    2    0    0 -0.27718487409E+00  0.75723138697E+02 -0.55549387165E+03  0.56636978023E+03  0.80419002446E+02 0. -1.
        -24    1    1    2    0    0  0.27718487409E+00 -0.75723138697E+02 -0.16476286335E+03  0.19836352401E+03  0.80419002446E+02 0.  1.
<mgrwt>
<rscale>  0 0.11045943E+03</rscale>
<asrwt>0</asrwt>
<pdfrwt beam="1">  1        2 0.11422998E+00 0.11045943E+03</pdfrwt>
<pdfrwt beam="2">  1       -2 0.34212752E-02 0.11045943E+03</pdfrwt>
<totfact> 0.12755382E+04</totfact>
</mgrwt>
</event>
<event>
 4    1  0.5124795E-001  0.1086929E+03  0.7546771E-02  0.1263010E+00
          1   -1    0    0  501    0  0.00000000000E+00  0.00000000000E+00  0.18401908761E+02  0.18401908761E+02  0.00000000000E+00 0. -1.
         -1   -1    0    0    0  501 -0.00000000000E+00 -0.00000000000E+00 -0.10507385124E+04  0.10507385124E+04  0.00000000000E+00 0.  1.
         24    1    1    2    0    0 -0.33786747992E+02  0.64849011076E+02 -0.84957665846E+03  0.85650140288E+03  0.80419002446E+02 0.  1.
        -24    1    1    2    0    0  0.33786747992E+02 -0.64849011076E+02 -0.18275994513E+03  0.21263901823E+03  0.80419002446E+02 0. -1.
<mgrwt>
<rscale>  0 0.10869294E+03</rscale>
<asrwt>0</asrwt>
<pdfrwt beam="1">  1        1 0.28310632E-02 0.10869294E+03</pdfrwt>
<pdfrwt beam="2">  1       -1 0.16165206E+00 0.10869294E+03</pdfrwt>
<totfact> 0.11113613E+03</totfact>
</mgrwt>
</event>
<event>
 4    1  0.5124795E-001  0.8589974E+02  0.7546771E-02  0.1313096E+00
          2   -1    0    0  501    0  0.00000000000E+00  0.00000000000E+00  0.31075846078E+03  0.31075846078E+03  0.00000000000E+00 0. -1.
         -2   -1    0    0    0  501 -0.00000000000E+00 -0.00000000000E+00 -0.27445552816E+02  0.27445552816E+02  0.00000000000E+00 0.  1.
         24    1    1    2    0    0  0.16950105896E+02 -0.24984857516E+02  0.20375519534E+03  0.22112201333E+03  0.80419002446E+02 0. -1.
        -24    1    1    2    0    0 -0.16950105896E+02  0.24984857516E+02  0.79557712622E+02  0.11708200027E+03  0.80419002446E+02 0.  1.
<mgrwt>
<rscale>  0 0.85899739E+02</rscale>
<asrwt>0</asrwt>
<pdfrwt beam="1">  1        2 0.47808991E-01 0.85899739E+02</pdfrwt>
<pdfrwt beam="2">  1       -2 0.42223930E-02 0.85899739E+02</pdfrwt>
<totfact> 0.23661954E+04</totfact>
</mgrwt>
</event>
<event>
 4    1  0.5124795E-001  0.8800611E+02  0.7546771E-02  0.1307753E+00
          3   -1    0    0  501    0  0.00000000000E+00  0.00000000000E+00  0.21161993144E+03  0.21161993144E+03  0.00000000000E+00 0. -1.
         -3   -1    0    0    0  501 -0.00000000000E+00 -0.00000000000E+00 -0.15597230202E+03  0.15597230202E+03  0.00000000000E+00 0.  1.
         24    1    1    2    0    0  0.28291953833E+02  0.21850066384E+02 -0.13296884162E+03  0.15945466079E+03  0.80419002446E+02 0.  1.
        -24    1    1    2    0    0 -0.28291953833E+02 -0.21850066384E+02  0.18861647104E+03  0.20813757267E+03  0.80419002446E+02 0. -1.
<mgrwt>
<rscale>  0 0.88006113E+02</rscale>
<asrwt>0</asrwt>
<pdfrwt beam="1">  1        3 0.32556913E-01 0.88006113E+02</pdfrwt>
<pdfrwt beam="2">  1       -3 0.23995739E-01 0.88006113E+02</pdfrwt>
<totfact> 0.32551039E+02</totfact>
</mgrwt>
</event>
<event>
 4    1  0.5124795E-001  0.8200160E+02  0.7546771E-02  0.1323465E+00
         -2   -1    0    0    0  501 -0.00000000000E+00  0.00000000000E+00  0.33691710946E+01  0.33691710946E+01  0.00000000000E+00 0.  1.
          2   -1    0    0  501    0  0.00000000000E+00 -0.00000000000E+00 -0.30583159756E+04  0.30583159756E+04  0.00000000000E+00 0. -1.
         24    1    1    2    0    0  0.12750500644E+02 -0.97196532170E+01 -0.24297771677E+04  0.24311604940E+04  0.80419002446E+02 0.  0.
        -24    1    1    2    0    0 -0.12750500644E+02  0.97196532170E+01 -0.62516963677E+03  0.63052465267E+03  0.80419002446E+02 0.  1.
<mgrwt>
<rscale>  0 0.82001603E+02</rscale>
<asrwt>0</asrwt>
<pdfrwt beam="1">  1        2 0.47051070E+00 0.82001603E+02</pdfrwt>
<pdfrwt beam="2">  1       -2 0.51833340E-03 0.82001603E+02</pdfrwt>
<totfact> 0.10469353E+04</totfact>
</mgrwt>
</event>
<event>
 4    1  0.5124795E-001  0.9607840E+02  0.7546771E-02  0.1288766E+00
         -1   -1    0    0    0  501 -0.00000000000E+00  0.00000000000E+00  0.48317267872E+02  0.48317267872E+02  0.00000000000E+00 0.  1.
          1   -1    0    0  501    0  0.00000000000E+00 -0.00000000000E+00 -0.66707543686E+03  0.66707543686E+03  0.00000000000E+00 0. -1.
         24    1    1    2    0    0  0.36453010966E+02 -0.37881674015E+02 -0.72158014389E+01  0.96348985357E+02  0.80419002446E+02 0. -1.
        -24    1    1    2    0    0 -0.36453010966E+02  0.37881674015E+02 -0.61154236755E+03  0.61904371937E+03  0.80419002446E+02 0. -1.
<mgrwt>
<rscale>  0 0.96078401E+02</rscale>
<asrwt>0</asrwt>
<pdfrwt beam="1">  1        1 0.10262699E+00 0.96078401E+02</pdfrwt>
<pdfrwt beam="2">  1       -1 0.74334261E-02 0.96078401E+02</pdfrwt>
<totfact> 0.28175468E+03</totfact>
</mgrwt>
</event>
<event>
 4    1  0.5124795E-001  0.9013999E+02  0.7546771E-02  0.1302513E+00
         -1   -1    0    0    0  501 -0.00000000000E+00  0.00000000000E+00  0.32658895000E+02  0.32658895000E+02  0.00000000000E+00 0.  1.
          1   -1    0    0  501    0  0.00000000000E+00 -0.00000000000E+00 -0.42145346897E+03  0.42145346897E+03  0.00000000000E+00 0. -1.
         24    1    1    2    0    0  0.18338351505E+02 -0.36355224975E+02 -0.33972835876E+03  0.35148338683E+03  0.80419002446E+02 0. -1.
        -24    1    1    2    0    0 -0.18338351505E+02  0.36355224975E+02 -0.49066215209E+02  0.10262897714E+03  0.80419002446E+02 0.  0.
<mgrwt>
<rscale>  0 0.90139977E+02</rscale>
<asrwt>0</asrwt>
<pdfrwt beam="1">  1        1 0.64838990E-01 0.90139989E+02</pdfrwt>
<pdfrwt beam="2">  1       -1 0.50244458E-02 0.90139989E+02</pdfrwt>
<totfact> 0.91175375E+03</totfact>
</mgrwt>
</event>
<event>
 4    1  0.5124795E-001  0.9432447E+02  0.7546771E-02  0.1292705E+00
          1   -1    0    0  501    0  0.00000000000E+00  0.00000000000E+00  0.66006795035E+03  0.66006795035E+03  0.00000000000E+00 0. -1.
         -1   -1    0    0    0  501 -0.00000000000E+00 -0.00000000000E+00 -0.14433394063E+02  0.14433394063E+02  0.00000000000E+00 0.  1.
         24    1    1    2    0    0 -0.49289673580E+02 -0.64682740107E+00  0.23609811169E+03  0.25424284573E+03  0.80419002446E+02 0.  1.
        -24    1    1    2    0    0  0.49289673580E+02  0.64682740107E+00  0.40953644460E+03  0.42025849869E+03  0.80419002446E+02 0.  0.
<mgrwt>
<rscale>  0 0.94324473E+02</rscale>
<asrwt>0</asrwt>
<pdfrwt beam="1">  1        1 0.10154889E+00 0.94324473E+02</pdfrwt>
<pdfrwt beam="2">  1       -1 0.22205227E-02 0.94324473E+02</pdfrwt>
<totfact> 0.16600556E+04</totfact>
</mgrwt>
</event>
<event>
 4    1  0.5124795E-001  0.8439529E+02  0.7546771E-02  0.1317022E+00
          2   -1    0    0  501    0  0.00000000000E+00  0.00000000000E+00  0.51200439123E+03  0.51200439123E+03  0.00000000000E+00 0. -1.
         -2   -1    0    0    0  501 -0.00000000000E+00 -0.00000000000E+00 -0.14187358589E+02  0.14187358589E+02  0.00000000000E+00 0.  1.
         24    1    1    2    0    0 -0.24688012995E+02  0.67713977193E+01  0.28561883732E+03  0.29782660391E+03  0.80419002446E+02 0. -1.
        -24    1    1    2    0    0  0.24688012995E+02 -0.67713977193E+01  0.21219819533E+03  0.22836514591E+03  0.80419002446E+02 0.  1.
<mgrwt>
<rscale>  0 0.84395295E+02</rscale>
<asrwt>0</asrwt>
<pdfrwt beam="1">  1        2 0.78769892E-01 0.84395295E+02</pdfrwt>
<pdfrwt beam="2">  1       -2 0.21826709E-02 0.84395295E+02</pdfrwt>
<totfact> 0.36374062E+04</totfact>
</mgrwt>
</event>
<event>
 4    1  0.5124795E-001  0.8058124E+02  0.7546771E-02  0.1327410E+00
         -2   -1    0    0    0  501 -0.00000000000E+00  0.00000000000E+00  0.31670505590E+02  0.31670505590E+02  0.00000000000E+00 0.  1.
          2   -1    0    0  501    0  0.00000000000E+00 -0.00000000000E+00 -0.21553487115E+03  0.21553487115E+03  0.00000000000E+00 0. -1.
         24    1    1    2    0    0 -0.23347331991E+01 -0.45459495346E+01 -0.64641716438E+02  0.10330481158E+03  0.80419002446E+02 0.  1.
        -24    1    1    2    0    0  0.23347331991E+01  0.45459495346E+01 -0.11922264912E+03  0.14390056516E+03  0.80419002446E+02 0. -1.
<mgrwt>
<rscale>  0 0.80581227E+02</rscale>
<asrwt>0</asrwt>
<pdfrwt beam="1">  1        2 0.33159212E-01 0.80581238E+02</pdfrwt>
<pdfrwt beam="2">  1       -2 0.48723853E-02 0.80581238E+02</pdfrwt>
<totfact> 0.27891004E+04</totfact>
</mgrwt>
</event>
<event>
 4    1  0.5124795E-001  0.1014651E+03  0.7546771E-02  0.1277245E+00
         -1   -1    0    0    0  501 -0.00000000000E+00  0.00000000000E+00  0.26364999388E+02  0.26364999388E+02  0.00000000000E+00 0.  1.
          1   -1    0    0  501    0  0.00000000000E+00 -0.00000000000E+00 -0.39138250755E+03  0.39138250755E+03  0.00000000000E+00 0. -1.
         24    1    1    2    0    0 -0.47623483962E+02 -0.39496272592E+02 -0.19250456638E+03  0.21760784868E+03  0.80419002446E+02 0.  0.
        -24    1    1    2    0    0  0.47623483962E+02  0.39496272592E+02 -0.17251294178E+03  0.20013965826E+03  0.80419002446E+02 0. -1.
<mgrwt>
<rscale>  0 0.10146512E+03</rscale>
<asrwt>0</asrwt>
<pdfrwt beam="1">  1        1 0.60212699E-01 0.10146513E+03</pdfrwt>
<pdfrwt beam="2">  1       -1 0.40561534E-02 0.10146513E+03</pdfrwt>
<totfact> 0.13807451E+04</totfact>
</mgrwt>
</event>
<event>
 4    1  0.5124795E-001  0.9236175E+02  0.7546771E-02  0.1297231E+00
          1   -1    0    0  501    0  0.00000000000E+00  0.00000000000E+00  0.14607192918E+04  0.14607192918E+04  0.00000000000E+00 0. -1.
         -1   -1    0    0    0  501 -0.00000000000E+00 -0.00000000000E+00 -0.60309433785E+01  0.60309433785E+01  0.00000000000E+00 0.  1.
         24    1    1    2    0    0  0.40325911297E+02  0.20911665456E+02  0.59687314731E+03  0.60397702507E+03  0.80419002446E+02 0.  1.
        -24    1    1    2    0    0 -0.40325911297E+02 -0.20911665456E+02  0.85781520107E+03  0.86277321007E+03  0.80419002446E+02 0.  0.
<mgrwt>
<rscale>  0 0.92361750E+02</rscale>
<asrwt>0</asrwt>
<pdfrwt beam="1">  1        1 0.22472576E+00 0.92361750E+02</pdfrwt>
<pdfrwt beam="2">  1       -1 0.92783861E-03 0.92361750E+02</pdfrwt>
<totfact> 0.15009580E+04</totfact>
</mgrwt>
</event>
<event>
 4    1  0.5124795E-001  0.1352093E+03  0.7546771E-02  0.1219925E+00
          2   -1    0    0  501    0  0.00000000000E+00  0.00000000000E+00  0.13498178159E+03  0.13498178159E+03  0.00000000000E+00 0. -1.
         -2   -1    0    0    0  501 -0.00000000000E+00 -0.00000000000E+00 -0.64033182131E+03  0.64033182131E+03  0.00000000000E+00 0.  1.
         24    1    1    2    0    0  0.72409002241E+02 -0.81063326885E+02  0.91552252983E+02  0.16328918382E+03  0.80419002446E+02 0. -1.
        -24    1    1    2    0    0 -0.72409002241E+02  0.81063326885E+02 -0.59690229270E+03  0.61202441908E+03  0.80419002446E+02 0.  1.
<mgrwt>
<rscale>  0 0.13520925E+03</rscale>
<asrwt>0</asrwt>
<pdfrwt beam="1">  1        2 0.20766428E-01 0.13520925E+03</pdfrwt>
<pdfrwt beam="2">  1       -2 0.98512589E-01 0.13520925E+03</pdfrwt>
<totfact> 0.23711494E+02</totfact>
</mgrwt>
</event>
<event>
 4    1  0.5124795E-001  0.9410159E+02  0.7546771E-02  0.1293212E+00
          3   -1    0    0  501    0  0.00000000000E+00  0.00000000000E+00  0.41656201573E+03  0.41656201573E+03  0.00000000000E+00 0. -1.
         -3   -1    0    0    0  501 -0.00000000000E+00 -0.00000000000E+00 -0.64259582527E+02  0.64259582527E+02  0.00000000000E+00 0.  1.
         24    1    1    2    0    0 -0.46426567469E+02  0.15246859851E+02 -0.20514771987E+02  0.96311809900E+02  0.80419002446E+02 0.  1.
        -24    1    1    2    0    0  0.46426567469E+02 -0.15246859851E+02  0.37281720519E+03  0.38450978836E+03  0.80419002446E+02 0. -1.
<mgrwt>
<rscale>  0 0.94101588E+02</rscale>
<asrwt>0</asrwt>
<pdfrwt beam="1">  1        3 0.64086462E-01 0.94101588E+02</pdfrwt>
<pdfrwt beam="2">  1       -3 0.98860899E-02 0.94101588E+02</pdfrwt>
<totfact> 0.39696605E+02</totfact>
</mgrwt>
</event>
<event>
 4    1  0.5124795E-001  0.8152711E+02  0.7546771E-02  0.1324773E+00
         -2   -1    0    0    0  501 -0.00000000000E+00  0.00000000000E+00  0.26069726325E+02  0.26069726325E+02  0.00000000000E+00 0.  1.
          2   -1    0    0  501    0  0.00000000000E+00 -0.00000000000E+00 -0.23986848045E+04  0.23986848045E+04  0.00000000000E+00 0. -1.
         24    1    1    2    0    0  0.52417052796E+01  0.12327976001E+02 -0.23324430506E+04  0.23338674458E+04  0.80419002446E+02 0. -1.
        -24    1    1    2    0    0 -0.52417052796E+01 -0.12327976001E+02 -0.40172027591E+02  0.90887085010E+02  0.80419002446E+02 0.  1.
<mgrwt>
<rscale>  0 0.81527115E+02</rscale>
<asrwt>0</asrwt>
<pdfrwt beam="1">  1        2 0.36902850E+00 0.81527115E+02</pdfrwt>
<pdfrwt beam="2">  1       -2 0.40107264E-02 0.81527115E+02</pdfrwt>
<totfact> 0.12920761E+03</totfact>
</mgrwt>
</event>
<event>
 4    1  0.5124795E-001  0.9192903E+02  0.7546771E-02  0.1298246E+00
         -1   -1    0    0    0  501 -0.00000000000E+00  0.00000000000E+00  0.89585747210E+01  0.89585747210E+01  0.00000000000E+00 0.  1.
          1   -1    0    0  501    0  0.00000000000E+00 -0.00000000000E+00 -0.95456240980E+03  0.95456240980E+03  0.00000000000E+00 0. -1.
         24    1    1    2    0    0 -0.44462290230E+02  0.26145630734E+01 -0.42055663526E+03  0.43048673685E+03  0.80419002446E+02 0.  1.
        -24    1    1    2    0    0  0.44462290230E+02 -0.26145630734E+01 -0.52504719982E+03  0.53303424766E+03  0.80419002446E+02 0. -1.
<mgrwt>
<rscale>  0 0.91929033E+02</rscale>
<asrwt>0</asrwt>
<pdfrwt beam="1">  1        1 0.14685570E+00 0.91929033E+02</pdfrwt>
<pdfrwt beam="2">  1       -1 0.13782427E-02 0.91929033E+02</pdfrwt>
<totfact> 0.18886682E+04</totfact>
</mgrwt>
</event>
<event>
 4    1  0.5124795E-001  0.8900622E+02  0.7546771E-02  0.1305276E+00
          2   -1    0    0  501    0  0.00000000000E+00  0.00000000000E+00  0.48785013141E+03  0.48785013141E+03  0.00000000000E+00 0. -1.
         -2   -1    0    0    0  501 -0.00000000000E+00 -0.00000000000E+00 -0.68934327476E+02  0.68934327476E+02  0.00000000000E+00 0.  1.
         24    1    1    2    0    0  0.23349680005E+02 -0.30160963532E+02  0.45286103298E+03  0.46152488820E+03  0.80419002446E+02 0. -1.
        -24    1    1    2    0    0 -0.23349680005E+02  0.30160963532E+02 -0.33945229051E+02  0.95259570686E+02  0.80419002446E+02 0.  1.
<mgrwt>
<rscale>  0 0.89006220E+02</rscale>
<asrwt>0</asrwt>
<pdfrwt beam="1">  1        2 0.75053864E-01 0.89006220E+02</pdfrwt>
<pdfrwt beam="2">  1       -2 0.10605281E-01 0.89006220E+02</pdfrwt>
<totfact> 0.36695639E+03</totfact>
</mgrwt>
</event>
<event>
 4    1  0.5124795E-001  0.9266354E+02  0.7546771E-02  0.1296527E+00
          2   -1    0    0  501    0  0.00000000000E+00  0.00000000000E+00  0.16805179077E+03  0.16805179077E+03  0.00000000000E+00 0. -1.
         -2   -1    0    0    0  501 -0.00000000000E+00 -0.00000000000E+00 -0.60276109302E+02  0.60276109302E+02  0.00000000000E+00 0.  1.
         24    1    1    2    0    0 -0.22113150557E+02  0.40377266557E+02  0.98444697378E+02  0.13519574505E+03  0.80419002446E+02 0. -1.
        -24    1    1    2    0    0  0.22113150557E+02 -0.40377266557E+02  0.93309840949E+01  0.93132155031E+02  0.80419002446E+02 0.  1.
<mgrwt>
<rscale>  0 0.92663537E+02</rscale>
<asrwt>0</asrwt>
<pdfrwt beam="1">  1        2 0.25854121E-01 0.92663537E+02</pdfrwt>
<pdfrwt beam="2">  1       -2 0.92732476E-02 0.92663537E+02</pdfrwt>
<totfact> 0.13991506E+04</totfact>
</mgrwt>
</event>
<event>
 4    1  0.5124795E-001  0.9373033E+02  0.7546771E-02  0.1294062E+00
         -2   -1    0    0    0  501 -0.00000000000E+00  0.00000000000E+00  0.22855825893E+02  0.22855825893E+02  0.00000000000E+00 0.  1.
          2   -1    0    0  501    0  0.00000000000E+00 -0.00000000000E+00 -0.10868687498E+04  0.10868687498E+04  0.00000000000E+00 0. -1.
         24    1    1    2    0    0  0.47582384370E+02 -0.73536676306E+01 -0.97808941061E+03  0.98257023710E+03  0.80419002446E+02 0. -1.
        -24    1    1    2    0    0 -0.47582384370E+02  0.73536676306E+01 -0.85923513277E+02  0.12715433857E+03  0.80419002446E+02 0.  1.
<mgrwt>
<rscale>  0 0.93730335E+02</rscale>
<asrwt>0</asrwt>
<pdfrwt beam="1">  1        2 0.16721059E+00 0.93730335E+02</pdfrwt>
<pdfrwt beam="2">  1       -2 0.35162806E-02 0.93730335E+02</pdfrwt>
<totfact> 0.74025146E+03</totfact>
</mgrwt>
</event>
<event>
 4    1  0.5124795E-001  0.8271267E+02  0.7546771E-02  0.1321525E+00
         -2   -1    0    0    0  501 -0.00000000000E+00  0.00000000000E+00  0.55980035310E+02  0.55980035310E+02  0.00000000000E+00 0.  1.
          2   -1    0    0  501    0  0.00000000000E+00 -0.00000000000E+00 -0.12613253220E+03  0.12613253220E+03  0.00000000000E+00 0. -1.
         24    1    1    2    0    0 -0.13898390647E+02  0.13453795741E+02 -0.51131407809E+02  0.97240972339E+02  0.80419002446E+02 0.  0.
        -24    1    1    2    0    0  0.13898390647E+02 -0.13453795741E+02 -0.19021089078E+02  0.84871595169E+02  0.80419002446E+02 0.  0.
<mgrwt>
<rscale>  0 0.82712670E+02</rscale>
<asrwt>0</asrwt>
<pdfrwt beam="1">  1        2 0.19405005E-01 0.82712670E+02</pdfrwt>
<pdfrwt beam="2">  1       -2 0.86123132E-02 0.82712670E+02</pdfrwt>
<totfact> 0.21241587E+04</totfact>
</mgrwt>
</event>
<event>
 4    1  0.5124795E-001  0.8058793E+02  0.7546771E-02  0.1327391E+00
          1   -1    0    0  501    0  0.00000000000E+00  0.00000000000E+00  0.11147786522E+03  0.11147786522E+03  0.00000000000E+00 0. -1.
         -1   -1    0    0    0  501 -0.00000000000E+00 -0.00000000000E+00 -0.79833189360E+02  0.79833189360E+02  0.00000000000E+00 0.  1.
         24    1    1    2    0    0 -0.60551034256E+00 -0.51799377546E+01 -0.33905701464E+02  0.87430034565E+02  0.80419002446E+02 0.  1.
        -24    1    1    2    0    0  0.60551034256E+00  0.51799377546E+01  0.65550377324E+02  0.10388102002E+03  0.80419002446E+02 0.  0.
<mgrwt>
<rscale>  0 0.80587929E+02</rscale>
<asrwt>0</asrwt>
<pdfrwt beam="1">  1        1 0.17150441E-01 0.80587929E+02</pdfrwt>
<pdfrwt beam="2">  1       -1 0.12282029E-01 0.80587929E+02</pdfrwt>
<totfact> 0.12266718E+04</totfact>
</mgrwt>
</event>
<event>
 4    1  0.5124795E-001  0.8213720E+02  0.7546771E-02  0.1323093E+00
         -2   -1    0    0    0  501 -0.00000000000E+00  0.00000000000E+00  0.10539526572E+02  0.10539526572E+02  0.00000000000E+00 0.  1.
          2   -1    0    0  501    0  0.00000000000E+00 -0.00000000000E+00 -0.10757933321E+04  0.10757933321E+04  0.00000000000E+00 0. -1.
         24    1    1    2    0    0  0.16546261344E+02  0.23506278177E+01 -0.87828835579E+03  0.88212071514E+03  0.80419002446E+02 0.  0.
        -24    1    1    2    0    0 -0.16546261344E+02 -0.23506278177E+01 -0.18696544978E+03  0.20421214357E+03  0.80419002446E+02 0.  0.
<mgrwt>
<rscale>  0 0.82137203E+02</rscale>
<asrwt>0</asrwt>
<pdfrwt beam="1">  1        2 0.16550663E+00 0.82137203E+02</pdfrwt>
<pdfrwt beam="2">  1       -2 0.16214660E-02 0.82137203E+02</pdfrwt>
<totfact> 0.22726926E+04</totfact>
</mgrwt>
</event>
<event>
 4    1  0.5124795E-001  0.1101360E+03  0.7546771E-02  0.1260318E+00
         -4   -1    0    0    0  501 -0.00000000000E+00  0.00000000000E+00  0.15775790850E+03  0.15775790850E+03  0.00000000000E+00 0.  1.
          4   -1    0    0  501    0  0.00000000000E+00 -0.00000000000E+00 -0.14778552149E+03  0.14778552149E+03  0.00000000000E+00 0. -1.
         24    1    1    2    0    0 -0.10539109034E+02  0.74509346925E+02 -0.10082651905E+03  0.14931817872E+03  0.80419002446E+02 0. -1.
        -24    1    1    2    0    0  0.10539109034E+02 -0.74509346925E+02  0.11079890606E+03  0.15622525127E+03  0.80419002446E+02 0.  1.
<mgrwt>
<rscale>  0 0.11013597E+03</rscale>
<asrwt>0</asrwt>
<pdfrwt beam="1">  1        4 0.22736234E-01 0.11013597E+03</pdfrwt>
<pdfrwt beam="2">  1       -4 0.24270447E-01 0.11013597E+03</pdfrwt>
<totfact> 0.44970762E+02</totfact>
</mgrwt>
</event>
<event>
 4    1  0.5124795E-001  0.8124694E+02  0.7546771E-02  0.1325550E+00
          1   -1    0    0  501    0  0.00000000000E+00  0.00000000000E+00  0.40841208192E+03  0.40841208192E+03  0.00000000000E+00 0. -1.
         -1   -1    0    0    0  501 -0.00000000000E+00 -0.00000000000E+00 -0.16169026265E+02  0.16169026265E+02  0.00000000000E+00 0.  1.
         24    1    1    2    0    0  0.67127713375E+01 -0.94225319109E+01  0.20030488955E+03  0.21615529172E+03  0.80419002446E+02 0.  1.
        -24    1    1    2    0    0 -0.67127713375E+01  0.94225319109E+01  0.19193816610E+03  0.20842581646E+03  0.80419002446E+02 0. -1.
<mgrwt>
<rscale>  0 0.81246926E+02</rscale>
<asrwt>0</asrwt>
<pdfrwt beam="1">  1        1 0.62832620E-01 0.81246936E+02</pdfrwt>
<pdfrwt beam="2">  1       -1 0.24875428E-02 0.81246936E+02</pdfrwt>
<totfact> 0.25917231E+04</totfact>
</mgrwt>
</event>
<event>
 4    1  0.5124795E-001  0.1050045E+03  0.7546771E-02  0.1270111E+00
         -2   -1    0    0    0  501 -0.00000000000E+00  0.00000000000E+00  0.89136898193E+01  0.89136898193E+01  0.00000000000E+00 0.  1.
          2   -1    0    0  501    0  0.00000000000E+00 -0.00000000000E+00 -0.12406116445E+04  0.12406116445E+04  0.00000000000E+00 0. -1.
         24    1    1    2    0    0  0.33726939175E+02 -0.58491131530E+02 -0.58198326639E+03  0.59138012919E+03  0.80419002446E+02 0.  0.
        -24    1    1    2    0    0 -0.33726939175E+02  0.58491131530E+02 -0.64971468830E+03  0.65814520514E+03  0.80419002446E+02 0.  0.
<mgrwt>
<rscale>  0 0.10500446E+03</rscale>
<asrwt>0</asrwt>
<pdfrwt beam="1">  1        2 0.19086335E+00 0.10500448E+03</pdfrwt>
<pdfrwt beam="2">  1       -2 0.13713368E-02 0.10500448E+03</pdfrwt>
<totfact> 0.23906275E+04</totfact>
</mgrwt>
</event>
<event>
 4    1  0.5124795E-001  0.9223645E+02  0.7546771E-02  0.1297524E+00
          1   -1    0    0  501    0  0.00000000000E+00  0.00000000000E+00  0.47260223321E+02  0.47260223321E+02  0.00000000000E+00 0. -1.
         -1   -1    0    0    0  501 -0.00000000000E+00 -0.00000000000E+00 -0.18033354204E+03  0.18033354204E+03  0.00000000000E+00 0.  1.
         24    1    1    2    0    0 -0.45170084144E+02  0.10167303586E+00 -0.71317209681E+02  0.11659205457E+03  0.80419002446E+02 0.  1.
        -24    1    1    2    0    0  0.45170084144E+02 -0.10167303586E+00 -0.61756109034E+02  0.11100171078E+03  0.80419002446E+02 0. -1.
<mgrwt>
<rscale>  0 0.92236450E+02</rscale>
<asrwt>0</asrwt>
<pdfrwt beam="1">  1        1 0.72708037E-02 0.92236450E+02</pdfrwt>
<pdfrwt beam="2">  1       -1 0.27743622E-01 0.92236450E+02</pdfrwt>
<totfact> 0.10478459E+04</totfact>
</mgrwt>
</event>
<event>
 4    1  0.5124795E-001  0.8613011E+02  0.7546771E-02  0.1312503E+00
          1   -1    0    0  501    0  0.00000000000E+00  0.00000000000E+00  0.38073879048E+03  0.38073879048E+03  0.00000000000E+00 0. -1.
         -1   -1    0    0    0  501 -0.00000000000E+00 -0.00000000000E+00 -0.42949876433E+02  0.42949876433E+02  0.00000000000E+00 0.  1.
         24    1    1    2    0    0  0.30793281977E+02  0.17186978259E+01  0.12308683769E+02  0.87005171040E+02  0.80419002446E+02 0.  1.
        -24    1    1    2    0    0 -0.30793281977E+02 -0.17186978259E+01  0.32548023027E+03  0.33668349587E+03  0.80419002446E+02 0. -1.
<mgrwt>
<rscale>  0 0.86130111E+02</rscale>
<asrwt>0</asrwt>
<pdfrwt beam="1">  1        1 0.58575196E-01 0.86130111E+02</pdfrwt>
<pdfrwt beam="2">  1       -1 0.66076736E-02 0.86130111E+02</pdfrwt>
<totfact> 0.68899865E+03</totfact>
</mgrwt>
</event>
<event>
 4    1  0.5124795E-001  0.9283558E+02  0.7546771E-02  0.1296127E+00
         -2   -1    0    0    0  501 -0.00000000000E+00  0.00000000000E+00  0.87245346699E+03  0.87245346699E+03  0.00000000000E+00 0.  1.
          2   -1    0    0  501    0  0.00000000000E+00 -0.00000000000E+00 -0.10049701542E+02  0.10049701542E+02  0.00000000000E+00 0. -1.
         24    1    1    2    0    0  0.43738744598E+01 -0.46174600936E+02  0.48881161920E+03  0.49754923331E+03  0.80419002446E+02 0.  1.
        -24    1    1    2    0    0 -0.43738744598E+01  0.46174600936E+02  0.37359214624E+03  0.38495393522E+03  0.80419002446E+02 0. -1.
<mgrwt>
<rscale>  0 0.92835568E+02</rscale>
<asrwt>0</asrwt>
<pdfrwt beam="1">  1        2 0.15461086E-02 0.92835579E+02</pdfrwt>
<pdfrwt beam="2">  1       -2 0.13422355E+00 0.92835579E+02</pdfrwt>
<totfact> 0.30276159E+03</totfact>
</mgrwt>
</event>
<event>
 4    1  0.5124795E-001  0.1292383E+03  0.7546771E-02  0.1228590E+00
          1   -1    0    0  501    0  0.00000000000E+00  0.00000000000E+00  0.58749877592E+02  0.58749877592E+02  0.00000000000E+00 0. -1.
         -1   -1    0    0    0  501 -0.00000000000E+00 -0.00000000000E+00 -0.39485549759E+03  0.39485549759E+03  0.00000000000E+00 0.  1.
         24    1    1    2    0    0  0.86372688914E+02 -0.52679058479E+02 -0.28806377665E+03  0.31572659052E+03  0.80419002446E+02 0.  1.
        -24    1    1    2    0    0 -0.86372688914E+02  0.52679058479E+02 -0.48041843352E+02  0.13787878466E+03  0.80419002446E+02 0. -1.
<mgrwt>
<rscale>  0 0.12923831E+03</rscale>
<asrwt>0</asrwt>
<pdfrwt beam="1">  1        1 0.90384431E-02 0.12923831E+03</pdfrwt>
<pdfrwt beam="2">  1       -1 0.60746997E-01 0.12923831E+03</pdfrwt>
<totfact> 0.20251199E+03</totfact>
</mgrwt>
</event>
<event>
 4    1  0.5124795E-001  0.8273493E+02  0.7546771E-02  0.1321464E+00
         -2   -1    0    0    0  501 -0.00000000000E+00  0.00000000000E+00  0.45854212745E+01  0.45854212745E+01  0.00000000000E+00 0.  1.
          2   -1    0    0  501    0  0.00000000000E+00 -0.00000000000E+00 -0.25837527208E+04  0.25837527208E+04  0.00000000000E+00 0. -1.
         24    1    1    2    0    0 -0.16588033133E+02 -0.10133627250E+02 -0.21305344295E+04  0.21321402450E+04  0.80419002446E+02 0.  0.
        -24    1    1    2    0    0  0.16588033133E+02  0.10133627250E+02 -0.44863287002E+03  0.45619789704E+03  0.80419002446E+02 0.  1.
<mgrwt>
<rscale>  0 0.82734933E+02</rscale>
<asrwt>0</asrwt>
<pdfrwt beam="1">  1        2 0.39750052E+00 0.82734933E+02</pdfrwt>
<pdfrwt beam="2">  1       -2 0.70544925E-03 0.82734933E+02</pdfrwt>
<totfact> 0.12395803E+04</totfact>
</mgrwt>
</event>
<event>
 4    1  0.5124795E-001  0.8558450E+02  0.7546771E-02  0.1313911E+00
         -2   -1    0    0    0  501 -0.00000000000E+00  0.00000000000E+00  0.13503246045E+03  0.13503246045E+03  0.00000000000E+00 0.  1.
          2   -1    0    0  501    0  0.00000000000E+00 -0.00000000000E+00 -0.54252747742E+02  0.54252747742E+02  0.00000000000E+00 0. -1.
         24    1    1    2    0    0  0.27890388018E+02 -0.89228723175E+01  0.39191423239E+02  0.94131158518E+02  0.80419002446E+02 0.  1.
        -24    1    1    2    0    0 -0.27890388018E+02  0.89228723175E+01  0.41588289470E+02  0.95154049675E+02  0.80419002446E+02 0. -1.
<mgrwt>
<rscale>  0 0.85584504E+02</rscale>
<asrwt>0</asrwt>
<pdfrwt beam="1">  1        2 0.83465766E-02 0.85584504E+02</pdfrwt>
<pdfrwt beam="2">  1       -2 0.20774225E-01 0.85584504E+02</pdfrwt>
<totfact> 0.14069937E+04</totfact>
</mgrwt>
</event>
<event>
 4    1  0.5124795E-001  0.8594022E+02  0.7546771E-02  0.1312992E+00
         -2   -1    0    0    0  501 -0.00000000000E+00  0.00000000000E+00  0.42743643675E+03  0.42743643675E+03  0.00000000000E+00 0.  1.
          2   -1    0    0  501    0  0.00000000000E+00 -0.00000000000E+00 -0.17668205094E+02  0.17668205094E+02  0.00000000000E+00 0. -1.
         24    1    1    2    0    0  0.30099507424E+02  0.35389826098E+01  0.17185747115E+03  0.19214762837E+03  0.80419002446E+02 0.  0.
        -24    1    1    2    0    0 -0.30099507424E+02 -0.35389826098E+01  0.23791076050E+03  0.25295701347E+03  0.80419002446E+02 0.  1.
<mgrwt>
<rscale>  0 0.85940216E+02</rscale>
<asrwt>0</asrwt>
<pdfrwt beam="1">  1        2 0.27181857E-02 0.85940216E+02</pdfrwt>
<pdfrwt beam="2">  1       -2 0.65759444E-01 0.85940216E+02</pdfrwt>
<totfact> 0.70229580E+03</totfact>
</mgrwt>
</event>
<event>
 4    1  0.5124795E-001  0.8732936E+02  0.7546771E-02  0.1309451E+00
         -2   -1    0    0    0  501 -0.00000000000E+00  0.00000000000E+00  0.33042174925E+02  0.33042174925E+02  0.00000000000E+00 0.  1.
          2   -1    0    0  501    0  0.00000000000E+00 -0.00000000000E+00 -0.24324497781E+04  0.24324497781E+04  0.00000000000E+00 0. -1.
         24    1    1    2    0    0 -0.26552171756E+02  0.21311585041E+02 -0.23725064132E+04  0.23741131182E+04  0.80419002446E+02 0. -1.
        -24    1    1    2    0    0  0.26552171756E+02 -0.21311585041E+02 -0.26901190040E+02  0.91378834868E+02  0.80419002446E+02 0.  1.
<mgrwt>
<rscale>  0 0.87329362E+02</rscale>
<asrwt>0</asrwt>
<pdfrwt beam="1">  1        2 0.37422310E+00 0.87329362E+02</pdfrwt>
<pdfrwt beam="2">  1       -2 0.50834107E-02 0.87329362E+02</pdfrwt>
<totfact> 0.87302830E+02</totfact>
</mgrwt>
</event>
<event>
 4    1  0.5124795E-001  0.9160285E+02  0.7546771E-02  0.1299016E+00
          2   -1    0    0  501    0  0.00000000000E+00  0.00000000000E+00  0.36391471942E+03  0.36391471942E+03  0.00000000000E+00 0. -1.
         -2   -1    0    0    0  501 -0.00000000000E+00 -0.00000000000E+00 -0.18582930992E+03  0.18582930992E+03  0.00000000000E+00 0.  1.
         24    1    1    2    0    0 -0.43193793118E+01 -0.43648706497E+02  0.34629696692E+03  0.35820758210E+03  0.80419002446E+02 0. -1.
        -24    1    1    2    0    0  0.43193793118E+01  0.43648706497E+02 -0.16821155743E+03  0.19153644725E+03  0.80419002446E+02 0.  1.
<mgrwt>
<rscale>  0 0.91602852E+02</rscale>
<asrwt>0</asrwt>
<pdfrwt beam="1">  1        2 0.55986880E-01 0.91602852E+02</pdfrwt>
<pdfrwt beam="2">  1       -2 0.28589125E-01 0.91602852E+02</pdfrwt>
<totfact> 0.97336694E+02</totfact>
</mgrwt>
</event>
<event>
 4    1  0.5124795E-001  0.1223376E+03  0.7546771E-02  0.1239290E+00
          2   -1    0    0  501    0  0.00000000000E+00  0.00000000000E+00  0.10316294173E+04  0.10316294173E+04  0.00000000000E+00 0. -1.
         -2   -1    0    0    0  501 -0.00000000000E+00 -0.00000000000E+00 -0.55789018890E+02  0.55789018890E+02  0.00000000000E+00 0.  1.
         24    1    1    2    0    0 -0.61911687391E+02  0.68309696775E+02  0.95562253241E+03  0.96342146132E+03  0.80419002446E+02 0. -1.
        -24    1    1    2    0    0  0.61911687391E+02 -0.68309696775E+02  0.20217865950E+02  0.12399697483E+03  0.80419002446E+02 0.  1.
<mgrwt>
<rscale>  0 0.12233760E+03</rscale>
<asrwt>0</asrwt>
<pdfrwt beam="1">  1        2 0.15871220E+00 0.12233760E+03</pdfrwt>
<pdfrwt beam="2">  1       -2 0.85829268E-02 0.12233760E+03</pdfrwt>
<totfact> 0.21048205E+03</totfact>
</mgrwt>
</event>
<event>
 4    1  0.5124795E-001  0.8455633E+02  0.7546771E-02  0.1316597E+00
         -1   -1    0    0    0  501 -0.00000000000E+00  0.00000000000E+00  0.65172798860E+01  0.65172798860E+01  0.00000000000E+00 0.  1.
          1   -1    0    0  501    0  0.00000000000E+00 -0.00000000000E+00 -0.11725403946E+04  0.11725403946E+04  0.00000000000E+00 0. -1.
         24    1    1    2    0    0 -0.10917815760E+02 -0.23735110003E+02 -0.73259798879E+03  0.73746158088E+03  0.80419002446E+02 0.  1.
        -24    1    1    2    0    0  0.10917815760E+02  0.23735110003E+02 -0.43342512597E+03  0.44159609365E+03  0.80419002446E+02 0.  1.
<mgrwt>
<rscale>  0 0.84556324E+02</rscale>
<asrwt>0</asrwt>
<pdfrwt beam="1">  1        1 0.18039080E+00 0.84556334E+02</pdfrwt>
<pdfrwt beam="2">  1       -1 0.10026586E-02 0.84556334E+02</pdfrwt>
<totfact> 0.20654003E+04</totfact>
</mgrwt>
</event>
<event>
 4    1  0.5124795E-001  0.8692703E+02  0.7546771E-02  0.1310469E+00
          2   -1    0    0  501    0  0.00000000000E+00  0.00000000000E+00  0.11465549193E+04  0.11465549193E+04  0.00000000000E+00 0. -1.
         -2   -1    0    0    0  501 -0.00000000000E+00 -0.00000000000E+00 -0.34172890611E+02  0.34172890611E+02  0.00000000000E+00 0.  1.
         24    1    1    2    0    0  0.17731795850E+02  0.27832996736E+02  0.10865810007E+04  0.10900525581E+04  0.80419002446E+02 0. -1.
        -24    1    1    2    0    0 -0.17731795850E+02 -0.27832996736E+02  0.25801027931E+02  0.90675251794E+02  0.80419002446E+02 0.  1.
<mgrwt>
<rscale>  0 0.86927028E+02</rscale>
<asrwt>0</asrwt>
<pdfrwt beam="1">  1        2 0.17639303E+00 0.86927028E+02</pdfrwt>
<pdfrwt beam="2">  1       -2 0.52573687E-02 0.86927028E+02</pdfrwt>
<totfact> 0.37752395E+03</totfact>
</mgrwt>
</event>
<event>
 4    1  0.5124795E-001  0.9672078E+02  0.7546771E-02  0.1287347E+00
          2   -1    0    0  501    0  0.00000000000E+00  0.00000000000E+00  0.19923358267E+04  0.19923358267E+04  0.00000000000E+00 0. -1.
         -2   -1    0    0    0  501 -0.00000000000E+00 -0.00000000000E+00 -0.51619370559E+01  0.51619370559E+01  0.00000000000E+00 0.  1.
         24    1    1    2    0    0  0.98188569943E+01  0.52832598092E+02  0.12938284100E+04  0.12974385780E+04  0.80419002446E+02 0. -1.
        -24    1    1    2    0    0 -0.98188569943E+01 -0.52832598092E+02  0.69334547972E+03  0.70005918577E+03  0.80419002446E+02 0.  1.
<mgrwt>
<rscale>  0 0.96720780E+02</rscale>
<asrwt>0</asrwt>
<pdfrwt beam="1">  1        2 0.30651259E+00 0.96720780E+02</pdfrwt>
<pdfrwt beam="2">  1       -2 0.79414575E-03 0.96720780E+02</pdfrwt>
<totfact> 0.21273837E+04</totfact>
</mgrwt>
</event>
<event>
 4    1  0.5124795E-001  0.8273061E+02  0.7546771E-02  0.1321476E+00
         -2   -1    0    0    0  501 -0.00000000000E+00  0.00000000000E+00  0.17419394578E+02  0.17419394578E+02  0.00000000000E+00 0.  1.
          2   -1    0    0  501    0  0.00000000000E+00 -0.00000000000E+00 -0.54010761631E+03  0.54010761631E+03  0.00000000000E+00 0. -1.
         24    1    1    2    0    0  0.15352389926E+02 -0.11892953563E+02 -0.40686914123E+03  0.41519495693E+03  0.80419002446E+02 0. -1.
        -24    1    1    2    0    0 -0.15352389926E+02  0.11892953563E+02 -0.11581908050E+03  0.14233205395E+03  0.80419002446E+02 0.  1.
<mgrwt>
<rscale>  0 0.82730612E+02</rscale>
<asrwt>0</asrwt>
<pdfrwt beam="1">  1        2 0.83093494E-01 0.82730612E+02</pdfrwt>
<pdfrwt beam="2">  1       -2 0.26799064E-02 0.82730612E+02</pdfrwt>
<totfact> 0.25480195E+04</totfact>
</mgrwt>
</event>
<event>
 4    1  0.5124795E-001  0.9691887E+02  0.7546771E-02  0.1286912E+00
          2   -1    0    0  501    0  0.00000000000E+00  0.00000000000E+00  0.18338269612E+02  0.18338269612E+02  0.00000000000E+00 0. -1.
         -2   -1    0    0    0  501 -0.00000000000E+00 -0.00000000000E+00 -0.57975817405E+03  0.57975817405E+03  0.00000000000E+00 0.  1.
         24    1    1    2    0    0  0.51966139198E+02 -0.15019061131E+02 -0.17864290552E+03  0.20324014236E+03  0.80419002446E+02 0. -1.
        -24    1    1    2    0    0 -0.51966139198E+02  0.15019061131E+02 -0.38277699892E+03  0.39485630130E+03  0.80419002446E+02 0.  1.
<mgrwt>
<rscale>  0 0.96918872E+02</rscale>
<asrwt>0</asrwt>
<pdfrwt beam="1">  1        2 0.28212721E-02 0.96918872E+02</pdfrwt>
<pdfrwt beam="2">  1       -2 0.89193570E-01 0.96918872E+02</pdfrwt>
<totfact> 0.35112773E+03</totfact>
</mgrwt>
</event>
<event>
 4    1  0.5124795E-001  0.9010903E+02  0.7546771E-02  0.1302588E+00
          2   -1    0    0  501    0  0.00000000000E+00  0.00000000000E+00  0.26129996811E+04  0.26129996811E+04  0.00000000000E+00 0. -1.
         -2   -1    0    0    0  501 -0.00000000000E+00 -0.00000000000E+00 -0.39296023164E+01  0.39296023164E+01  0.00000000000E+00 0.  1.
         24    1    1    2    0    0  0.40210302216E+02 -0.59626399819E+01  0.19030524850E+04  0.19051846100E+04  0.80419002446E+02 0. -1.
        -24    1    1    2    0    0 -0.40210302216E+02  0.59626399819E+01  0.70601759370E+03  0.71174467335E+03  0.80419002446E+02 0.  1.
<mgrwt>
<rscale>  0 0.90109031E+02</rscale>
<asrwt>0</asrwt>
<pdfrwt beam="1">  1        2 0.40199856E+00 0.90109031E+02</pdfrwt>
<pdfrwt beam="2">  1       -2 0.60455629E-03 0.90109031E+02</pdfrwt>
<totfact> 0.14901743E+04</totfact>
</mgrwt>
</event>
<event>
 4    1  0.5124795E-001  0.1008159E+03  0.7546771E-02  0.1278589E+00
         -1   -1    0    0    0  501 -0.00000000000E+00  0.00000000000E+00  0.65580591667E+01  0.65580591667E+01  0.00000000000E+00 0.  1.
          1   -1    0    0  501    0  0.00000000000E+00 -0.00000000000E+00 -0.16534174629E+04  0.16534174629E+04  0.00000000000E+00 0. -1.
         24    1    1    2    0    0  0.60535846180E+02  0.56613279108E+01 -0.61567975401E+03  0.62387932708E+03  0.80419002446E+02 0.  1.
        -24    1    1    2    0    0 -0.60535846180E+02 -0.56613279108E+01 -0.10311796497E+04  0.10360961950E+04  0.80419002446E+02 0. -1.
<mgrwt>
<rscale>  0 0.10081595E+03</rscale>
<asrwt>0</asrwt>
<pdfrwt beam="1">  1        1 0.25437209E+00 0.10081595E+03</pdfrwt>
<pdfrwt beam="2">  1       -1 0.10089315E-02 0.10081595E+03</pdfrwt>
<totfact> 0.10108047E+04</totfact>
</mgrwt>
</event>
<event>
 4    1  0.5124795E-001  0.9619868E+02  0.7546771E-02  0.1288499E+00
         -2   -1    0    0    0  501 -0.00000000000E+00  0.00000000000E+00  0.11774390119E+02  0.11774390119E+02  0.00000000000E+00 0.  1.
          2   -1    0    0  501    0  0.00000000000E+00 -0.00000000000E+00 -0.81451140388E+03  0.81451140388E+03  0.00000000000E+00 0. -1.
         24    1    1    2    0    0 -0.49606499455E+02 -0.18060036157E+02 -0.47872103079E+03  0.48829090814E+03  0.80419002446E+02 0. -1.
        -24    1    1    2    0    0  0.49606499455E+02  0.18060036157E+02 -0.32401598297E+03  0.33799488586E+03  0.80419002446E+02 0.  1.
<mgrwt>
<rscale>  0 0.96198678E+02</rscale>
<asrwt>0</asrwt>
<pdfrwt beam="1">  1        2 0.12530946E+00 0.96198678E+02</pdfrwt>
<pdfrwt beam="2">  1       -2 0.18114445E-02 0.96198678E+02</pdfrwt>
<totfact> 0.28333421E+04</totfact>
</mgrwt>
</event>
<event>
 4    1  0.5124795E-001  0.8311169E+02  0.7546771E-02  0.1320446E+00
         -2   -1    0    0    0  501 -0.00000000000E+00  0.00000000000E+00  0.61683902233E+03  0.61683902233E+03  0.00000000000E+00 0.  1.
          2   -1    0    0  501    0  0.00000000000E+00 -0.00000000000E+00 -0.27890434610E+02  0.27890434610E+02  0.00000000000E+00 0. -1.
         24    1    1    2    0    0  0.16437329098E+02 -0.13044224189E+02  0.45086204460E+02  0.94553262025E+02  0.80419002446E+02 0. -1.
        -24    1    1    2    0    0 -0.16437329098E+02  0.13044224189E+02  0.54386238326E+03  0.55017619492E+03  0.80419002446E+02 0.  1.
<mgrwt>
<rscale>  0 0.83111693E+02</rscale>
<asrwt>0</asrwt>
<pdfrwt beam="1">  1        2 0.42908366E-02 0.83111693E+02</pdfrwt>
<pdfrwt beam="2">  1       -2 0.94898301E-01 0.83111693E+02</pdfrwt>
<totfact> 0.17366885E+03</totfact>
</mgrwt>
</event>
<event>
 4    1  0.5124795E-001  0.8128826E+02  0.7546771E-02  0.1325435E+00
         -2   -1    0    0    0  501 -0.00000000000E+00  0.00000000000E+00  0.57231935209E+01  0.57231935209E+01  0.00000000000E+00 0.  1.
          2   -1    0    0  501    0  0.00000000000E+00 -0.00000000000E+00 -0.11742906116E+04  0.11742906116E+04  0.00000000000E+00 0. -1.
         24    1    1    2    0    0 -0.32924505690E+01 -0.11389674069E+02 -0.66075867371E+03  0.66574004366E+03  0.80419002446E+02 0. -1.
        -24    1    1    2    0    0  0.32924505690E+01  0.11389674069E+02 -0.50780874434E+03  0.51427376143E+03  0.80419002446E+02 0.  1.
<mgrwt>
<rscale>  0 0.81288258E+02</rscale>
<asrwt>0</asrwt>
<pdfrwt beam="1">  1        2 0.18066021E+00 0.81288258E+02</pdfrwt>
<pdfrwt beam="2">  1       -2 0.88049076E-03 0.81288258E+02</pdfrwt>
<totfact> 0.47538789E+04</totfact>
</mgrwt>
</event>
<event>
 4    1  0.5124795E-001  0.8917126E+02  0.7546771E-02  0.1304871E+00
          1   -1    0    0  501    0  0.00000000000E+00  0.00000000000E+00  0.50434564457E+03  0.50434564457E+03  0.00000000000E+00 0. -1.
         -1   -1    0    0    0  501 -0.00000000000E+00 -0.00000000000E+00 -0.46645319817E+02  0.46645319817E+02  0.00000000000E+00 0.  1.
         24    1    1    2    0    0 -0.33760763821E+02 -0.18560944986E+02  0.46972936877E+01  0.89294895570E+02  0.80419002446E+02 0.  1.
        -24    1    1    2    0    0  0.33760763821E+02  0.18560944986E+02  0.45300303107E+03  0.46169606882E+03  0.80419002446E+02 0. -1.
<mgrwt>
<rscale>  0 0.89171261E+02</rscale>
<asrwt>0</asrwt>
<pdfrwt beam="1">  1        1 0.77591634E-01 0.89171261E+02</pdfrwt>
<pdfrwt beam="2">  1       -1 0.71762034E-02 0.89171261E+02</pdfrwt>
<totfact> 0.42927309E+03</totfact>
</mgrwt>
</event>
<event>
 4    1  0.5124795E-001  0.1688685E+03  0.7546771E-02  0.1179033E+00
          1   -1    0    0  501    0  0.00000000000E+00  0.00000000000E+00  0.71655698621E+03  0.71655698621E+03  0.00000000000E+00 0. -1.
         -1   -1    0    0    0  501 -0.00000000000E+00 -0.00000000000E+00 -0.16892252636E+03  0.16892252636E+03  0.00000000000E+00 0.  1.
         24    1    1    2    0    0 -0.12611481558E+03  0.78386364994E+02 -0.11327222291E+03  0.20334006335E+03  0.80419002446E+02 0.  1.
        -24    1    1    2    0    0  0.12611481558E+03 -0.78386364994E+02  0.66090668276E+03  0.68213944923E+03  0.80419002446E+02 0. -1.
<mgrwt>
<rscale>  0 0.16886854E+03</rscale>
<asrwt>0</asrwt>
<pdfrwt beam="1">  1        1 0.11023953E+00 0.16886854E+03</pdfrwt>
<pdfrwt beam="2">  1       -1 0.25988081E-01 0.16886854E+03</pdfrwt>
<totfact> 0.36197225E+02</totfact>
</mgrwt>
</event>
<event>
 4    1  0.5124795E-001  0.9402976E+02  0.7546771E-02  0.1293376E+00
          1   -1    0    0  501    0  0.00000000000E+00  0.00000000000E+00  0.80768032871E+03  0.80768032871E+03  0.00000000000E+00 0. -1.
         -1   -1    0    0    0  501 -0.00000000000E+00 -0.00000000000E+00 -0.32453109057E+02  0.32453109057E+02  0.00000000000E+00 0.  1.
         24    1    1    2    0    0  0.45583874504E+02 -0.17218886425E+02  0.45656172571E+02  0.10452789921E+03  0.80419002446E+02 0. -1.
        -24    1    1    2    0    0 -0.45583874504E+02  0.17218886425E+02  0.72957104708E+03  0.73560553855E+03  0.80419002446E+02 0.  0.
<mgrwt>
<rscale>  0 0.94029759E+02</rscale>
<asrwt>0</asrwt>
<pdfrwt beam="1">  1        1 0.12425850E+00 0.94029759E+02</pdfrwt>
<pdfrwt beam="2">  1       -1 0.49927866E-02 0.94029759E+02</pdfrwt>
<totfact> 0.38499392E+03</totfact>
</mgrwt>
</event>
<event>
 4    1  0.5124795E-001  0.8269431E+02  0.7546771E-02  0.1321575E+00
          2   -1    0    0  501    0  0.00000000000E+00  0.00000000000E+00  0.39213348565E+03  0.39213348565E+03  0.00000000000E+00 0. -1.
         -2   -1    0    0    0  501 -0.00000000000E+00 -0.00000000000E+00 -0.12236106219E+03  0.12236106219E+03  0.00000000000E+00 0.  1.
         24    1    1    2    0    0  0.18132805414E+02 -0.65064360650E+01  0.37309782344E+03  0.38215223950E+03  0.80419002446E+02 0. -1.
        -24    1    1    2    0    0 -0.18132805414E+02  0.65064360650E+01 -0.10332539998E+03  0.13234230834E+03  0.80419002446E+02 0.  1.
<mgrwt>
<rscale>  0 0.82694306E+02</rscale>
<asrwt>0</asrwt>
<pdfrwt beam="1">  1        2 0.60328228E-01 0.82694306E+02</pdfrwt>
<pdfrwt beam="2">  1       -2 0.18824779E-01 0.82694306E+02</pdfrwt>
<totfact> 0.18334646E+03</totfact>
</mgrwt>
</event>
<event>
 4    1  0.5124795E-001  0.8531245E+02  0.7546771E-02  0.1314617E+00
          1   -1    0    0  501    0  0.00000000000E+00  0.00000000000E+00  0.10704605912E+02  0.10704605912E+02  0.00000000000E+00 0. -1.
         -1   -1    0    0    0  501 -0.00000000000E+00 -0.00000000000E+00 -0.74202584264E+03  0.74202584264E+03  0.00000000000E+00 0.  1.
         24    1    1    2    0    0 -0.87801577936E+01  0.27090716407E+02 -0.47455019897E+03  0.48215775985E+03  0.80419002446E+02 0.  1.
        -24    1    1    2    0    0  0.87801577936E+01 -0.27090716407E+02 -0.25677103776E+03  0.27057268870E+03  0.80419002446E+02 0. -1.
<mgrwt>
<rscale>  0 0.85312450E+02</rscale>
<asrwt>0</asrwt>
<pdfrwt beam="1">  1        1 0.16468625E-02 0.85312450E+02</pdfrwt>
<pdfrwt beam="2">  1       -1 0.11415782E+00 0.85312450E+02</pdfrwt>
<totfact> 0.54332201E+03</totfact>
</mgrwt>
</event>
<event>
 4    1  0.5124795E-001  0.1023728E+03  0.7546771E-02  0.1275384E+00
         -1   -1    0    0    0  501 -0.00000000000E+00  0.00000000000E+00  0.56944787409E+02  0.56944787409E+02  0.00000000000E+00 0.  1.
          1   -1    0    0  501    0  0.00000000000E+00 -0.00000000000E+00 -0.44808671319E+03  0.44808671319E+03  0.00000000000E+00 0. -1.
         24    1    1    2    0    0 -0.81516850459E+01 -0.62821356584E+02 -0.17294416984E+01  0.10238740028E+03  0.80419002446E+02 0.  1.
        -24    1    1    2    0    0  0.81516850459E+01  0.62821356584E+02 -0.38941248408E+03  0.40264410032E+03  0.80419002446E+02 0. -1.
<mgrwt>
<rscale>  0 0.10237279E+03</rscale>
<asrwt>0</asrwt>
<pdfrwt beam="1">  1        1 0.68936415E-01 0.10237279E+03</pdfrwt>
<pdfrwt beam="2">  1       -1 0.87607369E-02 0.10237279E+03</pdfrwt>
<totfact> 0.37333715E+03</totfact>
</mgrwt>
</event>
<event>
 4    1  0.5124795E-001  0.8245659E+02  0.7546771E-02  0.1322221E+00
          2   -1    0    0  501    0  0.00000000000E+00  0.00000000000E+00  0.33213487068E+04  0.33213487068E+04  0.00000000000E+00 0. -1.
         -2   -1    0    0    0  501 -0.00000000000E+00 -0.00000000000E+00 -0.32216319496E+02  0.32216319496E+02  0.00000000000E+00 0.  1.
         24    1    1    2    0    0  0.16889043100E+02 -0.68288437377E+01  0.32672014472E+04  0.32682417881E+04  0.80419002446E+02 0. -1.
        -24    1    1    2    0    0 -0.16889043100E+02  0.68288437377E+01  0.21930940057E+02  0.85323238158E+02  0.80419002446E+02 0.  1.
<mgrwt>
<rscale>  0 0.82456588E+02</rscale>
<asrwt>0</asrwt>
<pdfrwt beam="1">  1        2 0.51097645E+00 0.82456588E+02</pdfrwt>
<pdfrwt beam="2">  1       -2 0.49563595E-02 0.82456588E+02</pdfrwt>
<totfact> 0.29043759E+02</totfact>
</mgrwt>
</event>
<event>
 4    1  0.5124795E-001  0.8056125E+02  0.7546771E-02  0.1327466E+00
          4   -1    0    0  501    0  0.00000000000E+00  0.00000000000E+00  0.58495947380E+03  0.58495947380E+03  0.00000000000E+00 0. -1.
         -4   -1    0    0    0  501 -0.00000000000E+00 -0.00000000000E+00 -0.11094981116E+02  0.11094981116E+02  0.00000000000E+00 0.  1.
         24    1    1    2    0    0  0.36442912655E+01  0.31007484025E+01  0.28673434275E+03  0.29783669143E+03  0.80419002446E+02 0.  1.
        -24    1    1    2    0    0 -0.36442912655E+01 -0.31007484025E+01  0.28713014994E+03  0.29821776349E+03  0.80419002446E+02 0. -1.
<mgrwt>
<rscale>  0 0.80561238E+02</rscale>
<asrwt>0</asrwt>
<pdfrwt beam="1">  1        4 0.89993741E-01 0.80561248E+02</pdfrwt>
<pdfrwt beam="2">  1       -4 0.17069206E-02 0.80561248E+02</pdfrwt>
<totfact> 0.20468866E+03</totfact>
</mgrwt>
</event>
<event>
 4    1  0.5124795E-001  0.8406634E+02  0.7546771E-02  0.1317892E+00
          1   -1    0    0  501    0  0.00000000000E+00  0.00000000000E+00  0.68809745606E+03  0.68809745606E+03  0.00000000000E+00 0. -1.
         -1   -1    0    0    0  501 -0.00000000000E+00 -0.00000000000E+00 -0.12178045426E+02  0.12178045426E+02  0.00000000000E+00 0.  1.
         24    1    1    2    0    0  0.80411287624E+01  0.23135998553E+02  0.19938623052E+03  0.21638396211E+03  0.80419002446E+02 0.  0.
        -24    1    1    2    0    0 -0.80411287624E+01 -0.23135998553E+02  0.47653318011E+03  0.48389153938E+03  0.80419002446E+02 0. -1.
<mgrwt>
<rscale>  0 0.84066344E+02</rscale>
<asrwt>0</asrwt>
<pdfrwt beam="1">  1        1 0.10586112E+00 0.84066344E+02</pdfrwt>
<pdfrwt beam="2">  1       -1 0.18735460E-02 0.84066344E+02</pdfrwt>
<totfact> 0.19752123E+04</totfact>
</mgrwt>
</event>
<event>
 4    1  0.5124795E-001  0.8283570E+02  0.7546771E-02  0.1321191E+00
          1   -1    0    0  501    0  0.00000000000E+00  0.00000000000E+00  0.34857564278E+04  0.34857564278E+04  0.00000000000E+00 0. -1.
         -1   -1    0    0    0  501 -0.00000000000E+00 -0.00000000000E+00 -0.35858404235E+01  0.35858404235E+01  0.00000000000E+00 0.  1.
         24    1    1    2    0    0 -0.12375182064E+02 -0.15536795150E+02  0.56938317253E+03  0.57537722430E+03  0.80419002446E+02 0.  1.
        -24    1    1    2    0    0  0.12375182064E+02  0.15536795150E+02  0.29127874148E+04  0.29139650439E+04  0.80419002446E+02 0. -1.
<mgrwt>
<rscale>  0 0.82835699E+02</rscale>
<asrwt>0</asrwt>
<pdfrwt beam="1">  1        1 0.53626751E+00 0.82835699E+02</pdfrwt>
<pdfrwt beam="2">  1       -1 0.55167055E-03 0.82835699E+02</pdfrwt>
<totfact> 0.14621773E+03</totfact>
</mgrwt>
</event>
<event>
 4    1  0.5124795E-001  0.8768974E+02  0.7546771E-02  0.1308545E+00
          1   -1    0    0  501    0  0.00000000000E+00  0.00000000000E+00  0.78216911896E+03  0.78216911896E+03  0.00000000000E+00 0. -1.
         -1   -1    0    0    0  501 -0.00000000000E+00 -0.00000000000E+00 -0.19728412107E+02  0.19728412107E+02  0.00000000000E+00 0.  1.
         24    1    1    2    0    0  0.86639257293E+01 -0.33870505088E+02  0.97229709386E+02  0.13093168855E+03  0.80419002446E+02 0.  1.
        -24    1    1    2    0    0 -0.86639257293E+01  0.33870505088E+02  0.66521099746E+03  0.67096584252E+03  0.80419002446E+02 0. -1.
<mgrwt>
<rscale>  0 0.87689741E+02</rscale>
<asrwt>0</asrwt>
<pdfrwt beam="1">  1        1 0.12033369E+00 0.87689741E+02</pdfrwt>
<pdfrwt beam="2">  1       -1 0.30351409E-02 0.87689741E+02</pdfrwt>
<totfact> 0.82805384E+03</totfact>
</mgrwt>
</event>
<event>
 4    1  0.5124795E-001  0.9785989E+02  0.7546771E-02  0.1284862E+00
          2   -1    0    0  501    0  0.00000000000E+00  0.00000000000E+00  0.31800355542E+02  0.31800355542E+02  0.00000000000E+00 0. -1.
         -2   -1    0    0    0  501 -0.00000000000E+00 -0.00000000000E+00 -0.15689301413E+04  0.15689301413E+04  0.00000000000E+00 0.  1.
         24    1    1    2    0    0 -0.48328352872E+02  0.27815678859E+02 -0.49100946026E+02  0.10948726198E+03  0.80419002446E+02 0. -1.
        -24    1    1    2    0    0  0.48328352872E+02 -0.27815678859E+02 -0.14880288397E+04  0.14912432348E+04  0.80419002446E+02 0.  1.
<mgrwt>
<rscale>  0 0.97859888E+02</rscale>
<asrwt>0</asrwt>
<pdfrwt beam="1">  1        2 0.48923627E-02 0.97859888E+02</pdfrwt>
<pdfrwt beam="2">  1       -2 0.24137385E+00 0.97859888E+02</pdfrwt>
<totfact> 0.13096901E+02</totfact>
</mgrwt>
</event>
<event>
 4    1  0.5124795E-001  0.8579464E+02  0.7546771E-02  0.1313367E+00
         -3   -1    0    0    0  501 -0.00000000000E+00  0.00000000000E+00  0.23652978257E+02  0.23652978257E+02  0.00000000000E+00 0.  1.
          3   -1    0    0  501    0  0.00000000000E+00 -0.00000000000E+00 -0.34018975522E+03  0.34018975522E+03  0.00000000000E+00 0. -1.
         24    1    1    2    0    0 -0.38101088584E+01 -0.29647706908E+02 -0.10515878572E+03  0.13571694671E+03  0.80419002446E+02 0.  1.
        -24    1    1    2    0    0  0.38101088584E+01  0.29647706908E+02 -0.21137799124E+03  0.22812578677E+03  0.80419002446E+02 0. -1.
<mgrwt>
<rscale>  0 0.85794635E+02</rscale>
<asrwt>0</asrwt>
<pdfrwt beam="1">  1        3 0.52336884E-01 0.85794635E+02</pdfrwt>
<pdfrwt beam="2">  1       -3 0.36389198E-02 0.85794635E+02</pdfrwt>
<totfact> 0.28653442E+03</totfact>
</mgrwt>
</event>
<event>
 4    1  0.5124795E-001  0.8973331E+02  0.7546771E-02  0.1303499E+00
          1   -1    0    0  501    0  0.00000000000E+00  0.00000000000E+00  0.23065230489E+03  0.23065230489E+03  0.00000000000E+00 0. -1.
         -1   -1    0    0    0  501 -0.00000000000E+00 -0.00000000000E+00 -0.10188940134E+03  0.10188940134E+03  0.00000000000E+00 0.  1.
         24    1    1    2    0    0 -0.39809980731E+02 -0.13118717214E+00 -0.70428610743E+02  0.11407128009E+03  0.80419002446E+02 0.  1.
        -24    1    1    2    0    0  0.39809980731E+02  0.13118717214E+00  0.19919151429E+03  0.21847042613E+03  0.80419002446E+02 0. -1.
<mgrwt>
<rscale>  0 0.89733314E+02</rscale>
<asrwt>0</asrwt>
<pdfrwt beam="1">  1        1 0.35484970E-01 0.89733314E+02</pdfrwt>
<pdfrwt beam="2">  1       -1 0.15675293E-01 0.89733314E+02</pdfrwt>
<totfact> 0.34539400E+03</totfact>
</mgrwt>
</event>
<event>
 4    1  0.5124795E-001  0.1089459E+03  0.7546771E-02  0.1262535E+00
         -3   -1    0    0    0  501 -0.00000000000E+00  0.00000000000E+00  0.20897465053E+03  0.20897465053E+03  0.00000000000E+00 0.  1.
          3   -1    0    0  501    0  0.00000000000E+00 -0.00000000000E+00 -0.12364771224E+03  0.12364771224E+03  0.00000000000E+00 0. -1.
         24    1    1    2    0    0  0.60133485441E+02 -0.42260500539E+02  0.16495048786E+03  0.19768122161E+03  0.80419002446E+02 0.  1.
        -24    1    1    2    0    0 -0.60133485441E+02  0.42260500539E+02 -0.79623549569E+02  0.13494114116E+03  0.80419002446E+02 0. -1.
<mgrwt>
<rscale>  0 0.10894587E+03</rscale>
<asrwt>0</asrwt>
<pdfrwt beam="1">  1        3 0.19022725E-01 0.10894587E+03</pdfrwt>
<pdfrwt beam="2">  1       -3 0.32149946E-01 0.10894587E+03</pdfrwt>
<totfact> 0.51871509E+02</totfact>
</mgrwt>
</event>
<event>
 4    1  0.5124795E-001  0.1043040E+03  0.7546771E-02  0.1271497E+00
         -2   -1    0    0    0  501 -0.00000000000E+00  0.00000000000E+00  0.32440221799E+03  0.32440221799E+03  0.00000000000E+00 0.  1.
          2   -1    0    0  501    0  0.00000000000E+00 -0.00000000000E+00 -0.79674498848E+02  0.79674498848E+02  0.00000000000E+00 0. -1.
         24    1    1    2    0    0  0.25941460141E+02 -0.61148505495E+02 -0.31382038324E+02  0.10892266689E+03  0.80419002446E+02 0. -1.
        -24    1    1    2    0    0 -0.25941460141E+02  0.61148505495E+02  0.27610975747E+03  0.29515404995E+03  0.80419002446E+02 0.  1.
<mgrwt>
<rscale>  0 0.10430396E+03</rscale>
<asrwt>0</asrwt>
<pdfrwt beam="1">  1        2 0.12257615E-01 0.10430396E+03</pdfrwt>
<pdfrwt beam="2">  1       -2 0.49908033E-01 0.10430396E+03</pdfrwt>
<totfact> 0.18345264E+03</totfact>
</mgrwt>
</event>
<event>
 4    1  0.5124795E-001  0.8443859E+02  0.7546771E-02  0.1316907E+00
         -1   -1    0    0    0  501 -0.00000000000E+00  0.00000000000E+00  0.59252384361E+01  0.59252384361E+01  0.00000000000E+00 0.  1.
          1   -1    0    0  501    0  0.00000000000E+00 -0.00000000000E+00 -0.17593340264E+04  0.17593340264E+04  0.00000000000E+00 0. -1.
         24    1    1    2    0    0  0.25567266460E+01 -0.25614878701E+02 -0.38050902848E+03  0.38976530832E+03  0.80419002446E+02 0.  1.
        -24    1    1    2    0    0 -0.25567266460E+01  0.25614878701E+02 -0.13728997594E+04  0.13754939565E+04  0.80419002446E+02 0. -1.
<mgrwt>
<rscale>  0 0.84438586E+02</rscale>
<asrwt>0</asrwt>
<pdfrwt beam="1">  1        1 0.27066683E+00 0.84438586E+02</pdfrwt>
<pdfrwt beam="2">  1       -1 0.91157495E-03 0.84438586E+02</pdfrwt>
<totfact> 0.99086600E+03</totfact>
</mgrwt>
</event>
<event>
 4    1  0.5124795E-001  0.8961001E+02  0.7546771E-02  0.1303799E+00
          2   -1    0    0  501    0  0.00000000000E+00  0.00000000000E+00  0.29854160441E+03  0.29854160441E+03  0.00000000000E+00 0. -1.
         -2   -1    0    0    0  501 -0.00000000000E+00 -0.00000000000E+00 -0.80714975007E+02  0.80714975007E+02  0.00000000000E+00 0.  1.
         24    1    1    2    0    0 -0.39104755015E+02  0.57927692327E+01  0.26375527422E+03  0.27856201944E+03  0.80419002446E+02 0. -1.
        -24    1    1    2    0    0  0.39104755015E+02 -0.57927692327E+01 -0.45928644818E+02  0.10069455998E+03  0.80419002446E+02 0.  1.
<mgrwt>
<rscale>  0 0.89610011E+02</rscale>
<asrwt>0</asrwt>
<pdfrwt beam="1">  1        2 0.45929477E-01 0.89610011E+02</pdfrwt>
<pdfrwt beam="2">  1       -2 0.12417689E-01 0.89610011E+02</pdfrwt>
<totfact> 0.48039692E+03</totfact>
</mgrwt>
</event>
<event>
 4    1  0.5124795E-001  0.1257644E+03  0.7546771E-02  0.1233879E+00
         -4   -1    0    0    0  501 -0.00000000000E+00  0.00000000000E+00  0.18421584977E+03  0.18421584977E+03  0.00000000000E+00 0.  1.
          4   -1    0    0  501    0  0.00000000000E+00 -0.00000000000E+00 -0.92111371991E+02  0.92111371991E+02  0.00000000000E+00 0. -1.
         24    1    1    2    0    0 -0.51871712752E+02  0.81601426797E+02  0.82047190176E+02  0.15016132927E+03  0.80419002446E+02 0.  1.
        -24    1    1    2    0    0  0.51871712752E+02 -0.81601426797E+02  0.10057287604E+02  0.12616589249E+03  0.80419002446E+02 0. -1.
<mgrwt>
<rscale>  0 0.12576441E+03</rscale>
<asrwt>0</asrwt>
<pdfrwt beam="1">  1        4 0.14170980E-01 0.12576443E+03</pdfrwt>
<pdfrwt beam="2">  1       -4 0.28340900E-01 0.12576443E+03</pdfrwt>
<totfact> 0.80247253E+02</totfact>
</mgrwt>
</event>
<event>
 4    1  0.5124795E-001  0.8334857E+02  0.7546771E-02  0.1319809E+00
          1   -1    0    0  501    0  0.00000000000E+00  0.00000000000E+00  0.24811817743E+03  0.24811817743E+03  0.00000000000E+00 0. -1.
         -1   -1    0    0    0  501 -0.00000000000E+00 -0.00000000000E+00 -0.42095968363E+02  0.42095968363E+02  0.00000000000E+00 0.  1.
         24    1    1    2    0    0  0.83554208090E+01  0.20247345328E+02  0.19038821157E+02  0.85495384175E+02  0.80419002446E+02 0.  1.
        -24    1    1    2    0    0 -0.83554208090E+01 -0.20247345328E+02  0.18698338791E+03  0.20471876162E+03  0.80419002446E+02 0. -1.
<mgrwt>
<rscale>  0 0.83348569E+02</rscale>
<asrwt>0</asrwt>
<pdfrwt beam="1">  1        1 0.38172026E-01 0.83348569E+02</pdfrwt>
<pdfrwt beam="2">  1       -1 0.64763030E-02 0.83348569E+02</pdfrwt>
<totfact> 0.11938963E+04</totfact>
</mgrwt>
</event>
<event>
 4    1  0.5124795E-001  0.8695597E+02  0.7546771E-02  0.1310395E+00
          2   -1    0    0  501    0  0.00000000000E+00  0.00000000000E+00  0.25705325303E+03  0.25705325303E+03  0.00000000000E+00 0. -1.
         -2   -1    0    0    0  501 -0.00000000000E+00 -0.00000000000E+00 -0.38116104083E+02  0.38116104083E+02  0.00000000000E+00 0.  1.
         24    1    1    2    0    0 -0.32211998361E+02  0.75173862396E+01  0.17998052091E+03  0.19988578688E+03  0.80419002446E+02 0. -1.
        -24    1    1    2    0    0  0.32211998361E+02 -0.75173862396E+01  0.38956628034E+02  0.95283570234E+02  0.80419002446E+02 0.  1.
<mgrwt>
<rscale>  0 0.86955965E+02</rscale>
<asrwt>0</asrwt>
<pdfrwt beam="1">  1        2 0.39546653E-01 0.86955965E+02</pdfrwt>
<pdfrwt beam="2">  1       -2 0.58640162E-02 0.86955965E+02</pdfrwt>
<totfact> 0.17743948E+04</totfact>
</mgrwt>
</event>
<event>
 4    1  0.5124795E-001  0.8417989E+02  0.7546771E-02  0.1317591E+00
          1   -1    0    0  501    0  0.00000000000E+00  0.00000000000E+00  0.17106686822E+04  0.17106686822E+04  0.00000000000E+00 0. -1.
         -1   -1    0    0    0  501 -0.00000000000E+00 -0.00000000000E+00 -0.43727185107E+01  0.43727185107E+01  0.00000000000E+00 0.  1.
         24    1    1    2    0    0 -0.23770578142E+02 -0.73482755398E+01  0.65633916621E+03  0.66171546347E+03  0.80419002446E+02 0.  1.
        -24    1    1    2    0    0  0.23770578142E+02  0.73482755398E+01  0.10499567975E+04  0.10533259373E+04  0.80419002446E+02 0. -1.
<mgrwt>
<rscale>  0 0.84179888E+02</rscale>
<asrwt>0</asrwt>
<pdfrwt beam="1">  1        1 0.26317926E+00 0.84179888E+02</pdfrwt>
<pdfrwt beam="2">  1       -1 0.67272729E-03 0.84179888E+02</pdfrwt>
<totfact> 0.16276048E+04</totfact>
</mgrwt>
</event>
<event>
 4    1  0.5124795E-001  0.8806666E+02  0.7546771E-02  0.1307602E+00
          1   -1    0    0  501    0  0.00000000000E+00  0.00000000000E+00  0.47184552323E+03  0.47184552323E+03  0.00000000000E+00 0. -1.
         -1   -1    0    0    0  501 -0.00000000000E+00 -0.00000000000E+00 -0.17083301507E+02  0.17083301507E+02  0.00000000000E+00 0.  1.
         24    1    1    2    0    0 -0.14186142766E+02  0.32973830149E+02  0.17983233453E+03  0.20023836949E+03  0.80419002446E+02 0.  1.
        -24    1    1    2    0    0  0.14186142766E+02 -0.32973830149E+02  0.27492988719E+03  0.28869045524E+03  0.80419002446E+02 0. -1.
<mgrwt>
<rscale>  0 0.88066657E+02</rscale>
<asrwt>0</asrwt>
<pdfrwt beam="1">  1        1 0.72591609E-01 0.88066657E+02</pdfrwt>
<pdfrwt beam="2">  1       -1 0.26282006E-02 0.88066657E+02</pdfrwt>
<totfact> 0.20165225E+04</totfact>
</mgrwt>
</event>
<event>
 4    1  0.5124795E-001  0.8548443E+02  0.7546771E-02  0.1314171E+00
          2   -1    0    0  501    0  0.00000000000E+00  0.00000000000E+00  0.16157798792E+03  0.16157798792E+03  0.00000000000E+00 0. -1.
         -2   -1    0    0    0  501 -0.00000000000E+00 -0.00000000000E+00 -0.86362086801E+02  0.86362086801E+02  0.00000000000E+00 0.  1.
         24    1    1    2    0    0 -0.11969078198E+02 -0.26402888643E+02  0.12316674480E+03  0.14992542926E+03  0.80419002446E+02 0. -1.
        -24    1    1    2    0    0  0.11969078198E+02  0.26402888643E+02 -0.47950843673E+02  0.98014645462E+02  0.80419002446E+02 0.  1.
<mgrwt>
<rscale>  0 0.85484427E+02</rscale>
<asrwt>0</asrwt>
<pdfrwt beam="1">  1        2 0.24858152E-01 0.85484427E+02</pdfrwt>
<pdfrwt beam="2">  1       -2 0.13286475E-01 0.85484427E+02</pdfrwt>
<totfact> 0.82425262E+03</totfact>
</mgrwt>
</event>
<event>
 4    1  0.5124795E-001  0.8684432E+02  0.7546771E-02  0.1310679E+00
         -2   -1    0    0    0  501 -0.00000000000E+00  0.00000000000E+00  0.16457956874E+02  0.16457956874E+02  0.00000000000E+00 0.  1.
          2   -1    0    0  501    0  0.00000000000E+00 -0.00000000000E+00 -0.71881529603E+03  0.71881529603E+03  0.00000000000E+00 0. -1.
         24    1    1    2    0    0  0.22028013412E+02  0.24279349934E+02 -0.57252100248E+03  0.57907014639E+03  0.80419002446E+02 0. -1.
        -24    1    1    2    0    0 -0.22028013412E+02 -0.24279349934E+02 -0.12983633668E+03  0.15620310651E+03  0.80419002446E+02 0.  1.
<mgrwt>
<rscale>  0 0.86844321E+02</rscale>
<asrwt>0</asrwt>
<pdfrwt beam="1">  1        2 0.11058695E+00 0.86844321E+02</pdfrwt>
<pdfrwt beam="2">  1       -2 0.25319938E-02 0.86844321E+02</pdfrwt>
<totfact> 0.20135542E+04</totfact>
</mgrwt>
</event>
<event>
 4    1  0.5124795E-001  0.8579832E+02  0.7546771E-02  0.1313358E+00
         -1   -1    0    0    0  501 -0.00000000000E+00  0.00000000000E+00  0.37055328412E+02  0.37055328412E+02  0.00000000000E+00 0.  1.
          1   -1    0    0  501    0  0.00000000000E+00 -0.00000000000E+00 -0.29444968189E+03  0.29444968189E+03  0.00000000000E+00 0. -1.
         24    1    1    2    0    0  0.12434580803E+02  0.27194074665E+02 -0.34156754699E+02  0.92347367816E+02  0.80419002446E+02 0.  1.
        -24    1    1    2    0    0 -0.12434580803E+02 -0.27194074665E+02 -0.22323759877E+03  0.23915764248E+03  0.80419002446E+02 0. -1.
<mgrwt>
<rscale>  0 0.85798324E+02</rscale>
<asrwt>0</asrwt>
<pdfrwt beam="1">  1        1 0.45299950E-01 0.85798324E+02</pdfrwt>
<pdfrwt beam="2">  1       -1 0.57008199E-02 0.85798324E+02</pdfrwt>
<totfact> 0.11727739E+04</totfact>
</mgrwt>
</event>
<event>
 4    1  0.5124795E-001  0.9740895E+02  0.7546771E-02  0.1285841E+00
         -1   -1    0    0    0  501 -0.00000000000E+00  0.00000000000E+00  0.57394522443E+02  0.57394522443E+02  0.00000000000E+00 0.  1.
          1   -1    0    0  501    0  0.00000000000E+00 -0.00000000000E+00 -0.69528109254E+03  0.69528109254E+03  0.00000000000E+00 0. -1.
         24    1    1    2    0    0  0.78449147684E+01 -0.54403543341E+02  0.96202301704E+01  0.97882853446E+02  0.80419002446E+02 0.  1.
        -24    1    1    2    0    0 -0.78449147684E+01  0.54403543341E+02 -0.64750680027E+03  0.65479276154E+03  0.80419002446E+02 0. -1.
<mgrwt>
<rscale>  0 0.97408953E+02</rscale>
<asrwt>0</asrwt>
<pdfrwt beam="1">  1        1 0.10696631E+00 0.97408953E+02</pdfrwt>
<pdfrwt beam="2">  1       -1 0.88299272E-02 0.97408953E+02</pdfrwt>
<totfact> 0.20564048E+03</totfact>
</mgrwt>
</event>
<event>
 4    1  0.5124795E-001  0.8070428E+02  0.7546771E-02  0.1327065E+00
         -2   -1    0    0    0  501 -0.00000000000E+00  0.00000000000E+00  0.41848046954E+03  0.41848046954E+03  0.00000000000E+00 0.  1.
          2   -1    0    0  501    0  0.00000000000E+00 -0.00000000000E+00 -0.15565737786E+02  0.15565737786E+02  0.00000000000E+00 0. -1.
         24    1    1    2    0    0 -0.61645659524E+00 -0.67516206362E+01  0.19908726443E+03  0.21482299508E+03  0.80419002446E+02 0. -1.
        -24    1    1    2    0    0  0.61645659524E+00  0.67516206362E+01  0.20382746732E+03  0.21922321225E+03  0.80419002446E+02 0.  1.
<mgrwt>
<rscale>  0 0.80704277E+02</rscale>
<asrwt>0</asrwt>
<pdfrwt beam="1">  1        2 0.23947292E-02 0.80704277E+02</pdfrwt>
<pdfrwt beam="2">  1       -2 0.64381602E-01 0.80704277E+02</pdfrwt>
<totfact> 0.86261541E+03</totfact>
</mgrwt>
</event>
<event>
 4    1  0.5124795E-001  0.9395711E+02  0.7546771E-02  0.1293542E+00
         -1   -1    0    0    0  501 -0.00000000000E+00  0.00000000000E+00  0.32312778541E+02  0.32312778541E+02  0.00000000000E+00 0.  1.
          1   -1    0    0  501    0  0.00000000000E+00 -0.00000000000E+00 -0.28440977037E+03  0.28440977037E+03  0.00000000000E+00 0. -1.
         24    1    1    2    0    0 -0.34676056911E+02  0.34033710777E+02 -0.94612821719E+02  0.13333988293E+03  0.80419002446E+02 0.  1.
        -24    1    1    2    0    0  0.34676056911E+02 -0.34033710777E+02 -0.15748417011E+03  0.18338266598E+03  0.80419002446E+02 0. -1.
<mgrwt>
<rscale>  0 0.93957109E+02</rscale>
<asrwt>0</asrwt>
<pdfrwt beam="1">  1        1 0.43755348E-01 0.93957109E+02</pdfrwt>
<pdfrwt beam="2">  1       -1 0.49711968E-02 0.93957109E+02</pdfrwt>
<totfact> 0.15086383E+04</totfact>
</mgrwt>
</event>
<event>
 4    1  0.5124795E-001  0.8071434E+02  0.7546771E-02  0.1327036E+00
          2   -1    0    0  501    0  0.00000000000E+00  0.00000000000E+00  0.30112858119E+03  0.30112858119E+03  0.00000000000E+00 0. -1.
         -2   -1    0    0    0  501 -0.00000000000E+00 -0.00000000000E+00 -0.39615945491E+02  0.39615945491E+02  0.00000000000E+00 0.  1.
         24    1    1    2    0    0 -0.67593584826E+01  0.13782963951E+01  0.24553854440E+03  0.25846466174E+03  0.80419002446E+02 0. -1.
        -24    1    1    2    0    0  0.67593584826E+01 -0.13782963951E+01  0.15974091304E+02  0.82279864945E+02  0.80419002446E+02 0.  0.
<mgrwt>
<rscale>  0 0.80714339E+02</rscale>
<asrwt>0</asrwt>
<pdfrwt beam="1">  1        2 0.46327473E-01 0.80714339E+02</pdfrwt>
<pdfrwt beam="2">  1       -2 0.60947610E-02 0.80714339E+02</pdfrwt>
<totfact> 0.14092214E+04</totfact>
</mgrwt>
</event>
<event>
 4    1  0.5124795E-001  0.8477516E+02  0.7546771E-02  0.1316022E+00
          2   -1    0    0  501    0  0.00000000000E+00  0.00000000000E+00  0.80959799960E+03  0.80959799960E+03  0.00000000000E+00 0. -1.
         -2   -1    0    0    0  501 -0.00000000000E+00 -0.00000000000E+00 -0.12248032112E+02  0.12248032112E+02  0.00000000000E+00 0.  1.
         24    1    1    2    0    0 -0.11450487566E+02 -0.24258989771E+02  0.61425406866E+03  0.62007651872E+03  0.80419002446E+02 0. -1.
        -24    1    1    2    0    0  0.11450487566E+02  0.24258989771E+02  0.18309589883E+03  0.20176951299E+03  0.80419002446E+02 0.  1.
<mgrwt>
<rscale>  0 0.84775163E+02</rscale>
<asrwt>0</asrwt>
<pdfrwt beam="1">  1        2 0.12455350E+00 0.84775163E+02</pdfrwt>
<pdfrwt beam="2">  1       -2 0.18843133E-02 0.84775163E+02</pdfrwt>
<totfact> 0.26639461E+04</totfact>
</mgrwt>
</event>
<event>
 4    1  0.5124795E-001  0.8878858E+02  0.7546771E-02  0.1305812E+00
          4   -1    0    0  501    0  0.00000000000E+00  0.00000000000E+00  0.18132345851E+03  0.18132345851E+03  0.00000000000E+00 0. -1.
         -4   -1    0    0    0  501 -0.00000000000E+00 -0.00000000000E+00 -0.58944979801E+02  0.58944979801E+02  0.00000000000E+00 0.  1.
         24    1    1    2    0    0  0.28443317085E+02  0.24640887276E+02  0.12272948442E+03  0.15147916660E+03  0.80419002446E+02 0. -1.
        -24    1    1    2    0    0 -0.28443317085E+02 -0.24640887276E+02 -0.35100570786E+00  0.88789271717E+02  0.80419002446E+02 0.  1.
<mgrwt>
<rscale>  0 0.88788578E+02</rscale>
<asrwt>0</asrwt>
<pdfrwt beam="1">  1        4 0.27895916E-01 0.88788578E+02</pdfrwt>
<pdfrwt beam="2">  1       -4 0.90684585E-02 0.88788578E+02</pdfrwt>
<totfact> 0.16221470E+03</totfact>
</mgrwt>
</event>
<event>
 4    1  0.5124795E-001  0.1534035E+03  0.7546771E-02  0.1196352E+00
         -1   -1    0    0    0  501 -0.00000000000E+00  0.00000000000E+00  0.24792208222E+02  0.24792208222E+02  0.00000000000E+00 0.  1.
          1   -1    0    0  501    0  0.00000000000E+00 -0.00000000000E+00 -0.10722638285E+04  0.10722638285E+04  0.00000000000E+00 0. -1.
         24    1    1    2    0    0 -0.12478385083E+03  0.38657456442E+02 -0.33790267960E+03  0.37109411906E+03  0.80419002446E+02 0.  0.
        -24    1    1    2    0    0  0.12478385083E+03 -0.38657456442E+02 -0.70956894066E+03  0.72596191765E+03  0.80419002446E+02 0. -1.
<mgrwt>
<rscale>  0 0.15340347E+03</rscale>
<asrwt>0</asrwt>
<pdfrwt beam="1">  1        1 0.16496368E+00 0.15340347E+03</pdfrwt>
<pdfrwt beam="2">  1       -1 0.38141857E-02 0.15340347E+03</pdfrwt>
<totfact> 0.36796993E+03</totfact>
</mgrwt>
</event>
<event>
 4    1  0.5124795E-001  0.8728172E+02  0.7546771E-02  0.1309571E+00
          2   -1    0    0  501    0  0.00000000000E+00  0.00000000000E+00  0.25844036463E+04  0.25844036463E+04  0.00000000000E+00 0. -1.
         -2   -1    0    0    0  501 -0.00000000000E+00 -0.00000000000E+00 -0.50559320896E+02  0.50559320896E+02  0.00000000000E+00 0.  1.
         24    1    1    2    0    0 -0.31933897518E+02  0.11450314915E+02  0.25454208734E+04  0.25469168659E+04  0.80419002446E+02 0. -1.
        -24    1    1    2    0    0  0.31933897518E+02 -0.11450314915E+02 -0.11576547991E+02  0.88046101220E+02  0.80419002446E+02 0.  1.
<mgrwt>
<rscale>  0 0.87281725E+02</rscale>
<asrwt>0</asrwt>
<pdfrwt beam="1">  1        2 0.39760046E+00 0.87281725E+02</pdfrwt>
<pdfrwt beam="2">  1       -2 0.77783591E-02 0.87281725E+02</pdfrwt>
<totfact> 0.38335519E+02</totfact>
</mgrwt>
</event>
<event>
 4    1  0.5124795E-001  0.8381472E+02  0.7546771E-02  0.1318562E+00
          1   -1    0    0  501    0  0.00000000000E+00  0.00000000000E+00  0.22786745930E+03  0.22786745930E+03  0.00000000000E+00 0. -1.
         -1   -1    0    0    0  501 -0.00000000000E+00 -0.00000000000E+00 -0.34696100162E+02  0.34696100162E+02  0.00000000000E+00 0.  1.
         24    1    1    2    0    0  0.14345127162E+02  0.18759210744E+02  0.52756676987E+02  0.99036223585E+02  0.80419002446E+02 0.  0.
        -24    1    1    2    0    0 -0.14345127162E+02 -0.18759210744E+02  0.14041468215E+03  0.16352733587E+03  0.80419002446E+02 0.  0.
<mgrwt>
<rscale>  0 0.83814716E+02</rscale>
<asrwt>0</asrwt>
<pdfrwt beam="1">  1        1 0.35056531E-01 0.83814716E+02</pdfrwt>
<pdfrwt beam="2">  1       -1 0.53378617E-02 0.83814716E+02</pdfrwt>
<totfact> 0.17602451E+04</totfact>
</mgrwt>
</event>
<event>
 4    1  0.5124795E-001  0.9090651E+02  0.7546771E-02  0.1300671E+00
         -1   -1    0    0    0  501 -0.00000000000E+00  0.00000000000E+00  0.11477860906E+03  0.11477860906E+03  0.00000000000E+00 0.  1.
          1   -1    0    0  501    0  0.00000000000E+00 -0.00000000000E+00 -0.85764677717E+02  0.85764677717E+02  0.00000000000E+00 0. -1.
         24    1    1    2    0    0 -0.12572046521E+02  0.40481116389E+02  0.54678285634E+02  0.10608349547E+03  0.80419002446E+02 0.  1.
        -24    1    1    2    0    0  0.12572046521E+02 -0.40481116389E+02 -0.25664354289E+02  0.94459791304E+02  0.80419002446E+02 0. -1.
<mgrwt>
<rscale>  0 0.90906507E+02</rscale>
<asrwt>0</asrwt>
<pdfrwt beam="1">  1        1 0.13194566E-01 0.90906507E+02</pdfrwt>
<pdfrwt beam="2">  1       -1 0.17658248E-01 0.90906507E+02</pdfrwt>
<totfact> 0.98962335E+03</totfact>
</mgrwt>
</event>
<event>
 4    1  0.5124795E-001  0.1116048E+03  0.7546771E-02  0.1257627E+00
          2   -1    0    0  501    0  0.00000000000E+00  0.00000000000E+00  0.14957179489E+02  0.14957179489E+02  0.00000000000E+00 0. -1.
         -2   -1    0    0    0  501 -0.00000000000E+00 -0.00000000000E+00 -0.95757449491E+03  0.95757449491E+03  0.00000000000E+00 0.  1.
         24    1    1    2    0    0 -0.36465190536E+02 -0.68254687699E+02 -0.29574563466E+03  0.31610300360E+03  0.80419002446E+02 0.  1.
        -24    1    1    2    0    0  0.36465190536E+02  0.68254687699E+02 -0.64687168077E+03  0.65642867080E+03  0.80419002446E+02 0.  0.
<mgrwt>
<rscale>  0 0.11160479E+03</rscale>
<asrwt>0</asrwt>
<pdfrwt beam="1">  1        2 0.23011034E-02 0.11160479E+03</pdfrwt>
<pdfrwt beam="2">  1       -2 0.14731922E+00 0.11160479E+03</pdfrwt>
<totfact> 0.14226430E+03</totfact>
</mgrwt>
</event>
<event>
 4    1  0.5124795E-001  0.1225821E+03  0.7546771E-02  0.1238897E+00
          1   -1    0    0  501    0  0.00000000000E+00  0.00000000000E+00  0.62045106689E+02  0.62045106689E+02  0.00000000000E+00 0. -1.
         -1   -1    0    0    0  501 -0.00000000000E+00 -0.00000000000E+00 -0.27109502525E+03  0.27109502525E+03  0.00000000000E+00 0.  1.
         24    1    1    2    0    0  0.21155531676E+01 -0.92491446417E+02 -0.15892066983E+03  0.20070410679E+03  0.80419002446E+02 0.  0.
        -24    1    1    2    0    0 -0.21155531676E+01  0.92491446417E+02 -0.50129248723E+02  0.13243602515E+03  0.80419002446E+02 0.  1.
<mgrwt>
<rscale>  0 0.12258205E+03</rscale>
<asrwt>0</asrwt>
<pdfrwt beam="1">  1        1 0.95454011E-02 0.12258205E+03</pdfrwt>
<pdfrwt beam="2">  1       -1 0.41706927E-01 0.12258205E+03</pdfrwt>
<totfact> 0.37332505E+03</totfact>
</mgrwt>
</event>
<event>
 4    1  0.5124795E-001  0.1122410E+03  0.7546771E-02  0.1256475E+00
         -1   -1    0    0    0  501 -0.00000000000E+00  0.00000000000E+00  0.10957652014E+02  0.10957652014E+02  0.00000000000E+00 0.  1.
          1   -1    0    0  501    0  0.00000000000E+00 -0.00000000000E+00 -0.11503590549E+04  0.11503590549E+04  0.00000000000E+00 0. -1.
         24    1    1    2    0    0 -0.65581570830E+02 -0.42777138252E+02 -0.58357075794E+03  0.59426666697E+03  0.80419002446E+02 0. -1.
        -24    1    1    2    0    0  0.65581570830E+02  0.42777138252E+02 -0.55583064496E+03  0.56705003997E+03  0.80419002446E+02 0.  1.
<mgrwt>
<rscale>  0 0.11224101E+03</rscale>
<asrwt>0</asrwt>
<pdfrwt beam="1">  1        1 0.17697828E+00 0.11224103E+03</pdfrwt>
<pdfrwt beam="2">  1       -1 0.16857930E-02 0.11224103E+03</pdfrwt>
<totfact> 0.10448280E+04</totfact>
</mgrwt>
</event>
<event>
 4    1  0.5124795E-001  0.8180309E+02  0.7546771E-02  0.1324011E+00
          2   -1    0    0  501    0  0.00000000000E+00  0.00000000000E+00  0.27697061919E+04  0.27697061919E+04  0.00000000000E+00 0. -1.
         -2   -1    0    0    0  501 -0.00000000000E+00 -0.00000000000E+00 -0.41143134309E+01  0.41143134309E+01  0.00000000000E+00 0.  1.
         24    1    1    2    0    0 -0.14166433964E+02  0.48828768021E+01  0.22738464214E+04  0.22753174052E+04  0.80419002446E+02 0.  0.
        -24    1    1    2    0    0  0.14166433964E+02 -0.48828768021E+01  0.49174545702E+03  0.49850310008E+03  0.80419002446E+02 0.  1.
<mgrwt>
<rscale>  0 0.81803095E+02</rscale>
<asrwt>0</asrwt>
<pdfrwt beam="1">  1        2 0.42610715E+00 0.81803095E+02</pdfrwt>
<pdfrwt beam="2">  1       -2 0.63297351E-03 0.81803095E+02</pdfrwt>
<totfact> 0.11468111E+04</totfact>
</mgrwt>
</event>
<event>
 4    1  0.5124795E-001  0.9033511E+02  0.7546771E-02  0.1302042E+00
          1   -1    0    0  501    0  0.00000000000E+00  0.00000000000E+00  0.20414132461E+04  0.20414132461E+04  0.00000000000E+00 0. -1.
         -1   -1    0    0    0  501 -0.00000000000E+00 -0.00000000000E+00 -0.40035419075E+01  0.40035419075E+01  0.00000000000E+00 0.  1.
         24    1    1    2    0    0  0.25646703304E+02 -0.32178552560E+02  0.10586288613E+04  0.10624761149E+04  0.80419002446E+02 0.  1.
        -24    1    1    2    0    0 -0.25646703304E+02  0.32178552560E+02  0.97878084290E+03  0.98294067319E+03  0.80419002446E+02 0. -1.
<mgrwt>
<rscale>  0 0.90335102E+02</rscale>
<asrwt>0</asrwt>
<pdfrwt beam="1">  1        1 0.31406275E+00 0.90335113E+02</pdfrwt>
<pdfrwt beam="2">  1       -1 0.61593115E-03 0.90335113E+02</pdfrwt>
<totfact> 0.11485204E+04</totfact>
</mgrwt>
</event>
<event>
 4    1  0.5124795E-001  0.9273252E+02  0.7546771E-02  0.1296366E+00
          1   -1    0    0  501    0  0.00000000000E+00  0.00000000000E+00  0.11912827394E+03  0.11912827394E+03  0.00000000000E+00 0. -1.
         -1   -1    0    0    0  501 -0.00000000000E+00 -0.00000000000E+00 -0.16133385624E+03  0.16133385624E+03  0.00000000000E+00 0.  1.
         24    1    1    2    0    0 -0.92076924815E+01  0.45247354344E+02 -0.12534375516E+03  0.15591785526E+03  0.80419002446E+02 0.  1.
        -24    1    1    2    0    0  0.92076924815E+01 -0.45247354344E+02  0.83138172859E+02  0.12454427493E+03  0.80419002446E+02 0. -1.
<mgrwt>
<rscale>  0 0.92732522E+02</rscale>
<asrwt>0</asrwt>
<pdfrwt beam="1">  1        1 0.18327427E-01 0.92732522E+02</pdfrwt>
<pdfrwt beam="2">  1       -1 0.24820593E-01 0.92732522E+02</pdfrwt>
<totfact> 0.37840919E+03</totfact>
</mgrwt>
</event>
<event>
 4    1  0.5124795E-001  0.8551377E+02  0.7546771E-02  0.1314094E+00
         -1   -1    0    0    0  501 -0.00000000000E+00  0.00000000000E+00  0.66045593204E+02  0.66045593204E+02  0.00000000000E+00 0.  1.
          1   -1    0    0  501    0  0.00000000000E+00 -0.00000000000E+00 -0.15091537972E+03  0.15091537972E+03  0.00000000000E+00 0. -1.
         24    1    1    2    0    0 -0.42288454007E+01  0.28766388652E+02  0.13549888125E+02  0.86580619495E+02  0.80419002446E+02 0.  0.
        -24    1    1    2    0    0  0.42288454007E+01 -0.28766388652E+02 -0.98419674639E+02  0.13038035343E+03  0.80419002446E+02 0.  0.
<mgrwt>
<rscale>  0 0.85513766E+02</rscale>
<asrwt>0</asrwt>
<pdfrwt beam="1">  1        1 0.23217750E-01 0.85513766E+02</pdfrwt>
<pdfrwt beam="2">  1       -1 0.10160861E-01 0.85513766E+02</pdfrwt>
<totfact> 0.11256592E+04</totfact>
</mgrwt>
</event>
<event>
 4    1  0.5124795E-001  0.8329790E+02  0.7546771E-02  0.1319945E+00
         -1   -1    0    0    0  501 -0.00000000000E+00  0.00000000000E+00  0.72680037183E+01  0.72680037183E+01  0.00000000000E+00 0.  1.
          1   -1    0    0  501    0  0.00000000000E+00 -0.00000000000E+00 -0.14052839446E+04  0.14052839446E+04  0.00000000000E+00 0. -1.
         24    1    1    2    0    0 -0.21639574381E+02 -0.17471751130E+01 -0.29906777063E+03  0.31045139907E+03  0.80419002446E+02 0.  1.
        -24    1    1    2    0    0  0.21639574381E+02  0.17471751130E+01 -0.10989481703E+04  0.11021005493E+04  0.80419002446E+02 0.  0.
<mgrwt>
<rscale>  0 0.83297898E+02</rscale>
<asrwt>0</asrwt>
<pdfrwt beam="1">  1        1 0.21619712E+00 0.83297898E+02</pdfrwt>
<pdfrwt beam="2">  1       -1 0.11181566E-02 0.83297898E+02</pdfrwt>
<totfact> 0.12435928E+04</totfact>
</mgrwt>
</event>
<event>
 4    1  0.5124795E-001  0.8734153E+02  0.7546771E-02  0.1309420E+00
          1   -1    0    0  501    0  0.00000000000E+00  0.00000000000E+00  0.10407098519E+02  0.10407098519E+02  0.00000000000E+00 0. -1.
         -1   -1    0    0    0  501 -0.00000000000E+00 -0.00000000000E+00 -0.85038788934E+03  0.85038788934E+03  0.00000000000E+00 0.  1.
         24    1    1    2    0    0 -0.13422026562E+01 -0.34051797264E+02 -0.57989026649E+03  0.58643095376E+03  0.80419002446E+02 0.  1.
        -24    1    1    2    0    0  0.13422026562E+01  0.34051797264E+02 -0.26009052433E+03  0.27436403410E+03  0.80419002446E+02 0. -1.
<mgrwt>
<rscale>  0 0.87341527E+02</rscale>
<asrwt>0</asrwt>
<pdfrwt beam="1">  1        1 0.16010919E-02 0.87341527E+02</pdfrwt>
<pdfrwt beam="2">  1       -1 0.13082892E+00 0.87341527E+02</pdfrwt>
<totfact> 0.41134361E+03</totfact>
</mgrwt>
</event>
<event>
 4    1  0.5124795E-001  0.8189686E+02  0.7546771E-02  0.1323753E+00
         -2   -1    0    0    0  501 -0.00000000000E+00  0.00000000000E+00  0.25137703468E+02  0.25137703468E+02  0.00000000000E+00 0.  1.
          2   -1    0    0  501    0  0.00000000000E+00 -0.00000000000E+00 -0.90011462770E+03  0.90011462770E+03  0.00000000000E+00 0. -1.
         24    1    1    2    0    0 -0.88322871698E+01  0.12722846062E+02 -0.82553711103E+03  0.82958942722E+03  0.80419002446E+02 0. -1.
        -24    1    1    2    0    0  0.88322871698E+01 -0.12722846062E+02 -0.49439813205E+02  0.95662903953E+02  0.80419002446E+02 0.  1.
<mgrwt>
<rscale>  0 0.81896862E+02</rscale>
<asrwt>0</asrwt>
<pdfrwt beam="1">  1        2 0.13847915E+00 0.81896862E+02</pdfrwt>
<pdfrwt beam="2">  1       -2 0.38673396E-02 0.81896862E+02</pdfrwt>
<totfact> 0.82267719E+03</totfact>
</mgrwt>
</event>
<event>
 4    1  0.5124795E-001  0.1392977E+03  0.7546771E-02  0.1214277E+00
         -2   -1    0    0    0  501 -0.00000000000E+00  0.00000000000E+00  0.28414134337E+02  0.28414134337E+02  0.00000000000E+00 0.  1.
          2   -1    0    0  501    0  0.00000000000E+00 -0.00000000000E+00 -0.12419108591E+04  0.12419108591E+04  0.00000000000E+00 0. -1.
         24    1    1    2    0    0 -0.73253655365E+02 -0.87008806845E+02 -0.10328880911E+04  0.10422387707E+04  0.80419002446E+02 0. -1.
        -24    1    1    2    0    0  0.73253655365E+02  0.87008806845E+02 -0.18060863372E+03  0.22808622278E+03  0.80419002446E+02 0.  1.
<mgrwt>
<rscale>  0 0.13929769E+03</rscale>
<asrwt>0</asrwt>
<pdfrwt beam="1">  1        2 0.19106317E+00 0.13929769E+03</pdfrwt>
<pdfrwt beam="2">  1       -2 0.43714061E-02 0.13929769E+03</pdfrwt>
<totfact> 0.44716957E+03</totfact>
</mgrwt>
</event>
<event>
 4    1  0.5124795E-001  0.8234893E+02  0.7546771E-02  0.1322515E+00
         -2   -1    0    0    0  501 -0.00000000000E+00  0.00000000000E+00  0.30697234892E+01  0.30697234892E+01  0.00000000000E+00 0.  1.
          2   -1    0    0  501    0  0.00000000000E+00 -0.00000000000E+00 -0.27039428104E+04  0.27039428104E+04  0.00000000000E+00 0. -1.
         24    1    1    2    0    0  0.61750445117E+01 -0.16613215183E+02 -0.19294548695E+04  0.19312113917E+04  0.80419002446E+02 0.  0.
        -24    1    1    2    0    0 -0.61750445117E+01  0.16613215183E+02 -0.77141821746E+03  0.77580114222E+03  0.80419002446E+02 0.  0.
<mgrwt>
<rscale>  0 0.82348929E+02</rscale>
<asrwt>0</asrwt>
<pdfrwt beam="1">  1        2 0.41599253E+00 0.82348929E+02</pdfrwt>
<pdfrwt beam="2">  1       -2 0.47226365E-03 0.82348929E+02</pdfrwt>
<totfact> 0.18754825E+04</totfact>
</mgrwt>
</event>
<event>
 4    1  0.5124795E-001  0.9478200E+02  0.7546771E-02  0.1291668E+00
         -1   -1    0    0    0  501 -0.00000000000E+00  0.00000000000E+00  0.11024844045E+04  0.11024844045E+04  0.00000000000E+00 0.  1.
          1   -1    0    0  501    0  0.00000000000E+00 -0.00000000000E+00 -0.11159425269E+02  0.11159425269E+02  0.00000000000E+00 0. -1.
         24    1    1    2    0    0  0.72996747221E+01  0.49629899050E+02  0.83489238132E+03  0.84025526864E+03  0.80419002446E+02 0.  1.
        -24    1    1    2    0    0 -0.72996747221E+01 -0.49629899050E+02  0.25643259786E+03  0.27338856109E+03  0.80419002446E+02 0. -1.
<mgrwt>
<rscale>  0 0.94782003E+02</rscale>
<asrwt>0</asrwt>
<pdfrwt beam="1">  1        1 0.17168355E-02 0.94782003E+02</pdfrwt>
<pdfrwt beam="2">  1       -1 0.16961290E+00 0.94782003E+02</pdfrwt>
<totfact> 0.19335442E+03</totfact>
</mgrwt>
</event>
<event>
 4    1  0.5124795E-001  0.8451229E+02  0.7546771E-02  0.1316713E+00
         -2   -1    0    0    0  501 -0.00000000000E+00  0.00000000000E+00  0.54781430511E+01  0.54781430511E+01  0.00000000000E+00 0.  1.
          2   -1    0    0  501    0  0.00000000000E+00 -0.00000000000E+00 -0.13037969698E+04  0.13037969698E+04  0.00000000000E+00 0. -1.
         24    1    1    2    0    0  0.25843903112E+02 -0.26832485202E+01 -0.64721201012E+03  0.65270644944E+03  0.80419002446E+02 0.  1.
        -24    1    1    2    0    0 -0.25843903112E+02  0.26832485202E+01 -0.65110681665E+03  0.65656866343E+03  0.80419002446E+02 0. -1.
<mgrwt>
<rscale>  0 0.84512277E+02</rscale>
<asrwt>0</asrwt>
<pdfrwt beam="1">  1        2 0.20058425E+00 0.84512287E+02</pdfrwt>
<pdfrwt beam="2">  1       -2 0.84279080E-03 0.84512287E+02</pdfrwt>
<totfact> 0.43283214E+04</totfact>
</mgrwt>
</event>
<event>
 4    1  0.5124795E-001  0.9451426E+02  0.7546771E-02  0.1292274E+00
          2   -1    0    0  501    0  0.00000000000E+00  0.00000000000E+00  0.10241108228E+03  0.10241108228E+03  0.00000000000E+00 0. -1.
         -2   -1    0    0    0  501 -0.00000000000E+00 -0.00000000000E+00 -0.88282232736E+02  0.88282232736E+02  0.00000000000E+00 0.  1.
         24    1    1    2    0    0  0.46911717792E+02 -0.16279453573E+02  0.17491795439E+02  0.96119242282E+02  0.80419002446E+02 0.  0.
        -24    1    1    2    0    0 -0.46911717792E+02  0.16279453573E+02 -0.33629458900E+01  0.94574072738E+02  0.80419002446E+02 0.  1.
<mgrwt>
<rscale>  0 0.94514263E+02</rscale>
<asrwt>0</asrwt>
<pdfrwt beam="1">  1        2 0.15755551E-01 0.94514263E+02</pdfrwt>
<pdfrwt beam="2">  1       -2 0.13581882E-01 0.94514263E+02</pdfrwt>
<totfact> 0.13377998E+04</totfact>
</mgrwt>
</event>
<event>
 4    1  0.5124795E-001  0.8061138E+02  0.7546771E-02  0.1327325E+00
         -2   -1    0    0    0  501 -0.00000000000E+00  0.00000000000E+00  0.50616594258E+01  0.50616594258E+01  0.00000000000E+00 0.  1.
          2   -1    0    0  501    0  0.00000000000E+00 -0.00000000000E+00 -0.26483853193E+04  0.26483853193E+04  0.00000000000E+00 0. -1.
         24    1    1    2    0    0 -0.31515297868E+01  0.45875743757E+01 -0.22739953300E+04  0.22754236869E+04  0.80419002446E+02 0. -1.
        -24    1    1    2    0    0  0.31515297868E+01 -0.45875743757E+01 -0.36932832984E+03  0.37802329182E+03  0.80419002446E+02 0.  0.
<mgrwt>
<rscale>  0 0.80611376E+02</rscale>
<asrwt>0</asrwt>
<pdfrwt beam="1">  1        2 0.40744301E+00 0.80611376E+02</pdfrwt>
<pdfrwt beam="2">  1       -2 0.77871852E-03 0.80611376E+02</pdfrwt>
<totfact> 0.99611612E+03</totfact>
</mgrwt>
</event>
<event>
 4    1  0.5124795E-001  0.8489333E+02  0.7546771E-02  0.1315712E+00
          1   -1    0    0  501    0  0.00000000000E+00  0.00000000000E+00  0.92231705399E+03  0.92231705399E+03  0.00000000000E+00 0. -1.
         -1   -1    0    0    0  501 -0.00000000000E+00 -0.00000000000E+00 -0.15569668274E+02  0.15569668274E+02  0.00000000000E+00 0.  1.
         24    1    1    2    0    0 -0.26937875865E+02  0.37432730416E+01  0.12239989690E+03  0.14895842361E+03  0.80419002446E+02 0.  1.
        -24    1    1    2    0    0  0.26937875865E+02 -0.37432730416E+01  0.78434748881E+03  0.78892829865E+03  0.80419002446E+02 0. -1.
<mgrwt>
<rscale>  0 0.84893328E+02</rscale>
<asrwt>0</asrwt>
<pdfrwt beam="1">  1        1 0.14189489E+00 0.84893328E+02</pdfrwt>
<pdfrwt beam="2">  1       -1 0.23953343E-02 0.84893328E+02</pdfrwt>
<totfact> 0.90295787E+03</totfact>
</mgrwt>
</event>
<event>
 4    1  0.5124795E-001  0.9472343E+02  0.7546771E-02  0.1291800E+00
          2   -1    0    0  501    0  0.00000000000E+00  0.00000000000E+00  0.16877624786E+03  0.16877624786E+03  0.00000000000E+00 0. -1.
         -2   -1    0    0    0  501 -0.00000000000E+00 -0.00000000000E+00 -0.58104569059E+02  0.58104569059E+02  0.00000000000E+00 0.  1.
         24    1    1    2    0    0 -0.68534937901E+01 -0.49581674448E+02  0.88420529273E+02  0.12957900590E+03  0.80419002446E+02 0. -1.
        -24    1    1    2    0    0  0.68534937901E+01  0.49581674448E+02  0.22251149527E+02  0.97301811020E+02  0.80419002446E+02 0.  1.
<mgrwt>
<rscale>  0 0.94723433E+02</rscale>
<asrwt>0</asrwt>
<pdfrwt beam="1">  1        2 0.25965576E-01 0.94723433E+02</pdfrwt>
<pdfrwt beam="2">  1       -2 0.89391645E-02 0.94723433E+02</pdfrwt>
<totfact> 0.14770080E+04</totfact>
</mgrwt>
</event>
<event>
 4    1  0.5124795E-001  0.8118941E+02  0.7546771E-02  0.1325710E+00
          2   -1    0    0  501    0  0.00000000000E+00  0.00000000000E+00  0.71557079733E+03  0.71557079733E+03  0.00000000000E+00 0. -1.
         -2   -1    0    0    0  501 -0.00000000000E+00 -0.00000000000E+00 -0.96537719658E+01  0.96537719658E+01  0.00000000000E+00 0.  1.
         24    1    1    2    0    0  0.11130451484E+02 -0.78549926317E+00  0.43054289354E+03  0.43813114827E+03  0.80419002446E+02 0. -1.
        -24    1    1    2    0    0 -0.11130451484E+02  0.78549926317E+00  0.27537413183E+03  0.28709342102E+03  0.80419002446E+02 0.  1.
<mgrwt>
<rscale>  0 0.81189408E+02</rscale>
<asrwt>0</asrwt>
<pdfrwt beam="1">  1        2 0.11008777E+00 0.81189408E+02</pdfrwt>
<pdfrwt beam="2">  1       -2 0.14851962E-02 0.81189408E+02</pdfrwt>
<totfact> 0.43148853E+04</totfact>
</mgrwt>
</event>
<event>
 4    1  0.5124795E-001  0.1021086E+03  0.7546771E-02  0.1275923E+00
         -2   -1    0    0    0  501 -0.00000000000E+00  0.00000000000E+00  0.27227923131E+02  0.27227923131E+02  0.00000000000E+00 0.  1.
          2   -1    0    0  501    0  0.00000000000E+00 -0.00000000000E+00 -0.40860791795E+03  0.40860791795E+03  0.00000000000E+00 0. -1.
         24    1    1    2    0    0 -0.57376326925E+02 -0.25824568021E+02 -0.24532717126E+03  0.26572841045E+03  0.80419002446E+02 0. -1.
        -24    1    1    2    0    0  0.57376326925E+02  0.25824568021E+02 -0.13605282356E+03  0.17010743064E+03  0.80419002446E+02 0.  1.
<mgrwt>
<rscale>  0 0.10210860E+03</rscale>
<asrwt>0</asrwt>
<pdfrwt beam="1">  1        2 0.62862758E-01 0.10210860E+03</pdfrwt>
<pdfrwt beam="2">  1       -2 0.41889111E-02 0.10210860E+03</pdfrwt>
<totfact> 0.18287852E+04</totfact>
</mgrwt>
</event>
<event>
 4    1  0.5124795E-001  0.1018094E+03  0.7546771E-02  0.1276536E+00
          1   -1    0    0  501    0  0.00000000000E+00  0.00000000000E+00  0.26209896460E+04  0.26209896460E+04  0.00000000000E+00 0. -1.
         -1   -1    0    0    0  501 -0.00000000000E+00 -0.00000000000E+00 -0.42450539716E+01  0.42450539716E+01  0.00000000000E+00 0.  1.
         24    1    1    2    0    0 -0.36474487640E+02  0.50671031291E+02  0.96506705789E+03  0.97042237394E+03  0.80419002446E+02 0.  1.
        -24    1    1    2    0    0  0.36474487640E+02 -0.50671031291E+02  0.16516775341E+04  0.16548123260E+04  0.80419002446E+02 0. -1.
<mgrwt>
<rscale>  0 0.10180942E+03</rscale>
<asrwt>0</asrwt>
<pdfrwt beam="1">  1        1 0.40322788E+00 0.10180942E+03</pdfrwt>
<pdfrwt beam="2">  1       -1 0.65308732E-03 0.10180942E+03</pdfrwt>
<totfact> 0.45346617E+03</totfact>
</mgrwt>
</event>
<event>
 4    1  0.5124795E-001  0.8053879E+02  0.7546771E-02  0.1327529E+00
         -1   -1    0    0    0  501 -0.00000000000E+00  0.00000000000E+00  0.14858611574E+02  0.14858611574E+02  0.00000000000E+00 0.  1.
          1   -1    0    0  501    0  0.00000000000E+00 -0.00000000000E+00 -0.71812038111E+03  0.71812038111E+03  0.00000000000E+00 0. -1.
         24    1    1    2    0    0 -0.12807905523E+01 -0.41999652568E+01 -0.12214393764E+03  0.14630665600E+03  0.80419002446E+02 0.  0.
        -24    1    1    2    0    0  0.12807905523E+01  0.41999652568E+01 -0.58111783189E+03  0.58667233668E+03  0.80419002446E+02 0. -1.
<mgrwt>
<rscale>  0 0.80538786E+02</rscale>
<asrwt>0</asrwt>
<pdfrwt beam="1">  1        1 0.11048006E+00 0.80538786E+02</pdfrwt>
<pdfrwt beam="2">  1       -1 0.22859403E-02 0.80538786E+02</pdfrwt>
<totfact> 0.13958433E+04</totfact>
</mgrwt>
</event>
<event>
 4    1  0.5124795E-001  0.8583003E+02  0.7546771E-02  0.1313276E+00
          2   -1    0    0  501    0  0.00000000000E+00  0.00000000000E+00  0.36896584084E+04  0.36896584084E+04  0.00000000000E+00 0. -1.
         -2   -1    0    0    0  501 -0.00000000000E+00 -0.00000000000E+00 -0.26858835356E+01  0.26858835356E+01  0.00000000000E+00 0.  1.
         24    1    1    2    0    0 -0.29794749475E+02 -0.34426004088E+01  0.27787317709E+04  0.27800570226E+04  0.80419002446E+02 0. -1.
        -24    1    1    2    0    0  0.29794749475E+02  0.34426004088E+01  0.90824075401E+03  0.91228726934E+03  0.80419002446E+02 0.  1.
<mgrwt>
<rscale>  0 0.85830033E+02</rscale>
<asrwt>0</asrwt>
<pdfrwt beam="1">  1        2 0.56763570E+00 0.85830033E+02</pdfrwt>
<pdfrwt beam="2">  1       -2 0.41321580E-03 0.85830033E+02</pdfrwt>
<totfact> 0.58545238E+03</totfact>
</mgrwt>
</event>
<event>
 4    1  0.5124795E-001  0.9056501E+02  0.7546771E-02  0.1301489E+00
          3   -1    0    0  501    0  0.00000000000E+00  0.00000000000E+00  0.26467080321E+03  0.26467080321E+03  0.00000000000E+00 0. -1.
         -3   -1    0    0    0  501 -0.00000000000E+00 -0.00000000000E+00 -0.31597373364E+02  0.31597373364E+02  0.00000000000E+00 0.  1.
         24    1    1    2    0    0 -0.26584525653E+02  0.32063507214E+02  0.95990656450E+02  0.13197055573E+03  0.80419002446E+02 0.  1.
        -24    1    1    2    0    0  0.26584525653E+02 -0.32063507214E+02  0.13708277339E+03  0.16429762084E+03  0.80419002446E+02 0.  0.
<mgrwt>
<rscale>  0 0.90565012E+02</rscale>
<asrwt>0</asrwt>
<pdfrwt beam="1">  1        3 0.40718584E-01 0.90565012E+02</pdfrwt>
<pdfrwt beam="2">  1       -3 0.48611345E-02 0.90565012E+02</pdfrwt>
<totfact> 0.30170156E+03</totfact>
</mgrwt>
</event>
<event>
 4    1  0.5124795E-001  0.8607568E+02  0.7546771E-02  0.1312643E+00
          2   -1    0    0  501    0  0.00000000000E+00  0.00000000000E+00  0.34948535516E+02  0.34948535516E+02  0.00000000000E+00 0. -1.
         -2   -1    0    0    0  501 -0.00000000000E+00 -0.00000000000E+00 -0.10058710715E+04  0.10058710715E+04  0.00000000000E+00 0.  1.
         24    1    1    2    0    0  0.28212255113E+02  0.12077885809E+02 -0.23133666446E+02  0.89130180869E+02  0.80419002446E+02 0. -1.
        -24    1    1    2    0    0 -0.28212255113E+02 -0.12077885809E+02 -0.94778886957E+03  0.95168942618E+03  0.80419002446E+02 0.  1.
<mgrwt>
<rscale>  0 0.86075680E+02</rscale>
<asrwt>0</asrwt>
<pdfrwt beam="1">  1        2 0.53766971E-02 0.86075680E+02</pdfrwt>
<pdfrwt beam="2">  1       -2 0.15474942E+00 0.86075680E+02</pdfrwt>
<totfact> 0.40401611E+02</totfact>
</mgrwt>
</event>
<event>
 4    1  0.5124795E-001  0.8644334E+02  0.7546771E-02  0.1311701E+00
          2   -1    0    0  501    0  0.00000000000E+00  0.00000000000E+00  0.11804080228E+03  0.11804080228E+03  0.00000000000E+00 0. -1.
         -2   -1    0    0    0  501 -0.00000000000E+00 -0.00000000000E+00 -0.89600667493E+02  0.89600667493E+02  0.00000000000E+00 0.  1.
         24    1    1    2    0    0  0.31005248193E+02 -0.66264315285E+01  0.70464444612E+02  0.11152438710E+03  0.80419002446E+02 0. -1.
        -24    1    1    2    0    0 -0.31005248193E+02  0.66264315285E+01 -0.42024309824E+02  0.96117082669E+02  0.80419002446E+02 0. -1.
<mgrwt>
<rscale>  0 0.86443340E+02</rscale>
<asrwt>0</asrwt>
<pdfrwt beam="1">  1        2 0.18160123E-01 0.86443340E+02</pdfrwt>
<pdfrwt beam="2">  1       -2 0.13784718E-01 0.86443340E+02</pdfrwt>
<totfact> 0.11013727E+04</totfact>
</mgrwt>
</event>
<event>
 4    1  0.5124795E-001  0.1542721E+03  0.7546771E-02  0.1195320E+00
          2   -1    0    0  501    0  0.00000000000E+00  0.00000000000E+00  0.17704820458E+04  0.17704820458E+04  0.00000000000E+00 0. -1.
         -2   -1    0    0    0  501 -0.00000000000E+00 -0.00000000000E+00 -0.13580087342E+02  0.13580087342E+02  0.00000000000E+00 0.  1.
         24    1    1    2    0    0 -0.32409156205E+02 -0.12760208813E+03  0.78869205793E+03  0.80363861561E+03  0.80419002446E+02 0.  0.
        -24    1    1    2    0    0  0.32409156205E+02  0.12760208813E+03  0.96820990055E+03  0.98042351756E+03  0.80419002446E+02 0.  1.
<mgrwt>
<rscale>  0 0.15427206E+03</rscale>
<asrwt>0</asrwt>
<pdfrwt beam="1">  1        2 0.27238167E+00 0.15427208E+03</pdfrwt>
<pdfrwt beam="2">  1       -2 0.20892456E-02 0.15427208E+03</pdfrwt>
<totfact> 0.70253650E+03</totfact>
</mgrwt>
</event>
<event>
 4    1  0.5124795E-001  0.8357216E+02  0.7546771E-02  0.1319209E+00
         -1   -1    0    0    0  501 -0.00000000000E+00  0.00000000000E+00  0.13313399239E+02  0.13313399239E+02  0.00000000000E+00 0.  1.
          1   -1    0    0  501    0  0.00000000000E+00 -0.00000000000E+00 -0.52494905306E+03  0.52494905306E+03  0.00000000000E+00 0. -1.
         24    1    1    2    0    0 -0.86628009199E+01 -0.21024872888E+02 -0.24895010017E+03  0.26260323252E+03  0.80419002446E+02 0. -1.
        -24    1    1    2    0    0  0.86628009199E+01  0.21024872888E+02 -0.26268555365E+03  0.27565921979E+03  0.80419002446E+02 0.  0.
<mgrwt>
<rscale>  0 0.83572157E+02</rscale>
<asrwt>0</asrwt>
<pdfrwt beam="1">  1        1 0.80761385E-01 0.83572157E+02</pdfrwt>
<pdfrwt beam="2">  1       -1 0.20482155E-02 0.83572157E+02</pdfrwt>
<totfact> 0.24979655E+04</totfact>
</mgrwt>
</event>
<event>
 4    1  0.5124795E-001  0.8340229E+02  0.7546771E-02  0.1319664E+00
         -2   -1    0    0    0  501 -0.00000000000E+00  0.00000000000E+00  0.22885338462E+02  0.22885338462E+02  0.00000000000E+00 0.  1.
          2   -1    0    0  501    0  0.00000000000E+00 -0.00000000000E+00 -0.34581354904E+03  0.34581354904E+03  0.00000000000E+00 0. -1.
         24    1    1    2    0    0 -0.19243181065E+02 -0.10882367300E+02 -0.22560746587E+03  0.24052997848E+03  0.80419002446E+02 0.  1.
        -24    1    1    2    0    0  0.19243181065E+02  0.10882367300E+02 -0.97320744705E+02  0.12816890902E+03  0.80419002446E+02 0.  1.
<mgrwt>
<rscale>  0 0.83402289E+02</rscale>
<asrwt>0</asrwt>
<pdfrwt beam="1">  1        2 0.53202086E-01 0.83402289E+02</pdfrwt>
<pdfrwt beam="2">  1       -2 0.35208212E-02 0.83402289E+02</pdfrwt>
<totfact> 0.27529638E+04</totfact>
</mgrwt>
</event>
<event>
 4    1  0.5124795E-001  0.8376761E+02  0.7546771E-02  0.1318687E+00
          1   -1    0    0  501    0  0.00000000000E+00  0.00000000000E+00  0.32734481899E+04  0.32734481899E+04  0.00000000000E+00 0. -1.
         -1   -1    0    0    0  501 -0.00000000000E+00 -0.00000000000E+00 -0.21656947045E+01  0.21656947045E+01  0.00000000000E+00 0.  1.
         24    1    1    2    0    0  0.98146865339E+01  0.21294705346E+02  0.18010175035E+04  0.18029645189E+04  0.80419002446E+02 0. -1.
        -24    1    1    2    0    0 -0.98146865339E+01 -0.21294705346E+02  0.14702649916E+04  0.14726493656E+04  0.80419002446E+02 0.  1.
<mgrwt>
<rscale>  0 0.83767597E+02</rscale>
<asrwt>0</asrwt>
<pdfrwt beam="1">  1        1 0.50360346E+00 0.83767607E+02</pdfrwt>
<pdfrwt beam="2">  1       -1 0.33318642E-03 0.83767607E+02</pdfrwt>
<totfact> 0.41918458E+03</totfact>
</mgrwt>
</event>
<event>
 4    1  0.5124795E-001  0.1022866E+03  0.7546771E-02  0.1275560E+00
         -1   -1    0    0    0  501 -0.00000000000E+00  0.00000000000E+00  0.24826016657E+02  0.24826016657E+02  0.00000000000E+00 0.  1.
          1   -1    0    0  501    0  0.00000000000E+00 -0.00000000000E+00 -0.75735579952E+03  0.75735579952E+03  0.00000000000E+00 0. -1.
         24    1    1    2    0    0 -0.36855412713E+02  0.51351925412E+02 -0.10580188369E+03  0.14716180291E+03  0.80419002446E+02 0.  1.
        -24    1    1    2    0    0  0.36855412713E+02 -0.51351925412E+02 -0.62672789917E+03  0.63502001326E+03  0.80419002446E+02 0. -1.
<mgrwt>
<rscale>  0 0.10228664E+03</rscale>
<asrwt>0</asrwt>
<pdfrwt beam="1">  1        1 0.11651627E+00 0.10228664E+03</pdfrwt>
<pdfrwt beam="2">  1       -1 0.38193874E-02 0.10228664E+03</pdfrwt>
<totfact> 0.62852669E+03</totfact>
</mgrwt>
</event>
<event>
 4    1  0.5124795E-001  0.8637458E+02  0.7546771E-02  0.1311876E+00
         -1   -1    0    0    0  501 -0.00000000000E+00  0.00000000000E+00  0.17445248626E+03  0.17445248626E+03  0.00000000000E+00 0.  1.
          1   -1    0    0  501    0  0.00000000000E+00 -0.00000000000E+00 -0.48991797137E+02  0.48991797137E+02  0.00000000000E+00 0. -1.
         24    1    1    2    0    0  0.29637476208E+02 -0.10722539742E+02  0.10255832531E+03  0.13408496896E+03  0.80419002446E+02 0.  0.
        -24    1    1    2    0    0 -0.29637476208E+02  0.10722539742E+02  0.22902363806E+02  0.89359314437E+02  0.80419002446E+02 0.  0.
<mgrwt>
<rscale>  0 0.86374584E+02</rscale>
<asrwt>0</asrwt>
<pdfrwt beam="1">  1        1 0.75371997E-02 0.86374584E+02</pdfrwt>
<pdfrwt beam="2">  1       -1 0.26838844E-01 0.86374584E+02</pdfrwt>
<totfact> 0.10478425E+04</totfact>
</mgrwt>
</event>
<event>
 4    1  0.5124795E-001  0.8406095E+02  0.7546771E-02  0.1317907E+00
          2   -1    0    0  501    0  0.00000000000E+00  0.00000000000E+00  0.10248520117E+04  0.10248520117E+04  0.00000000000E+00 0. -1.
         -2   -1    0    0    0  501 -0.00000000000E+00 -0.00000000000E+00 -0.10521291320E+02  0.10521291320E+02  0.00000000000E+00 0.  1.
         24    1    1    2    0    0  0.17078580777E+01  0.24415385686E+02  0.81109304701E+03  0.81543741311E+03  0.80419002446E+02 0. -1.
        -24    1    1    2    0    0 -0.17078580777E+01 -0.24415385686E+02  0.20323767333E+03  0.21993588987E+03  0.80419002446E+02 0.  1.
<mgrwt>
<rscale>  0 0.84060953E+02</rscale>
<asrwt>0</asrwt>
<pdfrwt beam="1">  1        2 0.15766946E+00 0.84060953E+02</pdfrwt>
<pdfrwt beam="2">  1       -2 0.16186610E-02 0.84060953E+02</pdfrwt>
<totfact> 0.24411442E+04</totfact>
</mgrwt>
</event>
<event>
 4    1  0.5124795E-001  0.1516077E+03  0.7546771E-02  0.1198511E+00
         -2   -1    0    0    0  501 -0.00000000000E+00  0.00000000000E+00  0.51699563110E+02  0.51699563110E+02  0.00000000000E+00 0.  1.
          2   -1    0    0  501    0  0.00000000000E+00 -0.00000000000E+00 -0.11336272308E+04  0.11336272308E+04  0.00000000000E+00 0. -1.
         24    1    1    2    0    0 -0.37589183512E+02  0.12290135948E+03 -0.10030208258E+04  0.10144139608E+04  0.80419002446E+02 0. -1.
        -24    1    1    2    0    0  0.37589183512E+02 -0.12290135948E+03 -0.78906841891E+02  0.17091283313E+03  0.80419002446E+02 0.  1.
<mgrwt>
<rscale>  0 0.15160774E+03</rscale>
<asrwt>0</asrwt>
<pdfrwt beam="1">  1        2 0.17440419E+00 0.15160774E+03</pdfrwt>
<pdfrwt beam="2">  1       -2 0.79537789E-02 0.15160774E+03</pdfrwt>
<totfact> 0.20741003E+03</totfact>
</mgrwt>
</event>
<event>
 4    1  0.5124795E-001  0.1207338E+03  0.7546771E-02  0.1241891E+00
          2   -1    0    0  501    0  0.00000000000E+00  0.00000000000E+00  0.22874105272E+04  0.22874105272E+04  0.00000000000E+00 0. -1.
         -2   -1    0    0    0  501 -0.00000000000E+00 -0.00000000000E+00 -0.11505905748E+02  0.11505905748E+02  0.00000000000E+00 0.  1.
         24    1    1    2    0    0 -0.86792426086E+02  0.24010368220E+02  0.19057263895E+04  0.19095469909E+04  0.80419002446E+02 0. -1.
        -24    1    1    2    0    0  0.86792426086E+02 -0.24010368220E+02  0.37017823202E+03  0.38936944208E+03  0.80419002446E+02 0.  1.
<mgrwt>
<rscale>  0 0.12073375E+03</rscale>
<asrwt>0</asrwt>
<pdfrwt beam="1">  1        2 0.35190895E+00 0.12073375E+03</pdfrwt>
<pdfrwt beam="2">  1       -2 0.17701412E-02 0.12073375E+03</pdfrwt>
<totfact> 0.48268180E+03</totfact>
</mgrwt>
</event>
<event>
 4    1  0.5124795E-001  0.8926611E+02  0.7546771E-02  0.1304639E+00
         -2   -1    0    0    0  501 -0.00000000000E+00  0.00000000000E+00  0.97809125903E+01  0.97809125903E+01  0.00000000000E+00 0.  1.
          2   -1    0    0  501    0  0.00000000000E+00 -0.00000000000E+00 -0.95087363774E+03  0.95087363774E+03  0.00000000000E+00 0. -1.
         24    1    1    2    0    0  0.35059204008E+02  0.16494688517E+02 -0.65232127311E+03  0.65840070006E+03  0.80419002446E+02 0. -1.
        -24    1    1    2    0    0 -0.35059204008E+02 -0.16494688517E+02 -0.28877145204E+03  0.30225385027E+03  0.80419002446E+02 0.  1.
<mgrwt>
<rscale>  0 0.89266111E+02</rscale>
<asrwt>0</asrwt>
<pdfrwt beam="1">  1        2 0.14628830E+00 0.89266111E+02</pdfrwt>
<pdfrwt beam="2">  1       -2 0.15047553E-02 0.89266111E+02</pdfrwt>
<totfact> 0.30117624E+04</totfact>
</mgrwt>
</event>
<event>
 4    1  0.5124795E-001  0.1225097E+03  0.7546771E-02  0.1239013E+00
          2   -1    0    0  501    0  0.00000000000E+00  0.00000000000E+00  0.25684624897E+04  0.25684624897E+04  0.00000000000E+00 0. -1.
         -2   -1    0    0    0  501 -0.00000000000E+00 -0.00000000000E+00 -0.10589127591E+02  0.10589127591E+02  0.00000000000E+00 0.  1.
         24    1    1    2    0    0  0.89499688520E+02  0.23048259201E+02  0.21422132392E+04  0.21457134466E+04  0.80419002446E+02 0. -1.
        -24    1    1    2    0    0 -0.89499688520E+02 -0.23048259201E+02  0.41566012282E+03  0.43333817067E+03  0.80419002446E+02 0.  1.
<mgrwt>
<rscale>  0 0.12250972E+03</rscale>
<asrwt>0</asrwt>
<pdfrwt beam="1">  1        2 0.39514758E+00 0.12250972E+03</pdfrwt>
<pdfrwt beam="2">  1       -2 0.16290986E-02 0.12250972E+03</pdfrwt>
<totfact> 0.38682192E+03</totfact>
</mgrwt>
</event>
<event>
 4    1  0.5124795E-001  0.1318258E+03  0.7546771E-02  0.1224771E+00
          2   -1    0    0  501    0  0.00000000000E+00  0.00000000000E+00  0.25320196398E+04  0.25320196398E+04  0.00000000000E+00 0. -1.
         -2   -1    0    0    0  501 -0.00000000000E+00 -0.00000000000E+00 -0.70164773713E+01  0.70164773713E+01  0.00000000000E+00 0.  1.
         24    1    1    2    0    0  0.99175211322E+02 -0.32788816578E+02  0.10749342257E+04  0.10829873659E+04  0.80419002446E+02 0. -1.
        -24    1    1    2    0    0 -0.99175211322E+02  0.32788816578E+02  0.14500689367E+04  0.14560487513E+04  0.80419002446E+02 0.  0.
<mgrwt>
<rscale>  0 0.13182583E+03</rscale>
<asrwt>0</asrwt>
<pdfrwt beam="1">  1        2 0.38954075E+00 0.13182585E+03</pdfrwt>
<pdfrwt beam="2">  1       -2 0.10794601E-02 0.13182585E+03</pdfrwt>
<totfact> 0.73084392E+03</totfact>
</mgrwt>
</event>
<event>
 4    1  0.5124795E-001  0.9065365E+02  0.7546771E-02  0.1301276E+00
         -1   -1    0    0    0  501 -0.00000000000E+00  0.00000000000E+00  0.28573307118E+03  0.28573307118E+03  0.00000000000E+00 0.  1.
          1   -1    0    0  501    0  0.00000000000E+00 -0.00000000000E+00 -0.36449755003E+02  0.36449755003E+02  0.00000000000E+00 0. -1.
         24    1    1    2    0    0  0.20566114606E+02 -0.36440397684E+02  0.19862633023E+03  0.21833575673E+03  0.80419002446E+02 0.  1.
        -24    1    1    2    0    0 -0.20566114606E+02  0.36440397684E+02  0.50656985945E+02  0.10384706945E+03  0.80419002446E+02 0. -1.
<mgrwt>
<rscale>  0 0.90653646E+02</rscale>
<asrwt>0</asrwt>
<pdfrwt beam="1">  1        1 0.56076548E-02 0.90653646E+02</pdfrwt>
<pdfrwt beam="2">  1       -1 0.43958933E-01 0.90653646E+02</pdfrwt>
<totfact> 0.67727363E+03</totfact>
</mgrwt>
</event>
<event>
 4    1  0.5124795E-001  0.9180896E+02  0.7546771E-02  0.1298529E+00
          2   -1    0    0  501    0  0.00000000000E+00  0.00000000000E+00  0.17533510122E+04  0.17533510122E+04  0.00000000000E+00 0. -1.
         -2   -1    0    0    0  501 -0.00000000000E+00 -0.00000000000E+00 -0.16259117953E+02  0.16259117953E+02  0.00000000000E+00 0.  1.
         24    1    1    2    0    0 -0.37176416405E+02  0.24074550051E+02  0.16111140848E+04  0.16137278209E+04  0.80419002446E+02 0. -1.
        -24    1    1    2    0    0  0.37176416405E+02 -0.24074550051E+02  0.12597780945E+03  0.15588230921E+03  0.80419002446E+02 0.  1.
<mgrwt>
<rscale>  0 0.91808964E+02</rscale>
<asrwt>0</asrwt>
<pdfrwt beam="1">  1        2 0.26974616E+00 0.91808964E+02</pdfrwt>
<pdfrwt beam="2">  1       -2 0.25014041E-02 0.91808964E+02</pdfrwt>
<totfact> 0.54423428E+03</totfact>
</mgrwt>
</event>
<event>
 4    1  0.5124795E-001  0.8414487E+02  0.7546771E-02  0.1317684E+00
          2   -1    0    0  501    0  0.00000000000E+00  0.00000000000E+00  0.68919920512E+03  0.68919920512E+03  0.00000000000E+00 0. -1.
         -2   -1    0    0    0  501 -0.00000000000E+00 -0.00000000000E+00 -0.10772268791E+02  0.10772268791E+02  0.00000000000E+00 0.  1.
         24    1    1    2    0    0  0.90414532015E+01 -0.23052012937E+02  0.41453650188E+03  0.42299039058E+03  0.80419002446E+02 0.  0.
        -24    1    1    2    0    0 -0.90414532015E+01  0.23052012937E+02  0.26389043445E+03  0.27698108334E+03  0.80419002446E+02 0. -1.
<mgrwt>
<rscale>  0 0.84144870E+02</rscale>
<asrwt>0</asrwt>
<pdfrwt beam="1">  1        2 0.10603061E+00 0.84144870E+02</pdfrwt>
<pdfrwt beam="2">  1       -2 0.16572727E-02 0.84144870E+02</pdfrwt>
<totfact> 0.38720854E+04</totfact>
</mgrwt>
</event>
<event>
 4    1  0.5124795E-001  0.8428241E+02  0.7546771E-02  0.1317320E+00
          2   -1    0    0  501    0  0.00000000000E+00  0.00000000000E+00  0.17706066783E+04  0.17706066783E+04  0.00000000000E+00 0. -1.
         -2   -1    0    0    0  501 -0.00000000000E+00 -0.00000000000E+00 -0.56236868410E+01  0.56236868410E+01  0.00000000000E+00 0.  1.
         24    1    1    2    0    0  0.14354212570E+02  0.20742821287E+02  0.13579476496E+04  0.13605606724E+04  0.80419002446E+02 0.  0.
        -24    1    1    2    0    0 -0.14354212570E+02 -0.20742821287E+02  0.40703534183E+03  0.41566969279E+03  0.80419002446E+02 0.  0.
<mgrwt>
<rscale>  0 0.84282406E+02</rscale>
<asrwt>0</asrwt>
<pdfrwt beam="1">  1        2 0.27240058E+00 0.84282406E+02</pdfrwt>
<pdfrwt beam="2">  1       -2 0.86518400E-03 0.84282406E+02</pdfrwt>
<totfact> 0.24130545E+04</totfact>
</mgrwt>
</event>
<event>
 4    1  0.5124795E-001  0.8769248E+02  0.7546771E-02  0.1308538E+00
         -4   -1    0    0    0  501 -0.00000000000E+00  0.00000000000E+00  0.46333154246E+03  0.46333154246E+03  0.00000000000E+00 0.  1.
          4   -1    0    0  501    0  0.00000000000E+00 -0.00000000000E+00 -0.26386339418E+02  0.26386339418E+02  0.00000000000E+00 0. -1.
         24    1    1    2    0    0 -0.18287166324E+02  0.29804957742E+02  0.69330486873E+02  0.11178858762E+03  0.80419002446E+02 0. -1.
        -24    1    1    2    0    0  0.18287166324E+02 -0.29804957742E+02  0.36761471616E+03  0.37792929425E+03  0.80419002446E+02 0.  1.
<mgrwt>
<rscale>  0 0.87692485E+02</rscale>
<asrwt>0</asrwt>
<pdfrwt beam="1">  1        4 0.40594372E-02 0.87692485E+02</pdfrwt>
<pdfrwt beam="2">  1       -4 0.71281770E-01 0.87692485E+02</pdfrwt>
<totfact> 0.91584592E+02</totfact>
</mgrwt>
</event>
<event>
 4    1  0.5124795E-001  0.8761524E+02  0.7546771E-02  0.1308732E+00
         -2   -1    0    0    0  501 -0.00000000000E+00  0.00000000000E+00  0.93329979011E+01  0.93329979011E+01  0.00000000000E+00 0.  1.
          2   -1    0    0  501    0  0.00000000000E+00 -0.00000000000E+00 -0.14252204824E+04  0.14252204824E+04  0.00000000000E+00 0. -1.
         24    1    1    2    0    0 -0.16934524896E+02 -0.30371624961E+02 -0.11743906229E+04  0.11776543486E+04  0.80419002446E+02 0. -1.
        -24    1    1    2    0    0  0.16934524896E+02  0.30371624961E+02 -0.24149686157E+03  0.25689913164E+03  0.80419002446E+02 0.  1.
<mgrwt>
<rscale>  0 0.87615237E+02</rscale>
<asrwt>0</asrwt>
<pdfrwt beam="1">  1        2 0.21926456E+00 0.87615237E+02</pdfrwt>
<pdfrwt beam="2">  1       -2 0.14358467E-02 0.87615237E+02</pdfrwt>
<totfact> 0.17654155E+04</totfact>
</mgrwt>
</event>
<event>
 4    1  0.5124795E-001  0.1195942E+03  0.7546771E-02  0.1243768E+00
         -1   -1    0    0    0  501 -0.00000000000E+00  0.00000000000E+00  0.76830144429E+01  0.76830144429E+01  0.00000000000E+00 0.  1.
          1   -1    0    0  501    0  0.00000000000E+00 -0.00000000000E+00 -0.19467686839E+04  0.19467686839E+04  0.00000000000E+00 0. -1.
         24    1    1    2    0    0 -0.87627258117E+02 -0.12530620374E+02 -0.76515510800E+03  0.77444503231E+03  0.80419002446E+02 0.  1.
        -24    1    1    2    0    0  0.87627258117E+02  0.12530620374E+02 -0.11739305614E+04  0.11800066660E+04  0.80419002446E+02 0. -1.
<mgrwt>
<rscale>  0 0.11959418E+03</rscale>
<asrwt>0</asrwt>
<pdfrwt beam="1">  1        1 0.29950293E+00 0.11959418E+03</pdfrwt>
<pdfrwt beam="2">  1       -1 0.11820020E-02 0.11959418E+03</pdfrwt>
<totfact> 0.53054972E+03</totfact>
</mgrwt>
</event>
<event>
 4    1  0.5124795E-001  0.8296932E+02  0.7546771E-02  0.1320830E+00
         -2   -1    0    0    0  501 -0.00000000000E+00  0.00000000000E+00  0.42980703897E+02  0.42980703897E+02  0.00000000000E+00 0.  1.
          2   -1    0    0  501    0  0.00000000000E+00 -0.00000000000E+00 -0.59092861291E+03  0.59092861291E+03  0.00000000000E+00 0. -1.
         24    1    1    2    0    0 -0.20408426058E+02  0.43293276437E+00 -0.54458796340E+03  0.55087199704E+03  0.80419002446E+02 0. -1.
        -24    1    1    2    0    0  0.20408426058E+02 -0.43293276437E+00 -0.33599456083E+01  0.83037319765E+02  0.80419002446E+02 0.  1.
<mgrwt>
<rscale>  0 0.82969315E+02</rscale>
<asrwt>0</asrwt>
<pdfrwt beam="1">  1        2 0.90912087E-01 0.82969315E+02</pdfrwt>
<pdfrwt beam="2">  1       -2 0.66124165E-02 0.82969315E+02</pdfrwt>
<totfact> 0.61121230E+03</totfact>
</mgrwt>
</event>
<event>
 4    1  0.5124795E-001  0.8298095E+02  0.7546771E-02  0.1320799E+00
         -2   -1    0    0    0  501 -0.00000000000E+00  0.00000000000E+00  0.43750396118E+02  0.43750396118E+02  0.00000000000E+00 0.  1.
          2   -1    0    0  501    0  0.00000000000E+00 -0.00000000000E+00 -0.15911580370E+03  0.15911580370E+03  0.00000000000E+00 0. -1.
         24    1    1    2    0    0  0.47539068097E+01  0.19900234991E+02 -0.47116147268E+02  0.95424138824E+02  0.80419002446E+02 0.  0.
        -24    1    1    2    0    0 -0.47539068097E+01 -0.19900234991E+02 -0.68249260313E+02  0.10744206099E+03  0.80419002446E+02 0.  1.
<mgrwt>
<rscale>  0 0.82980942E+02</rscale>
<asrwt>0</asrwt>
<pdfrwt beam="1">  1        2 0.24479354E-01 0.82980952E+02</pdfrwt>
<pdfrwt beam="2">  1       -2 0.67308302E-02 0.82980952E+02</pdfrwt>
<totfact> 0.23921019E+04</totfact>
</mgrwt>
</event>
<event>
 4    1  0.5124795E-001  0.1077668E+03  0.7546771E-02  0.1264762E+00
          1   -1    0    0  501    0  0.00000000000E+00  0.00000000000E+00  0.14323610130E+03  0.14323610130E+03  0.00000000000E+00 0. -1.
         -1   -1    0    0    0  501 -0.00000000000E+00 -0.00000000000E+00 -0.83366866870E+02  0.83366866870E+02  0.00000000000E+00 0.  1.
         24    1    1    2    0    0  0.71238806600E+02  0.84552624799E+01  0.11171785837E+02  0.10834428357E+03  0.80419002446E+02 0.  1.
        -24    1    1    2    0    0 -0.71238806600E+02 -0.84552624799E+01  0.48697448595E+02  0.11825868460E+03  0.80419002446E+02 0. -1.
<mgrwt>
<rscale>  0 0.10776676E+03</rscale>
<asrwt>0</asrwt>
<pdfrwt beam="1">  1        1 0.22036323E-01 0.10776676E+03</pdfrwt>
<pdfrwt beam="2">  1       -1 0.12825672E-01 0.10776676E+03</pdfrwt>
<totfact> 0.86021372E+03</totfact>
</mgrwt>
</event>
<event>
 4    1  0.5124795E-001  0.1029107E+03  0.7546771E-02  0.1274292E+00
          1   -1    0    0  501    0  0.00000000000E+00  0.00000000000E+00  0.12133890642E+03  0.12133890642E+03  0.00000000000E+00 0. -1.
         -1   -1    0    0    0  501 -0.00000000000E+00 -0.00000000000E+00 -0.23464752374E+03  0.23464752374E+03  0.00000000000E+00 0.  1.
         24    1    1    2    0    0 -0.40071090015E+02  0.50176646345E+02 -0.19771129493E+03  0.22289091545E+03  0.80419002446E+02 0.  1.
        -24    1    1    2    0    0  0.40071090015E+02 -0.50176646345E+02  0.84402677607E+02  0.13309551471E+03  0.80419002446E+02 0. -1.
<mgrwt>
<rscale>  0 0.10291066E+03</rscale>
<asrwt>0</asrwt>
<pdfrwt beam="1">  1        1 0.18667524E-01 0.10291066E+03</pdfrwt>
<pdfrwt beam="2">  1       -1 0.36099618E-01 0.10291066E+03</pdfrwt>
<totfact> 0.19921232E+03</totfact>
</mgrwt>
</event>
<event>
 4    1  0.5124795E-001  0.9633418E+02  0.7546771E-02  0.1288199E+00
         -2   -1    0    0    0  501 -0.00000000000E+00  0.00000000000E+00  0.14046770933E+02  0.14046770933E+02  0.00000000000E+00 0.  1.
          2   -1    0    0  501    0  0.00000000000E+00 -0.00000000000E+00 -0.10626374588E+04  0.10626374588E+04  0.00000000000E+00 0. -1.
         24    1    1    2    0    0 -0.52384811445E+02  0.82999852585E+01 -0.85539709199E+03  0.86080454179E+03  0.80419002446E+02 0. -1.
        -24    1    1    2    0    0  0.52384811445E+02 -0.82999852585E+01 -0.19319359589E+03  0.21587968796E+03  0.80419002446E+02 0.  1.
<mgrwt>
<rscale>  0 0.96334180E+02</rscale>
<asrwt>0</asrwt>
<pdfrwt beam="1">  1        2 0.16348268E+00 0.96334180E+02</pdfrwt>
<pdfrwt beam="2">  1       -2 0.21610418E-02 0.96334180E+02</pdfrwt>
<totfact> 0.15520411E+04</totfact>
</mgrwt>
</event>
<event>
 4    1  0.5124795E-001  0.8766265E+02  0.7546771E-02  0.1308613E+00
          3   -1    0    0  501    0  0.00000000000E+00  0.00000000000E+00  0.54127435282E+03  0.54127435282E+03  0.00000000000E+00 0. -1.
         -3   -1    0    0    0  501 -0.00000000000E+00 -0.00000000000E+00 -0.18581844740E+02  0.18581844740E+02  0.00000000000E+00 0.  1.
         24    1    1    2    0    0 -0.16544456674E+02  0.30721410747E+02  0.12537263352E+03  0.15298051286E+03  0.80419002446E+02 0.  0.
        -24    1    1    2    0    0  0.16544456674E+02 -0.30721410747E+02  0.39731987456E+03  0.40687568469E+03  0.80419002446E+02 0.  1.
<mgrwt>
<rscale>  0 0.87662649E+02</rscale>
<asrwt>0</asrwt>
<pdfrwt beam="1">  1        3 0.83272965E-01 0.87662649E+02</pdfrwt>
<pdfrwt beam="2">  1       -3 0.28587458E-02 0.87662649E+02</pdfrwt>
<totfact> 0.15916156E+03</totfact>
</mgrwt>
</event>
<event>
 4    1  0.5124795E-001  0.8298343E+02  0.7546771E-02  0.1320792E+00
         -2   -1    0    0    0  501 -0.00000000000E+00  0.00000000000E+00  0.22564027616E+03  0.22564027616E+03  0.00000000000E+00 0.  1.
          2   -1    0    0  501    0  0.00000000000E+00 -0.00000000000E+00 -0.31855887213E+02  0.31855887213E+02  0.00000000000E+00 0. -1.
         24    1    1    2    0    0 -0.19504108556E+02  0.62147541389E+01  0.70514249488E+02  0.10889678028E+03  0.80419002446E+02 0. -1.
        -24    1    1    2    0    0  0.19504108556E+02 -0.62147541389E+01  0.12327013946E+03  0.14859938310E+03  0.80419002446E+02 0.  1.
<mgrwt>
<rscale>  0 0.82983428E+02</rscale>
<asrwt>0</asrwt>
<pdfrwt beam="1">  1        2 0.49009059E-02 0.82983428E+02</pdfrwt>
<pdfrwt beam="2">  1       -2 0.34713888E-01 0.82983428E+02</pdfrwt>
<totfact> 0.11182466E+04</totfact>
</mgrwt>
</event>
<event>
 4    1  0.5124795E-001  0.9993363E+02  0.7546771E-02  0.1280436E+00
          1   -1    0    0  501    0  0.00000000000E+00  0.00000000000E+00  0.46260701421E+03  0.46260701421E+03  0.00000000000E+00 0. -1.
         -1   -1    0    0    0  501 -0.00000000000E+00 -0.00000000000E+00 -0.22135334692E+02  0.22135334692E+02  0.00000000000E+00 0.  1.
         24    1    1    2    0    0 -0.34606515009E+02 -0.48186074938E+02  0.25835075090E+03  0.27700511754E+03  0.80419002446E+02 0.  0.
        -24    1    1    2    0    0  0.34606515009E+02  0.48186074938E+02  0.18212092863E+03  0.20773723137E+03  0.80419002446E+02 0. -1.
<mgrwt>
<rscale>  0 0.99933614E+02</rscale>
<asrwt>0</asrwt>
<pdfrwt beam="1">  1        1 0.71170303E-01 0.99933626E+02</pdfrwt>
<pdfrwt beam="2">  1       -1 0.34054365E-02 0.99933626E+02</pdfrwt>
<totfact> 0.14407788E+04</totfact>
</mgrwt>
</event>
<event>
 4    1  0.5124795E-001  0.9714096E+02  0.7546771E-02  0.1286426E+00
          1   -1    0    0  501    0  0.00000000000E+00  0.00000000000E+00  0.17122362449E+03  0.17122362449E+03  0.00000000000E+00 0. -1.
         -1   -1    0    0    0  501 -0.00000000000E+00 -0.00000000000E+00 -0.55515437885E+02  0.55515437885E+02  0.00000000000E+00 0.  1.
         24    1    1    2    0    0  0.53339245726E+02  0.11138931473E+02  0.48181971069E+02  0.10843370887E+03  0.80419002446E+02 0.  1.
        -24    1    1    2    0    0 -0.53339245726E+02 -0.11138931473E+02  0.67526215538E+02  0.11830535351E+03  0.80419002446E+02 0. -1.
<mgrwt>
<rscale>  0 0.97140964E+02</rscale>
<asrwt>0</asrwt>
<pdfrwt beam="1">  1        1 0.26342096E-01 0.97140964E+02</pdfrwt>
<pdfrwt beam="2">  1       -1 0.85408367E-02 0.97140964E+02</pdfrwt>
<totfact> 0.12652664E+04</totfact>
</mgrwt>
</event>
<event>
 4    1  0.5124795E-001  0.1039447E+03  0.7546771E-02  0.1272213E+00
          2   -1    0    0  501    0  0.00000000000E+00  0.00000000000E+00  0.73780325713E+03  0.73780325713E+03  0.00000000000E+00 0. -1.
         -2   -1    0    0    0  501 -0.00000000000E+00 -0.00000000000E+00 -0.43855880498E+02  0.43855880498E+02  0.00000000000E+00 0.  1.
         24    1    1    2    0    0  0.16293855364E+02 -0.63810624175E+02  0.66594537881E+03  0.67400871581E+03  0.80419002446E+02 0. -1.
        -24    1    1    2    0    0 -0.16293855364E+02  0.63810624175E+02  0.28001997822E+02  0.10765042181E+03  0.80419002446E+02 0.  1.
<mgrwt>
<rscale>  0 0.10394470E+03</rscale>
<asrwt>0</asrwt>
<pdfrwt beam="1">  1        2 0.11350818E+00 0.10394470E+03</pdfrwt>
<pdfrwt beam="2">  1       -2 0.67470591E-02 0.10394470E+03</pdfrwt>
<totfact> 0.46535843E+03</totfact>
</mgrwt>
</event>
<event>
 4    1  0.5124795E-001  0.8308550E+02  0.7546771E-02  0.1320516E+00
          1   -1    0    0  501    0  0.00000000000E+00  0.00000000000E+00  0.35827066556E+03  0.35827066556E+03  0.00000000000E+00 0. -1.
         -1   -1    0    0    0  501 -0.00000000000E+00 -0.00000000000E+00 -0.19274219526E+02  0.19274219526E+02  0.00000000000E+00 0.  1.
         24    1    1    2    0    0 -0.91426910507E+01  0.18772203400E+02  0.16613870301E+03  0.18575593938E+03  0.80419002446E+02 0.  1.
        -24    1    1    2    0    0  0.91426910507E+01 -0.18772203400E+02  0.17285774302E+03  0.19178894571E+03  0.80419002446E+02 0. -1.
<mgrwt>
<rscale>  0 0.83085500E+02</rscale>
<asrwt>0</asrwt>
<pdfrwt beam="1">  1        1 0.55118559E-01 0.83085500E+02</pdfrwt>
<pdfrwt beam="2">  1       -1 0.29652648E-02 0.83085500E+02</pdfrwt>
<totfact> 0.23744514E+04</totfact>
</mgrwt>
</event>
<event>
 4    1  0.5124795E-001  0.1006588E+03  0.7546771E-02  0.1278917E+00
         -3   -1    0    0    0  501 -0.00000000000E+00  0.00000000000E+00  0.17188409877E+02  0.17188409877E+02  0.00000000000E+00 0.  1.
          3   -1    0    0  501    0  0.00000000000E+00 -0.00000000000E+00 -0.15224166397E+04  0.15224166397E+04  0.00000000000E+00 0. -1.
         24    1    1    2    0    0  0.53398070479E+02  0.28523944429E+02 -0.15000018410E+03  0.18064396066E+03  0.80419002446E+02 0.  1.
        -24    1    1    2    0    0 -0.53398070479E+02 -0.28523944429E+02 -0.13552280457E+04  0.13589610889E+04  0.80419002446E+02 0. -1.
<mgrwt>
<rscale>  0 0.10065876E+03</rscale>
<asrwt>0</asrwt>
<pdfrwt beam="1">  1        3 0.23421800E+00 0.10065876E+03</pdfrwt>
<pdfrwt beam="2">  1       -3 0.26443701E-02 0.10065876E+03</pdfrwt>
<totfact> 0.14460794E+02</totfact>
</mgrwt>
</event>
<event>
 4    1  0.5124795E-001  0.8145571E+02  0.7546771E-02  0.1324970E+00
          2   -1    0    0  501    0  0.00000000000E+00  0.00000000000E+00  0.28734031252E+02  0.28734031252E+02  0.00000000000E+00 0. -1.
         -2   -1    0    0    0  501 -0.00000000000E+00 -0.00000000000E+00 -0.53095147168E+03  0.53095147168E+03  0.00000000000E+00 0.  1.
         24    1    1    2    0    0  0.44663921248E+01  0.12160122666E+02 -0.40742584461E+02  0.91076843296E+02  0.80419002446E+02 0. -1.
        -24    1    1    2    0    0 -0.44663921248E+01 -0.12160122666E+02 -0.46147485597E+03  0.46860865964E+03  0.80419002446E+02 0.  1.
<mgrwt>
<rscale>  0 0.81455713E+02</rscale>
<asrwt>0</asrwt>
<pdfrwt beam="1">  1        2 0.44206203E-02 0.81455713E+02</pdfrwt>
<pdfrwt beam="2">  1       -2 0.81684840E-01 0.81455713E+02</pdfrwt>
<totfact> 0.23246325E+03</totfact>
</mgrwt>
</event>
<event>
 4    1  0.5124795E-001  0.8227553E+02  0.7546771E-02  0.1322715E+00
         -1   -1    0    0    0  501 -0.00000000000E+00  0.00000000000E+00  0.75249907403E+01  0.75249907403E+01  0.00000000000E+00 0.  1.
          1   -1    0    0  501    0  0.00000000000E+00 -0.00000000000E+00 -0.12311240164E+04  0.12311240164E+04  0.00000000000E+00 0. -1.
         24    1    1    2    0    0  0.11399687273E+02 -0.13118467502E+02 -0.29040097940E+03  0.30183106508E+03  0.80419002446E+02 0.  1.
        -24    1    1    2    0    0 -0.11399687273E+02  0.13118467502E+02 -0.93319804628E+03  0.93681794207E+03  0.80419002446E+02 0.  0.
<mgrwt>
<rscale>  0 0.82275531E+02</rscale>
<asrwt>0</asrwt>
<pdfrwt beam="1">  1        1 0.18940368E+00 0.82275531E+02</pdfrwt>
<pdfrwt beam="2">  1       -1 0.11576909E-02 0.82275531E+02</pdfrwt>
<totfact> 0.15374412E+04</totfact>
</mgrwt>
</event>
<event>
 4    1  0.5124795E-001  0.9340283E+02  0.7546771E-02  0.1294814E+00
         -1   -1    0    0    0  501 -0.00000000000E+00  0.00000000000E+00  0.78774251836E+02  0.78774251836E+02  0.00000000000E+00 0.  1.
          1   -1    0    0  501    0  0.00000000000E+00 -0.00000000000E+00 -0.59107887576E+03  0.59107887576E+03  0.00000000000E+00 0. -1.
         24    1    1    2    0    0 -0.45796326325E+02 -0.12632097102E+02  0.45771339475E+02  0.10401492611E+03  0.80419002446E+02 0.  1.
        -24    1    1    2    0    0  0.45796326325E+02  0.12632097102E+02 -0.55807596340E+03  0.56583820149E+03  0.80419002446E+02 0. -1.
<mgrwt>
<rscale>  0 0.93402834E+02</rscale>
<asrwt>0</asrwt>
<pdfrwt beam="1">  1        1 0.90935214E-01 0.93402834E+02</pdfrwt>
<pdfrwt beam="2">  1       -1 0.12119115E-01 0.93402834E+02</pdfrwt>
<totfact> 0.15880400E+03</totfact>
</mgrwt>
</event>
<event>
 4    1  0.5124795E-001  0.8751560E+02  0.7546771E-02  0.1308982E+00
          3   -1    0    0  501    0  0.00000000000E+00  0.00000000000E+00  0.11170517028E+03  0.11170517028E+03  0.00000000000E+00 0. -1.
         -3   -1    0    0    0  501 -0.00000000000E+00 -0.00000000000E+00 -0.18136176608E+03  0.18136176608E+03  0.00000000000E+00 0.  1.
         24    1    1    2    0    0  0.22437070309E+02 -0.26236266602E+02 -0.15038995313E+03  0.17400033841E+03  0.80419002446E+02 0.  1.
        -24    1    1    2    0    0 -0.22437070309E+02  0.26236266602E+02  0.80733357325E+02  0.11906659795E+03  0.80419002446E+02 0. -1.
<mgrwt>
<rscale>  0 0.87515597E+02</rscale>
<asrwt>0</asrwt>
<pdfrwt beam="1">  1        3 0.17185411E-01 0.87515597E+02</pdfrwt>
<pdfrwt beam="2">  1       -3 0.27901809E-01 0.87515597E+02</pdfrwt>
<totfact> 0.77268897E+02</totfact>
</mgrwt>
</event>
<event>
 4    1  0.5124795E-001  0.8533580E+02  0.7546771E-02  0.1314557E+00
         -2   -1    0    0    0  501 -0.00000000000E+00  0.00000000000E+00  0.26287674909E+02  0.26287674909E+02  0.00000000000E+00 0.  1.
          2   -1    0    0  501    0  0.00000000000E+00 -0.00000000000E+00 -0.75854709466E+03  0.75854709466E+03  0.00000000000E+00 0. -1.
         24    1    1    2    0    0 -0.26677256290E+02 -0.10163968020E+02 -0.67878628096E+03  0.68412938354E+03  0.80419002446E+02 0. -1.
        -24    1    1    2    0    0  0.26677256290E+02  0.10163968020E+02 -0.53473138793E+02  0.10070538603E+03  0.80419002446E+02 0.  0.
<mgrwt>
<rscale>  0 0.85335797E+02</rscale>
<asrwt>0</asrwt>
<pdfrwt beam="1">  1        2 0.11669954E+00 0.85335797E+02</pdfrwt>
<pdfrwt beam="2">  1       -2 0.40442583E-02 0.85335797E+02</pdfrwt>
<totfact> 0.95420569E+03</totfact>
</mgrwt>
</event>
<event>
 4    1  0.5124795E-001  0.8108773E+02  0.7546771E-02  0.1325993E+00
          2   -1    0    0  501    0  0.00000000000E+00  0.00000000000E+00  0.81775698659E+03  0.81775698659E+03  0.00000000000E+00 0. -1.
         -2   -1    0    0    0  501 -0.00000000000E+00 -0.00000000000E+00 -0.30665605213E+03  0.30665605213E+03  0.00000000000E+00 0.  1.
         24    1    1    2    0    0 -0.10177417470E+02  0.21033855270E+01  0.81033747042E+03  0.81438445220E+03  0.80419002446E+02 0. -1.
        -24    1    1    2    0    0  0.10177417470E+02 -0.21033855270E+01 -0.29923653595E+03  0.31002858652E+03  0.80419002446E+02 0.  1.
<mgrwt>
<rscale>  0 0.81087730E+02</rscale>
<asrwt>0</asrwt>
<pdfrwt beam="1">  1        2 0.12580877E+00 0.81087730E+02</pdfrwt>
<pdfrwt beam="2">  1       -2 0.47177855E-01 0.81087730E+02</pdfrwt>
<totfact> 0.15741970E+02</totfact>
</mgrwt>
</event>
<event>
 4    1  0.5124795E-001  0.8596584E+02  0.7546771E-02  0.1312926E+00
          2   -1    0    0  501    0  0.00000000000E+00  0.00000000000E+00  0.18417577158E+04  0.18417577158E+04  0.00000000000E+00 0. -1.
         -2   -1    0    0    0  501 -0.00000000000E+00 -0.00000000000E+00 -0.64310919618E+01  0.64310919618E+01  0.00000000000E+00 0.  1.
         24    1    1    2    0    0 -0.19460953913E+02  0.23327680884E+02  0.14843613989E+04  0.14868486433E+04  0.80419002446E+02 0. -1.
        -24    1    1    2    0    0  0.19460953913E+02 -0.23327680884E+02  0.35096522495E+03  0.36134016453E+03  0.80419002446E+02 0.  0.
<mgrwt>
<rscale>  0 0.85965838E+02</rscale>
<asrwt>0</asrwt>
<pdfrwt beam="1">  1        2 0.28334692E+00 0.85965838E+02</pdfrwt>
<pdfrwt beam="2">  1       -2 0.98940024E-03 0.85965838E+02</pdfrwt>
<totfact> 0.18423709E+04</totfact>
</mgrwt>
</event>
<event>
 4    1  0.5124795E-001  0.8381699E+02  0.7546771E-02  0.1318556E+00
         -2   -1    0    0    0  501 -0.00000000000E+00  0.00000000000E+00  0.12483353361E+02  0.12483353361E+02  0.00000000000E+00 0.  1.
          2   -1    0    0  501    0  0.00000000000E+00 -0.00000000000E+00 -0.69893334620E+03  0.69893334620E+03  0.00000000000E+00 0. -1.
         24    1    1    2    0    0  0.10473975636E+02 -0.21174704294E+02 -0.50022594236E+03  0.50719944956E+03  0.80419002446E+02 0. -1.
        -24    1    1    2    0    0 -0.10473975636E+02  0.21174704294E+02 -0.18622405047E+03  0.20421725000E+03  0.80419002446E+02 0.  0.
<mgrwt>
<rscale>  0 0.83816992E+02</rscale>
<asrwt>0</asrwt>
<pdfrwt beam="1">  1        2 0.10752822E+00 0.83816992E+02</pdfrwt>
<pdfrwt beam="2">  1       -2 0.19205157E-02 0.83816992E+02</pdfrwt>
<totfact> 0.30846266E+04</totfact>
</mgrwt>
</event>
<event>
 4    1  0.5124795E-001  0.8326790E+02  0.7546771E-02  0.1320025E+00
          2   -1    0    0  501    0  0.00000000000E+00  0.00000000000E+00  0.15021598250E+04  0.15021598250E+04  0.00000000000E+00 0. -1.
         -2   -1    0    0    0  501 -0.00000000000E+00 -0.00000000000E+00 -0.15501295336E+02  0.15501295336E+02  0.00000000000E+00 0.  1.
         24    1    1    2    0    0 -0.20974272099E+02  0.51387982324E+01  0.13792259910E+04  0.13817372679E+04  0.80419002446E+02 0. -1.
        -24    1    1    2    0    0  0.20974272099E+02 -0.51387982324E+01  0.10743253863E+03  0.13592385239E+03  0.80419002446E+02 0.  0.
<mgrwt>
<rscale>  0 0.83267901E+02</rscale>
<asrwt>0</asrwt>
<pdfrwt beam="1">  1        2 0.23110140E+00 0.83267901E+02</pdfrwt>
<pdfrwt beam="2">  1       -2 0.23848159E-02 0.83267901E+02</pdfrwt>
<totfact> 0.77764020E+03</totfact>
</mgrwt>
</event>
<event>
 4    1  0.5124795E-001  0.8809034E+02  0.7546771E-02  0.1307543E+00
          3   -1    0    0  501    0  0.00000000000E+00  0.00000000000E+00  0.11287925664E+02  0.11287925664E+02  0.00000000000E+00 0. -1.
         -3   -1    0    0    0  501 -0.00000000000E+00 -0.00000000000E+00 -0.14211667598E+04  0.14211667598E+04  0.00000000000E+00 0.  1.
         24    1    1    2    0    0 -0.28596574318E+02 -0.21792857178E+02 -0.12195657002E+04  0.12227429843E+04  0.80419002446E+02 0.  1.
        -24    1    1    2    0    0  0.28596574318E+02  0.21792857178E+02 -0.19031313394E+03  0.20971170114E+03  0.80419002446E+02 0. -1.
<mgrwt>
<rscale>  0 0.88090344E+02</rscale>
<asrwt>0</asrwt>
<pdfrwt beam="1">  1        3 0.17366045E-02 0.88090344E+02</pdfrwt>
<pdfrwt beam="2">  1       -3 0.21864097E+00 0.88090344E+02</pdfrwt>
<totfact> 0.32504441E+02</totfact>
</mgrwt>
</event>
<event>
 4    1  0.5124795E-001  0.8443076E+02  0.7546771E-02  0.1316928E+00
          2   -1    0    0  501    0  0.00000000000E+00  0.00000000000E+00  0.20810165040E+04  0.20810165040E+04  0.00000000000E+00 0. -1.
         -2   -1    0    0    0  501 -0.00000000000E+00 -0.00000000000E+00 -0.25764477109E+02  0.25764477109E+02  0.00000000000E+00 0.  1.
         24    1    1    2    0    0  0.21420302982E+02 -0.14230511666E+02  0.20084932424E+04  0.20102670613E+04  0.80419002446E+02 0. -1.
        -24    1    1    2    0    0 -0.21420302982E+02  0.14230511666E+02  0.46758784468E+02  0.96513919832E+02  0.80419002446E+02 0.  1.
<mgrwt>
<rscale>  0 0.84430757E+02</rscale>
<asrwt>0</asrwt>
<pdfrwt beam="1">  1        2 0.32015625E+00 0.84430757E+02</pdfrwt>
<pdfrwt beam="2">  1       -2 0.39637673E-02 0.84430757E+02</pdfrwt>
<totfact> 0.19060228E+03</totfact>
</mgrwt>
</event>
<event>
 4    1  0.5124795E-001  0.8636601E+02  0.7546771E-02  0.1311898E+00
          2   -1    0    0  501    0  0.00000000000E+00  0.00000000000E+00  0.49472943288E+04  0.49472943288E+04  0.00000000000E+00 0. -1.
         -2   -1    0    0    0  501 -0.00000000000E+00 -0.00000000000E+00 -0.17334123522E+01  0.17334123522E+01  0.00000000000E+00 0.  1.
         24    1    1    2    0    0  0.31408436573E+02  0.23197566654E+01  0.33656882370E+04  0.33667961619E+04  0.80419002446E+02 0.  1.
        -24    1    1    2    0    0 -0.31408436573E+02 -0.23197566654E+01  0.15798726795E+04  0.15822315793E+04  0.80419002446E+02 0.  0.
<mgrwt>
<rscale>  0 0.86366007E+02</rscale>
<asrwt>0</asrwt>
<pdfrwt beam="1">  1        2 0.76111090E+00 0.86366007E+02</pdfrwt>
<pdfrwt beam="2">  1       -2 0.26668278E-03 0.86366007E+02</pdfrwt>
<totfact> 0.91513143E+02</totfact>
</mgrwt>
</event>
<event>
 4    1  0.5124795E-001  0.1177284E+03  0.7546771E-02  0.1246892E+00
         -1   -1    0    0    0  501 -0.00000000000E+00  0.00000000000E+00  0.76941885026E+02  0.76941885026E+02  0.00000000000E+00 0.  1.
          1   -1    0    0  501    0  0.00000000000E+00 -0.00000000000E+00 -0.39796727158E+03  0.39796727158E+03  0.00000000000E+00 0. -1.
         24    1    1    2    0    0 -0.85802412568E+02 -0.55423270676E+01  0.15165230458E+02  0.11870118601E+03  0.80419002446E+02 0.  1.
        -24    1    1    2    0    0  0.85802412568E+02  0.55423270676E+01 -0.33619061701E+03  0.35620797059E+03  0.80419002446E+02 0. -1.
<mgrwt>
<rscale>  0 0.11772845E+03</rscale>
<asrwt>0</asrwt>
<pdfrwt beam="1">  1        1 0.61225734E-01 0.11772845E+03</pdfrwt>
<pdfrwt beam="2">  1       -1 0.11837213E-01 0.11772845E+03</pdfrwt>
<totfact> 0.27621539E+03</totfact>
</mgrwt>
</event>
<event>
 4    1  0.5124795E-001  0.8839067E+02  0.7546771E-02  0.1306796E+00
         -1   -1    0    0    0  501 -0.00000000000E+00  0.00000000000E+00  0.55689336150E+03  0.55689336150E+03  0.00000000000E+00 0.  1.
          1   -1    0    0  501    0  0.00000000000E+00 -0.00000000000E+00 -0.14301768352E+02  0.14301768352E+02  0.00000000000E+00 0. -1.
         24    1    1    2    0    0  0.25883959906E+02  0.25994538473E+02  0.31070454585E+03  0.32303285619E+03  0.80419002446E+02 0. -1.
        -24    1    1    2    0    0 -0.25883959906E+02 -0.25994538473E+02  0.23188704729E+03  0.24816227366E+03  0.80419002446E+02 0.  0.
<mgrwt>
<rscale>  0 0.88390675E+02</rscale>
<asrwt>0</asrwt>
<pdfrwt beam="1">  1        1 0.22002725E-02 0.88390675E+02</pdfrwt>
<pdfrwt beam="2">  1       -1 0.85675885E-01 0.88390675E+02</pdfrwt>
<totfact> 0.68151231E+03</totfact>
</mgrwt>
</event>
<event>
 4    1  0.5124795E-001  0.9708609E+02  0.7546771E-02  0.1286546E+00
          1   -1    0    0  501    0  0.00000000000E+00  0.00000000000E+00  0.20797043892E+03  0.20797043892E+03  0.00000000000E+00 0. -1.
         -1   -1    0    0    0  501 -0.00000000000E+00 -0.00000000000E+00 -0.48359426174E+02  0.48359426174E+02  0.00000000000E+00 0.  1.
         24    1    1    2    0    0  0.53978142649E+02  0.66972285248E+01  0.47686907297E+02  0.10816538187E+03  0.80419002446E+02 0.  1.
        -24    1    1    2    0    0 -0.53978142649E+02 -0.66972285248E+01  0.11192410545E+03  0.14816448322E+03  0.80419002446E+02 0. -1.
<mgrwt>
<rscale>  0 0.97086089E+02</rscale>
<asrwt>0</asrwt>
<pdfrwt beam="1">  1        1 0.31995452E-01 0.97086089E+02</pdfrwt>
<pdfrwt beam="2">  1       -1 0.74399118E-02 0.97086089E+02</pdfrwt>
<totfact> 0.12236649E+04</totfact>
</mgrwt>
</event>
<event>
 4    1  0.5124795E-001  0.8400091E+02  0.7546771E-02  0.1318066E+00
         -2   -1    0    0    0  501 -0.00000000000E+00  0.00000000000E+00  0.44642230736E+01  0.44642230736E+01  0.00000000000E+00 0.  1.
          2   -1    0    0  501    0  0.00000000000E+00 -0.00000000000E+00 -0.20123123002E+04  0.20123123002E+04  0.00000000000E+00 0. -1.
         24    1    1    2    0    0 -0.23878349895E+02  0.43314685797E+01 -0.14709887507E+04  0.14733852374E+04  0.80419002446E+02 0. -1.
        -24    1    1    2    0    0  0.23878349895E+02 -0.43314685797E+01 -0.53685932643E+03  0.54339128586E+03  0.80419002446E+02 0.  1.
<mgrwt>
<rscale>  0 0.84000912E+02</rscale>
<asrwt>0</asrwt>
<pdfrwt beam="1">  1        2 0.30958662E+00 0.84000912E+02</pdfrwt>
<pdfrwt beam="2">  1       -2 0.68680329E-03 0.84000912E+02</pdfrwt>
<totfact> 0.25276712E+04</totfact>
</mgrwt>
</event>
<event>
 4    1  0.5124795E-001  0.8492024E+02  0.7546771E-02  0.1315641E+00
          2   -1    0    0  501    0  0.00000000000E+00  0.00000000000E+00  0.49228764167E+03  0.49228764167E+03  0.00000000000E+00 0. -1.
         -2   -1    0    0    0  501 -0.00000000000E+00 -0.00000000000E+00 -0.16356036157E+02  0.16356036157E+02  0.00000000000E+00 0.  1.
         24    1    1    2    0    0  0.26371003241E+02  0.69858348822E+01  0.32013047117E+03  0.33120230408E+03  0.80419002446E+02 0. -1.
        -24    1    1    2    0    0 -0.26371003241E+02 -0.69858348822E+01  0.15580113435E+03  0.17744137376E+03  0.80419002446E+02 0.  1.
<mgrwt>
<rscale>  0 0.84920243E+02</rscale>
<asrwt>0</asrwt>
<pdfrwt beam="1">  1        2 0.75736549E-01 0.84920243E+02</pdfrwt>
<pdfrwt beam="2">  1       -2 0.25163136E-02 0.84920243E+02</pdfrwt>
<totfact> 0.30942188E+04</totfact>
</mgrwt>
</event>
<event>
 4    1  0.5124795E-001  0.8996363E+02  0.7546771E-02  0.1302940E+00
         -1   -1    0    0    0  501 -0.00000000000E+00  0.00000000000E+00  0.36325275660E+02  0.36325275660E+02  0.00000000000E+00 0.  1.
          1   -1    0    0  501    0  0.00000000000E+00 -0.00000000000E+00 -0.24560576023E+03  0.24560576023E+03  0.00000000000E+00 0. -1.
         24    1    1    2    0    0  0.25100152685E+02  0.31562974933E+02 -0.61689787512E+02  0.10908292666E+03  0.80419002446E+02 0.  1.
        -24    1    1    2    0    0 -0.25100152685E+02 -0.31562974933E+02 -0.14759069705E+03  0.17284810923E+03  0.80419002446E+02 0. -1.
<mgrwt>
<rscale>  0 0.89963632E+02</rscale>
<asrwt>0</asrwt>
<pdfrwt beam="1">  1        1 0.37785502E-01 0.89963632E+02</pdfrwt>
<pdfrwt beam="2">  1       -1 0.55885039E-02 0.89963632E+02</pdfrwt>
<totfact> 0.15131862E+04</totfact>
</mgrwt>
</event>
<event>
 4    1  0.5124795E-001  0.9989963E+02  0.7546771E-02  0.1280507E+00
          1   -1    0    0  501    0  0.00000000000E+00  0.00000000000E+00  0.12873336789E+04  0.12873336789E+04  0.00000000000E+00 0. -1.
         -1   -1    0    0    0  501 -0.00000000000E+00 -0.00000000000E+00 -0.12225134332E+02  0.12225134332E+02  0.00000000000E+00 0.  1.
         24    1    1    2    0    0  0.57844176488E+02 -0.12914020149E+02  0.24452467221E+03  0.26414437708E+03  0.80419002446E+02 0.  1.
        -24    1    1    2    0    0 -0.57844176488E+02  0.12914020149E+02  0.10305838724E+04  0.10354144362E+04  0.80419002446E+02 0. -1.
<mgrwt>
<rscale>  0 0.99899633E+02</rscale>
<asrwt>0</asrwt>
<pdfrwt beam="1">  1        1 0.19805123E+00 0.99899633E+02</pdfrwt>
<pdfrwt beam="2">  1       -1 0.18807909E-02 0.99899633E+02</pdfrwt>
<totfact> 0.71764371E+03</totfact>
</mgrwt>
</event>
<event>
 4    1  0.5124795E-001  0.8050833E+02  0.7546771E-02  0.1327615E+00
         -2   -1    0    0    0  501 -0.00000000000E+00  0.00000000000E+00  0.80092101935E+02  0.80092101935E+02  0.00000000000E+00 0.  1.
          2   -1    0    0  501    0  0.00000000000E+00 -0.00000000000E+00 -0.81164153908E+02  0.81164153908E+02  0.00000000000E+00 0. -1.
         24    1    1    2    0    0  0.36968997000E+01  0.84157124683E+00 -0.48969048983E+01  0.80657119596E+02  0.80419002446E+02 0.  0.
        -24    1    1    2    0    0 -0.36968997000E+01 -0.84157124683E+00  0.38248529256E+01  0.80599136247E+02  0.80419002446E+02 0.  0.
<mgrwt>
<rscale>  0 0.80508330E+02</rscale>
<asrwt>0</asrwt>
<pdfrwt beam="1">  1        2 0.12486793E-01 0.80508330E+02</pdfrwt>
<pdfrwt beam="2">  1       -2 0.12321862E-01 0.80508330E+02</pdfrwt>
<totfact> 0.20117675E+04</totfact>
</mgrwt>
</event>
<event>
 4    1  0.5124795E-001  0.8800558E+02  0.7546771E-02  0.1307755E+00
         -2   -1    0    0    0  501 -0.00000000000E+00  0.00000000000E+00  0.49066789302E+01  0.49066789302E+01  0.00000000000E+00 0.  1.
          2   -1    0    0  501    0  0.00000000000E+00 -0.00000000000E+00 -0.19307138378E+04  0.19307138378E+04  0.00000000000E+00 0. -1.
         24    1    1    2    0    0  0.32984917670E+02 -0.13775381862E+02 -0.13762945237E+04  0.13791053614E+04  0.80419002446E+02 0. -1.
        -24    1    1    2    0    0 -0.32984917670E+02  0.13775381862E+02 -0.54951263517E+03  0.55651515532E+03  0.80419002446E+02 0.  1.
<mgrwt>
<rscale>  0 0.88005579E+02</rscale>
<asrwt>0</asrwt>
<pdfrwt beam="1">  1        2 0.29703293E+00 0.88005579E+02</pdfrwt>
<pdfrwt beam="2">  1       -2 0.75487360E-03 0.88005579E+02</pdfrwt>
<totfact> 0.24392136E+04</totfact>
</mgrwt>
</event>
<event>
 4    1  0.5124795E-001  0.8285355E+02  0.7546771E-02  0.1321143E+00
         -2   -1    0    0    0  501 -0.00000000000E+00  0.00000000000E+00  0.98433785054E+02  0.98433785054E+02  0.00000000000E+00 0.  1.
          2   -1    0    0  501    0  0.00000000000E+00 -0.00000000000E+00 -0.11583806875E+03  0.11583806875E+03  0.00000000000E+00 0. -1.
         24    1    1    2    0    0 -0.53058720752E+01  0.19218296617E+02 -0.76287677866E+02  0.11262557859E+03  0.80419002446E+02 0. -1.
        -24    1    1    2    0    0  0.53058720752E+01 -0.19218296617E+02  0.58883394167E+02  0.10164627522E+03  0.80419002446E+02 0.  1.
<mgrwt>
<rscale>  0 0.82853552E+02</rscale>
<asrwt>0</asrwt>
<pdfrwt beam="1">  1        2 0.17821241E-01 0.82853552E+02</pdfrwt>
<pdfrwt beam="2">  1       -2 0.15143659E-01 0.82853552E+02</pdfrwt>
<totfact> 0.96319286E+03</totfact>
</mgrwt>
</event>
<event>
 4    1  0.5124795E-001  0.1481769E+03  0.7546771E-02  0.1202731E+00
          2   -1    0    0  501    0  0.00000000000E+00  0.00000000000E+00  0.12295313790E+03  0.12295313790E+03  0.00000000000E+00 0. -1.
         -2   -1    0    0    0  501 -0.00000000000E+00 -0.00000000000E+00 -0.34101537420E+03  0.34101537420E+03  0.00000000000E+00 0.  1.
         24    1    1    2    0    0 -0.78825175591E+02  0.96310837151E+02  0.51078725567E+02  0.15673365248E+03  0.80419002446E+02 0. -1.
        -24    1    1    2    0    0  0.78825175591E+02 -0.96310837151E+02 -0.26914096186E+03  0.30723485962E+03  0.80419002446E+02 0.  1.
<mgrwt>
<rscale>  0 0.14817693E+03</rscale>
<asrwt>0</asrwt>
<pdfrwt beam="1">  1        2 0.18915867E-01 0.14817693E+03</pdfrwt>
<pdfrwt beam="2">  1       -2 0.52463904E-01 0.14817693E+03</pdfrwt>
<totfact> 0.10167979E+03</totfact>
</mgrwt>
</event>
<event>
 4    1  0.5124795E-001  0.1068735E+03  0.7546771E-02  0.1266472E+00
          2   -1    0    0  501    0  0.00000000000E+00  0.00000000000E+00  0.17092898185E+04  0.17092898185E+04  0.00000000000E+00 0. -1.
         -2   -1    0    0    0  501 -0.00000000000E+00 -0.00000000000E+00 -0.67355915587E+01  0.67355915587E+01  0.00000000000E+00 0.  1.
         24    1    1    2    0    0 -0.24256480331E+02 -0.66078400706E+02  0.92761308746E+03  0.93374942455E+03  0.80419002446E+02 0. -1.
        -24    1    1    2    0    0  0.24256480331E+02  0.66078400706E+02  0.77494113944E+03  0.78227598546E+03  0.80419002446E+02 0.  1.
<mgrwt>
<rscale>  0 0.10687351E+03</rscale>
<asrwt>0</asrwt>
<pdfrwt beam="1">  1        2 0.26296732E+00 0.10687351E+03</pdfrwt>
<pdfrwt beam="2">  1       -2 0.10362462E-02 0.10687351E+03</pdfrwt>
<totfact> 0.20389550E+04</totfact>
</mgrwt>
</event>
<event>
 4    1  0.5124795E-001  0.9588643E+02  0.7546771E-02  0.1289192E+00
          1   -1    0    0  501    0  0.00000000000E+00  0.00000000000E+00  0.48467430111E+03  0.48467430111E+03  0.00000000000E+00 0. -1.
         -1   -1    0    0    0  501 -0.00000000000E+00 -0.00000000000E+00 -0.23930576911E+02  0.23930576911E+02  0.00000000000E+00 0.  1.
         24    1    1    2    0    0 -0.11478293836E+02 -0.50943493588E+02  0.11458857243E+03  0.14941468353E+03  0.80419002446E+02 0.  1.
        -24    1    1    2    0    0  0.11478293836E+02  0.50943493588E+02  0.34615515177E+03  0.35919019449E+03  0.80419002446E+02 0. -1.
<mgrwt>
<rscale>  0 0.95886426E+02</rscale>
<asrwt>0</asrwt>
<pdfrwt beam="1">  1        1 0.74565269E-01 0.95886426E+02</pdfrwt>
<pdfrwt beam="2">  1       -1 0.36816276E-02 0.95886426E+02</pdfrwt>
<totfact> 0.12081130E+04</totfact>
</mgrwt>
</event>
<event>
 4    1  0.5124795E-001  0.9255874E+02  0.7546771E-02  0.1296771E+00
         -2   -1    0    0    0  501 -0.00000000000E+00  0.00000000000E+00  0.15235786035E+02  0.15235786035E+02  0.00000000000E+00 0.  1.
          2   -1    0    0  501    0  0.00000000000E+00 -0.00000000000E+00 -0.58793301038E+03  0.58793301038E+03  0.00000000000E+00 0. -1.
         24    1    1    2    0    0  0.28828540711E+02 -0.35620505128E+02 -0.34931710300E+03  0.36137177470E+03  0.80419002446E+02 0.  0.
        -24    1    1    2    0    0 -0.28828540711E+02  0.35620505128E+02 -0.22338012135E+03  0.24179702172E+03  0.80419002446E+02 0. -1.
<mgrwt>
<rscale>  0 0.92558744E+02</rscale>
<asrwt>0</asrwt>
<pdfrwt beam="1">  1        2 0.90451224E-01 0.92558744E+02</pdfrwt>
<pdfrwt beam="2">  1       -2 0.23439673E-02 0.92558744E+02</pdfrwt>
<totfact> 0.28499860E+04</totfact>
</mgrwt>
</event>
<event>
 4    1  0.5124795E-001  0.1140616E+03  0.7546771E-02  0.1253228E+00
         -1   -1    0    0    0  501 -0.00000000000E+00  0.00000000000E+00  0.54076245993E+02  0.54076245993E+02  0.00000000000E+00 0.  1.
          1   -1    0    0  501    0  0.00000000000E+00 -0.00000000000E+00 -0.34166726015E+03  0.34166726015E+03  0.00000000000E+00 0. -1.
         24    1    1    2    0    0  0.49900242843E+02 -0.63661531734E+02 -0.36169969567E+02  0.11965913050E+03  0.80419002446E+02 0. -1.
        -24    1    1    2    0    0 -0.49900242843E+02  0.63661531734E+02 -0.25142104459E+03  0.27608437565E+03  0.80419002446E+02 0.  0.
<mgrwt>
<rscale>  0 0.11406157E+03</rscale>
<asrwt>0</asrwt>
<pdfrwt beam="1">  1        1 0.52564195E-01 0.11406157E+03</pdfrwt>
<pdfrwt beam="2">  1       -1 0.83194223E-02 0.11406157E+03</pdfrwt>
<totfact> 0.56983041E+03</totfact>
</mgrwt>
</event>
<event>
 4    1  0.5124795E-001  0.9356147E+02  0.7546771E-02  0.1294449E+00
         -3   -1    0    0    0  501 -0.00000000000E+00  0.00000000000E+00  0.28522327311E+03  0.28522327311E+03  0.00000000000E+00 0.  1.
          3   -1    0    0  501    0  0.00000000000E+00 -0.00000000000E+00 -0.30703659569E+02  0.30703659569E+02  0.00000000000E+00 0. -1.
         24    1    1    2    0    0 -0.17024314652E+02  0.44684512440E+02  0.13048442888E+03  0.16056131251E+03  0.80419002446E+02 0. -1.
        -24    1    1    2    0    0  0.17024314652E+02 -0.44684512440E+02  0.12403518466E+03  0.15536562016E+03  0.80419002446E+02 0.  1.
<mgrwt>
<rscale>  0 0.93561471E+02</rscale>
<asrwt>0</asrwt>
<pdfrwt beam="1">  1        3 0.47236401E-02 0.93561471E+02</pdfrwt>
<pdfrwt beam="2">  1       -3 0.43880502E-01 0.93561471E+02</pdfrwt>
<totfact> 0.27500072E+03</totfact>
</mgrwt>
</event>
<event>
 4    1  0.5124795E-001  0.8468578E+02  0.7546771E-02  0.1316256E+00
         -1   -1    0    0    0  501 -0.00000000000E+00  0.00000000000E+00  0.81099452111E+02  0.81099452111E+02  0.00000000000E+00 0.  1.
          1   -1    0    0  501    0  0.00000000000E+00 -0.00000000000E+00 -0.93707534635E+02  0.93707534635E+02  0.00000000000E+00 0. -1.
         24    1    1    2    0    0 -0.15077188311E+02  0.21843614683E+02  0.14436897389E+02  0.85907537914E+02  0.80419002446E+02 0.  0.
        -24    1    1    2    0    0  0.15077188311E+02 -0.21843614683E+02 -0.27044979913E+02  0.88899448832E+02  0.80419002446E+02 0.  1.
<mgrwt>
<rscale>  0 0.84685778E+02</rscale>
<asrwt>0</asrwt>
<pdfrwt beam="1">  1        1 0.14416544E-01 0.84685778E+02</pdfrwt>
<pdfrwt beam="2">  1       -1 0.12476839E-01 0.84685778E+02</pdfrwt>
<totfact> 0.15011574E+04</totfact>
</mgrwt>
</event>
<event>
 4    1  0.5124795E-001  0.8698327E+02  0.7546771E-02  0.1310326E+00
          2   -1    0    0  501    0  0.00000000000E+00  0.00000000000E+00  0.43106786282E+03  0.43106786282E+03  0.00000000000E+00 0. -1.
         -2   -1    0    0    0  501 -0.00000000000E+00 -0.00000000000E+00 -0.20061221616E+02  0.20061221616E+02  0.00000000000E+00 0.  1.
         24    1    1    2    0    0 -0.32756492776E+02 -0.50877282806E+01  0.28527790306E+03  0.29824414617E+03  0.80419002446E+02 0. -1.
        -24    1    1    2    0    0  0.32756492776E+02  0.50877282806E+01  0.12572873815E+03  0.15288493826E+03  0.80419002446E+02 0.  1.
<mgrwt>
<rscale>  0 0.86983267E+02</rscale>
<asrwt>0</asrwt>
<pdfrwt beam="1">  1        2 0.66318126E-01 0.86983267E+02</pdfrwt>
<pdfrwt beam="2">  1       -2 0.30863421E-02 0.86983267E+02</pdfrwt>
<totfact> 0.26594628E+04</totfact>
</mgrwt>
</event>
<event>
 4    1  0.5124795E-001  0.9901865E+02  0.7546771E-02  0.1282373E+00
          2   -1    0    0  501    0  0.00000000000E+00  0.00000000000E+00  0.71891522711E+03  0.71891522711E+03  0.00000000000E+00 0. -1.
         -2   -1    0    0    0  501 -0.00000000000E+00 -0.00000000000E+00 -0.26924013137E+02  0.26924013137E+02  0.00000000000E+00 0.  1.
         24    1    1    2    0    0 -0.38379036181E+02 -0.43180156919E+02  0.60795851336E+03  0.61596935499E+03  0.80419002446E+02 0. -1.
        -24    1    1    2    0    0  0.38379036181E+02  0.43180156919E+02  0.84032700618E+02  0.12986988526E+03  0.80419002446E+02 0.  1.
<mgrwt>
<rscale>  0 0.99018646E+02</rscale>
<asrwt>0</asrwt>
<pdfrwt beam="1">  1        2 0.11060233E+00 0.99018646E+02</pdfrwt>
<pdfrwt beam="2">  1       -2 0.41421564E-02 0.99018646E+02</pdfrwt>
<totfact> 0.99235193E+03</totfact>
</mgrwt>
</event>
<event>
 4    1  0.5124795E-001  0.9059330E+02  0.7546771E-02  0.1301421E+00
          1   -1    0    0  501    0  0.00000000000E+00  0.00000000000E+00  0.25004848961E+04  0.25004848961E+04  0.00000000000E+00 0. -1.
         -1   -1    0    0    0  501 -0.00000000000E+00 -0.00000000000E+00 -0.76816343111E+01  0.76816343111E+01  0.00000000000E+00 0.  1.
         24    1    1    2    0    0  0.42562148324E+01 -0.41494759319E+02  0.29733458349E+03  0.31082953674E+03  0.80419002446E+02 0.  1.
        -24    1    1    2    0    0 -0.42562148324E+01  0.41494759319E+02  0.21954686783E+04  0.21973369937E+04  0.80419002446E+02 0. -1.
<mgrwt>
<rscale>  0 0.90593302E+02</rscale>
<asrwt>0</asrwt>
<pdfrwt beam="1">  1        1 0.38468934E+00 0.90593302E+02</pdfrwt>
<pdfrwt beam="2">  1       -1 0.11817919E-02 0.90593302E+02</pdfrwt>
<totfact> 0.23481729E+03</totfact>
</mgrwt>
</event>
<event>
 4    1  0.5124795E-001  0.8490217E+02  0.7546771E-02  0.1315689E+00
         -1   -1    0    0    0  501 -0.00000000000E+00  0.00000000000E+00  0.44084355485E+02  0.44084355485E+02  0.00000000000E+00 0.  1.
          1   -1    0    0  501    0  0.00000000000E+00 -0.00000000000E+00 -0.21448909001E+03  0.21448909001E+03  0.00000000000E+00 0. -1.
         24    1    1    2    0    0 -0.25051741415E+02  0.10657047446E+02 -0.22174398104E+02  0.87750112785E+02  0.80419002446E+02 0.  1.
        -24    1    1    2    0    0  0.25051741415E+02 -0.10657047446E+02 -0.14823033642E+03  0.17082333271E+03  0.80419002446E+02 0. -1.
<mgrwt>
<rscale>  0 0.84902169E+02</rscale>
<asrwt>0</asrwt>
<pdfrwt beam="1">  1        1 0.32998321E-01 0.84902169E+02</pdfrwt>
<pdfrwt beam="2">  1       -1 0.67822087E-02 0.84902169E+02</pdfrwt>
<totfact> 0.13343509E+04</totfact>
</mgrwt>
</event>
<event>
 4    1  0.5124795E-001  0.8788355E+02  0.7546771E-02  0.1308059E+00
         -2   -1    0    0    0  501 -0.00000000000E+00  0.00000000000E+00  0.24946027200E+03  0.24946027200E+03  0.00000000000E+00 0.  1.
          2   -1    0    0  501    0  0.00000000000E+00 -0.00000000000E+00 -0.22081093419E+03  0.22081093419E+03  0.00000000000E+00 0. -1.
         24    1    1    2    0    0 -0.19971531375E+02  0.29282095288E+02 -0.20370391000E+03  0.22185310923E+03  0.80419002446E+02 0. -1.
        -24    1    1    2    0    0  0.19971531375E+02 -0.29282095288E+02  0.23235324782E+03  0.24841809696E+03  0.80419002446E+02 0.  1.
<mgrwt>
<rscale>  0 0.87883554E+02</rscale>
<asrwt>0</asrwt>
<pdfrwt beam="1">  1        2 0.33970913E-01 0.87883554E+02</pdfrwt>
<pdfrwt beam="2">  1       -2 0.38378504E-01 0.87883554E+02</pdfrwt>
<totfact> 0.96233703E+02</totfact>
</mgrwt>
</event>
<event>
 4    1  0.5124795E-001  0.8330704E+02  0.7546771E-02  0.1319920E+00
         -2   -1    0    0    0  501 -0.00000000000E+00  0.00000000000E+00  0.12855598059E+02  0.12855598059E+02  0.00000000000E+00 0.  1.
          2   -1    0    0  501    0  0.00000000000E+00 -0.00000000000E+00 -0.62586997889E+03  0.62586997889E+03  0.00000000000E+00 0. -1.
         24    1    1    2    0    0 -0.86117055109E+01 -0.19967120107E+02 -0.42490619837E+03  0.43299577449E+03  0.80419002446E+02 0. -1.
        -24    1    1    2    0    0  0.86117055109E+01  0.19967120107E+02 -0.18810818246E+03  0.20572980246E+03  0.80419002446E+02 0.  0.
<mgrwt>
<rscale>  0 0.83307042E+02</rscale>
<asrwt>0</asrwt>
<pdfrwt beam="1">  1        2 0.96287689E-01 0.83307042E+02</pdfrwt>
<pdfrwt beam="2">  1       -2 0.19777843E-02 0.83307042E+02</pdfrwt>
<totfact> 0.33532219E+04</totfact>
</mgrwt>
</event>
<event>
 4    1  0.5124795E-001  0.9945885E+02  0.7546771E-02  0.1281438E+00
         -2   -1    0    0    0  501 -0.00000000000E+00  0.00000000000E+00  0.12191059444E+02  0.12191059444E+02  0.00000000000E+00 0.  1.
          2   -1    0    0  501    0  0.00000000000E+00 -0.00000000000E+00 -0.81338510130E+03  0.81338510130E+03  0.00000000000E+00 0. -1.
         24    1    1    2    0    0  0.84453894190E+01  0.57909554624E+02 -0.38030227091E+03  0.39309270450E+03  0.80419002446E+02 0.  1.
        -24    1    1    2    0    0 -0.84453894190E+01 -0.57909554624E+02 -0.42089177095E+03  0.43248345625E+03  0.80419002446E+02 0. -1.
<mgrwt>
<rscale>  0 0.99458833E+02</rscale>
<asrwt>0</asrwt>
<pdfrwt beam="1">  1        2 0.12513613E+00 0.99458846E+02</pdfrwt>
<pdfrwt beam="2">  1       -2 0.18755482E-02 0.99458846E+02</pdfrwt>
<totfact> 0.27086002E+04</totfact>
</mgrwt>
</event>
<event>
 4    1  0.5124795E-001  0.8230496E+02  0.7546771E-02  0.1322635E+00
          2   -1    0    0  501    0  0.00000000000E+00  0.00000000000E+00  0.13812604500E+03  0.13812604500E+03  0.00000000000E+00 0. -1.
         -2   -1    0    0    0  501 -0.00000000000E+00 -0.00000000000E+00 -0.52658752088E+02  0.52658752088E+02  0.00000000000E+00 0.  1.
         24    1    1    2    0    0  0.15857129450E+02 -0.74459853368E+01  0.67730276955E+02  0.10659032612E+03  0.80419002446E+02 0.  0.
        -24    1    1    2    0    0 -0.15857129450E+02  0.74459853368E+01  0.17737015958E+02  0.84194470968E+02  0.80419002446E+02 0.  1.
<mgrwt>
<rscale>  0 0.82304965E+02</rscale>
<asrwt>0</asrwt>
<pdfrwt beam="1">  1        2 0.21250161E-01 0.82304965E+02</pdfrwt>
<pdfrwt beam="2">  1       -2 0.81013465E-02 0.82304965E+02</pdfrwt>
<totfact> 0.21072721E+04</totfact>
</mgrwt>
</event>
<event>
 4    1  0.5124795E-001  0.1009743E+03  0.7546771E-02  0.1278260E+00
          2   -1    0    0  501    0  0.00000000000E+00  0.00000000000E+00  0.21406062581E+04  0.21406062581E+04  0.00000000000E+00 0. -1.
         -2   -1    0    0    0  501 -0.00000000000E+00 -0.00000000000E+00 -0.72027284601E+01  0.72027284601E+01  0.00000000000E+00 0.  1.
         24    1    1    2    0    0  0.31048583273E+02 -0.52579212731E+02  0.16917073134E+04  0.16947180999E+04  0.80419002446E+02 0. -1.
        -24    1    1    2    0    0 -0.31048583273E+02  0.52579212731E+02  0.44169621629E+03  0.45309088666E+03  0.80419002446E+02 0.  1.
<mgrwt>
<rscale>  0 0.10097427E+03</rscale>
<asrwt>0</asrwt>
<pdfrwt beam="1">  1        2 0.32932353E+00 0.10097427E+03</pdfrwt>
<pdfrwt beam="2">  1       -2 0.11081138E-02 0.10097427E+03</pdfrwt>
<totfact> 0.11185107E+04</totfact>
</mgrwt>
</event>
<event>
 4    1  0.5124795E-001  0.8625018E+02  0.7546771E-02  0.1312195E+00
          1   -1    0    0  501    0  0.00000000000E+00  0.00000000000E+00  0.10938569116E+04  0.10938569116E+04  0.00000000000E+00 0. -1.
         -1   -1    0    0    0  501 -0.00000000000E+00 -0.00000000000E+00 -0.70757883322E+01  0.70757883322E+01  0.00000000000E+00 0.  1.
         24    1    1    2    0    0  0.22311037357E+02  0.21773732073E+02  0.43487138029E+03  0.44334209269E+03  0.80419002446E+02 0.  0.
        -24    1    1    2    0    0 -0.22311037357E+02 -0.21773732073E+02  0.65190974297E+03  0.65759060724E+03  0.80419002446E+02 0. -1.
<mgrwt>
<rscale>  0 0.86250181E+02</rscale>
<asrwt>0</asrwt>
<pdfrwt beam="1">  1        1 0.16828554E+00 0.86250181E+02</pdfrwt>
<pdfrwt beam="2">  1       -1 0.10885837E-02 0.86250181E+02</pdfrwt>
<totfact> 0.20858622E+04</totfact>
</mgrwt>
</event>
<event>
 4    1  0.5124795E-001  0.1157576E+03  0.7546771E-02  0.1250264E+00
         -1   -1    0    0    0  501 -0.00000000000E+00  0.00000000000E+00  0.11982767167E+03  0.11982767167E+03  0.00000000000E+00 0.  1.
          1   -1    0    0  501    0  0.00000000000E+00 -0.00000000000E+00 -0.12929939743E+03  0.12929939743E+03  0.00000000000E+00 0. -1.
         24    1    1    2    0    0 -0.69468949416E+02  0.45898543338E+02  0.41055507031E+02  0.12282256236E+03  0.80419002446E+02 0.  1.
        -24    1    1    2    0    0  0.69468949416E+02 -0.45898543338E+02 -0.50527232794E+02  0.12630450674E+03  0.80419002446E+02 0. -1.
<mgrwt>
<rscale>  0 0.11575762E+03</rscale>
<asrwt>0</asrwt>
<pdfrwt beam="1">  1        1 0.19892215E-01 0.11575762E+03</pdfrwt>
<pdfrwt beam="2">  1       -1 0.18435027E-01 0.11575762E+03</pdfrwt>
<totfact> 0.55817890E+03</totfact>
</mgrwt>
</event>
<event>
 4    1  0.5124795E-001  0.9157631E+02  0.7546771E-02  0.1299079E+00
         -2   -1    0    0    0  501 -0.00000000000E+00  0.00000000000E+00  0.73428830448E+01  0.73428830448E+01  0.00000000000E+00 0.  1.
          2   -1    0    0  501    0  0.00000000000E+00 -0.00000000000E+00 -0.12862848181E+04  0.12862848181E+04  0.00000000000E+00 0. -1.
         24    1    1    2    0    0  0.28951524673E+02 -0.32875720032E+02 -0.85603600947E+03  0.86092036172E+03  0.80419002446E+02 0. -1.
        -24    1    1    2    0    0 -0.28951524673E+02  0.32875720032E+02 -0.42290592558E+03  0.43270733943E+03  0.80419002446E+02 0.  1.
<mgrwt>
<rscale>  0 0.91576305E+02</rscale>
<asrwt>0</asrwt>
<pdfrwt beam="1">  1        2 0.19788990E+00 0.91576305E+02</pdfrwt>
<pdfrwt beam="2">  1       -2 0.11296747E-02 0.91576305E+02</pdfrwt>
<totfact> 0.29444410E+04</totfact>
</mgrwt>
</event>
<event>
 4    1  0.5124795E-001  0.1255158E+03  0.7546771E-02  0.1234265E+00
          2   -1    0    0  501    0  0.00000000000E+00  0.00000000000E+00  0.56906292456E+03  0.56906292456E+03  0.00000000000E+00 0. -1.
         -2   -1    0    0    0  501 -0.00000000000E+00 -0.00000000000E+00 -0.45679463522E+02  0.45679463522E+02  0.00000000000E+00 0.  1.
         24    1    1    2    0    0  0.29796428035E+02 -0.91647039109E+02  0.45461212681E+03  0.47162104353E+03  0.80419002446E+02 0. -1.
        -24    1    1    2    0    0 -0.29796428035E+02  0.91647039109E+02  0.68771334227E+02  0.14312134455E+03  0.80419002446E+02 0.  1.
<mgrwt>
<rscale>  0 0.12551583E+03</rscale>
<asrwt>0</asrwt>
<pdfrwt beam="1">  1        2 0.87548137E-01 0.12551583E+03</pdfrwt>
<pdfrwt beam="2">  1       -2 0.70276102E-02 0.12551583E+03</pdfrwt>
<totfact> 0.59604536E+03</totfact>
</mgrwt>
</event>
<event>
 4    1  0.5124795E-001  0.8853474E+02  0.7546771E-02  0.1306439E+00
          2   -1    0    0  501    0  0.00000000000E+00  0.00000000000E+00  0.15578016111E+04  0.15578016111E+04  0.00000000000E+00 0. -1.
         -2   -1    0    0    0  501 -0.00000000000E+00 -0.00000000000E+00 -0.22158482004E+02  0.22158482004E+02  0.00000000000E+00 0.  1.
         24    1    1    2    0    0  0.32971827132E+02  0.16853549774E+02  0.14623402429E+04  0.14650178789E+04  0.80419002446E+02 0. -1.
        -24    1    1    2    0    0 -0.32971827132E+02 -0.16853549774E+02  0.73302886152E+02  0.11494221416E+03  0.80419002446E+02 0.  1.
<mgrwt>
<rscale>  0 0.88534736E+02</rscale>
<asrwt>0</asrwt>
<pdfrwt beam="1">  1        2 0.23966170E+00 0.88534736E+02</pdfrwt>
<pdfrwt beam="2">  1       -2 0.34089985E-02 0.88534736E+02</pdfrwt>
<totfact> 0.43513411E+03</totfact>
</mgrwt>
</event>
<event>
 4    1  0.5124795E-001  0.3301057E+03  0.7546771E-02  0.1071090E+00
         -1   -1    0    0    0  501 -0.00000000000E+00  0.00000000000E+00  0.59890882551E+02  0.59890882551E+02  0.00000000000E+00 0.  1.
          1   -1    0    0  501    0  0.00000000000E+00 -0.00000000000E+00 -0.22177216421E+04  0.22177216421E+04  0.00000000000E+00 0. -1.
         24    1    1    2    0    0 -0.57486159548E+01  0.32010856785E+03 -0.59632988490E+03  0.68160038833E+03  0.80419002446E+02 0.  1.
        -24    1    1    2    0    0  0.57486159548E+01 -0.32010856785E+03 -0.15615008746E+04  0.15960121363E+04  0.80419002446E+02 0. -1.
<mgrwt>
<rscale>  0 0.33010568E+03</rscale>
<asrwt>0</asrwt>
<pdfrwt beam="1">  1        1 0.34118786E+00 0.33010568E+03</pdfrwt>
<pdfrwt beam="2">  1       -1 0.92139843E-02 0.33010568E+03</pdfrwt>
<totfact> 0.16653036E+02</totfact>
</mgrwt>
</event>
<event>
 4    1  0.5124795E-001  0.8252798E+02  0.7546771E-02  0.1322027E+00
          3   -1    0    0  501    0  0.00000000000E+00  0.00000000000E+00  0.25022898417E+03  0.25022898417E+03  0.00000000000E+00 0. -1.
         -3   -1    0    0    0  501 -0.00000000000E+00 -0.00000000000E+00 -0.39169683521E+02  0.39169683521E+02  0.00000000000E+00 0.  1.
         24    1    1    2    0    0  0.17918333804E+02  0.47523714840E+01  0.25602150726E+02  0.86407972996E+02  0.80419002446E+02 0.  1.
        -24    1    1    2    0    0 -0.17918333804E+02 -0.47523714840E+01  0.18545714992E+03  0.20299069469E+03  0.80419002446E+02 0. -1.
<mgrwt>
<rscale>  0 0.82527981E+02</rscale>
<asrwt>0</asrwt>
<pdfrwt beam="1">  1        3 0.38496766E-01 0.82527981E+02</pdfrwt>
<pdfrwt beam="2">  1       -3 0.60261053E-02 0.82527981E+02</pdfrwt>
<totfact> 0.23473506E+03</totfact>
</mgrwt>
</event>
<event>
 4    1  0.5124795E-001  0.8691717E+02  0.7546771E-02  0.1310494E+00
         -2   -1    0    0    0  501 -0.00000000000E+00  0.00000000000E+00  0.42301935625E+01  0.42301935625E+01  0.00000000000E+00 0.  1.
          2   -1    0    0  501    0  0.00000000000E+00 -0.00000000000E+00 -0.18450918333E+04  0.18450918333E+04  0.00000000000E+00 0. -1.
         24    1    1    2    0    0 -0.20248259438E+02 -0.26026564687E+02 -0.75477674644E+03  0.75976478399E+03  0.80419002446E+02 0. -1.
        -24    1    1    2    0    0  0.20248259438E+02  0.26026564687E+02 -0.10860848933E+04  0.10895572429E+04  0.80419002446E+02 0.  0.
<mgrwt>
<rscale>  0 0.86917156E+02</rscale>
<asrwt>0</asrwt>
<pdfrwt beam="1">  1        2 0.28386018E+00 0.86917166E+02</pdfrwt>
<pdfrwt beam="2">  1       -2 0.65079925E-03 0.86917166E+02</pdfrwt>
<totfact> 0.33135981E+04</totfact>
</mgrwt>
</event>
<event>
 4    1  0.5124795E-001  0.1241564E+03  0.7546771E-02  0.1236394E+00
          2   -1    0    0  501    0  0.00000000000E+00  0.00000000000E+00  0.28811907535E+04  0.28811907535E+04  0.00000000000E+00 0. -1.
         -2   -1    0    0    0  501 -0.00000000000E+00 -0.00000000000E+00 -0.53565085152E+01  0.53565085152E+01  0.00000000000E+00 0.  1.
         24    1    1    2    0    0  0.16418995376E+01 -0.94577504020E+02  0.13882089960E+04  0.13937499893E+04  0.80419002446E+02 0.  1.
        -24    1    1    2    0    0 -0.16418995376E+01  0.94577504020E+02  0.14876252490E+04  0.14927972727E+04  0.80419002446E+02 0. -1.
<mgrwt>
<rscale>  0 0.12415643E+03</rscale>
<asrwt>0</asrwt>
<pdfrwt beam="1">  1        2 0.44325888E+00 0.12415645E+03</pdfrwt>
<pdfrwt beam="2">  1       -2 0.82408053E-03 0.12415645E+03</pdfrwt>
<totfact> 0.69069196E+03</totfact>
</mgrwt>
</event>
<event>
 4    1  0.5124795E-001  0.1004071E+03  0.7546771E-02  0.1279442E+00
         -1   -1    0    0    0  501 -0.00000000000E+00  0.00000000000E+00  0.91378266896E+02  0.91378266896E+02  0.00000000000E+00 0.  1.
          1   -1    0    0  501    0  0.00000000000E+00 -0.00000000000E+00 -0.11035227035E+03  0.11035227035E+03  0.00000000000E+00 0. -1.
         24    1    1    2    0    0 -0.13560322218E+02 -0.58570238191E+02 -0.10986336588E+02  0.10100629033E+03  0.80419002446E+02 0. -1.
        -24    1    1    2    0    0  0.13560322218E+02  0.58570238191E+02 -0.79876668677E+01  0.10072424692E+03  0.80419002446E+02 0.  1.
<mgrwt>
<rscale>  0 0.10040704E+03</rscale>
<asrwt>0</asrwt>
<pdfrwt beam="1">  1        1 0.16977272E-01 0.10040705E+03</pdfrwt>
<pdfrwt beam="2">  1       -1 0.14058195E-01 0.10040705E+03</pdfrwt>
<totfact> 0.10316432E+04</totfact>
</mgrwt>
</event>
<event>
 4    1  0.5124795E-001  0.1394100E+03  0.7546771E-02  0.1214125E+00
         -2   -1    0    0    0  501 -0.00000000000E+00  0.00000000000E+00  0.82628171092E+02  0.82628171092E+02  0.00000000000E+00 0.  1.
          2   -1    0    0  501    0  0.00000000000E+00 -0.00000000000E+00 -0.10508765654E+04  0.10508765654E+04  0.00000000000E+00 0. -1.
         24    1    1    2    0    0  0.11024276981E+03  0.28538864922E+02 -0.98343762287E+03  0.99326970614E+03  0.80419002446E+02 0. -1.
        -24    1    1    2    0    0 -0.11024276981E+03 -0.28538864922E+02  0.15189228600E+02  0.14023503031E+03  0.80419002446E+02 0.  1.
<mgrwt>
<rscale>  0 0.13941001E+03</rscale>
<asrwt>0</asrwt>
<pdfrwt beam="1">  1        2 0.16167332E+00 0.13941001E+03</pdfrwt>
<pdfrwt beam="2">  1       -2 0.12712026E-01 0.13941001E+03</pdfrwt>
<totfact> 0.11054045E+03</totfact>
</mgrwt>
</event>
<event>
 4    1  0.5124795E-001  0.9460331E+02  0.7546771E-02  0.1292072E+00
         -1   -1    0    0    0  501 -0.00000000000E+00  0.00000000000E+00  0.17669842520E+02  0.17669842520E+02  0.00000000000E+00 0.  1.
          1   -1    0    0  501    0  0.00000000000E+00 -0.00000000000E+00 -0.70509776334E+03  0.70509776334E+03  0.00000000000E+00 0. -1.
         24    1    1    2    0    0 -0.41242835442E+02  0.27957080810E+02 -0.15192193821E+03  0.17896944182E+03  0.80419002446E+02 0. -1.
        -24    1    1    2    0    0  0.41242835442E+02 -0.27957080810E+02 -0.53550598261E+03  0.54379816403E+03  0.80419002446E+02 0.  0.
<mgrwt>
<rscale>  0 0.94603308E+02</rscale>
<asrwt>0</asrwt>
<pdfrwt beam="1">  1        1 0.10847658E+00 0.94603308E+02</pdfrwt>
<pdfrwt beam="2">  1       -1 0.27184372E-02 0.94603308E+02</pdfrwt>
<totfact> 0.11327496E+04</totfact>
</mgrwt>
</event>
<event>
 4    1  0.5124795E-001  0.1038318E+03  0.7546771E-02  0.1272438E+00
         -2   -1    0    0    0  501 -0.00000000000E+00  0.00000000000E+00  0.12366789475E+02  0.12366789475E+02  0.00000000000E+00 0.  1.
          2   -1    0    0  501    0  0.00000000000E+00 -0.00000000000E+00 -0.93747861959E+03  0.93747861959E+03  0.00000000000E+00 0. -1.
         24    1    1    2    0    0 -0.48813286852E+02 -0.43944167266E+02 -0.58828650039E+03  0.59737931777E+03  0.80419002446E+02 0. -1.
        -24    1    1    2    0    0  0.48813286852E+02  0.43944167266E+02 -0.33682532972E+03  0.35246609129E+03  0.80419002446E+02 0.  1.
<mgrwt>
<rscale>  0 0.10383180E+03</rscale>
<asrwt>0</asrwt>
<pdfrwt beam="1">  1        2 0.14422751E+00 0.10383180E+03</pdfrwt>
<pdfrwt beam="2">  1       -2 0.19025826E-02 0.10383180E+03</pdfrwt>
<totfact> 0.22231919E+04</totfact>
</mgrwt>
</event>
<event>
 4    1  0.5124795E-001  0.8862527E+02  0.7546771E-02  0.1306215E+00
          2   -1    0    0  501    0  0.00000000000E+00  0.00000000000E+00  0.29613532477E+03  0.29613532477E+03  0.00000000000E+00 0. -1.
         -2   -1    0    0    0  501 -0.00000000000E+00 -0.00000000000E+00 -0.12618095980E+03  0.12618095980E+03  0.00000000000E+00 0.  1.
         24    1    1    2    0    0  0.33968228194E+01 -0.37090208338E+02  0.27263498044E+03  0.28667799091E+03  0.80419002446E+02 0. -1.
        -24    1    1    2    0    0 -0.33968228194E+01  0.37090208338E+02 -0.10268061547E+03  0.13563829366E+03  0.80419002446E+02 0.  1.
<mgrwt>
<rscale>  0 0.88625267E+02</rscale>
<asrwt>0</asrwt>
<pdfrwt beam="1">  1        2 0.45559281E-01 0.88625267E+02</pdfrwt>
<pdfrwt beam="2">  1       -2 0.19412455E-01 0.88625267E+02</pdfrwt>
<totfact> 0.23431063E+03</totfact>
</mgrwt>
</event>
<event>
 4    1  0.5124795E-001  0.1272416E+03  0.7546771E-02  0.1231607E+00
          2   -1    0    0  501    0  0.00000000000E+00  0.00000000000E+00  0.29156942993E+03  0.29156942993E+03  0.00000000000E+00 0. -1.
         -2   -1    0    0    0  501 -0.00000000000E+00 -0.00000000000E+00 -0.59995154082E+02  0.59995154082E+02  0.00000000000E+00 0.  1.
         24    1    1    2    0    0  0.32636068531E+02 -0.93048883220E+02  0.16375014959E+03  0.20737534830E+03  0.80419002446E+02 0.  0.
        -24    1    1    2    0    0 -0.32636068531E+02  0.93048883220E+02  0.67824126254E+02  0.14418923571E+03  0.80419002446E+02 0. -1.
<mgrwt>
<rscale>  0 0.12724160E+03</rscale>
<asrwt>0</asrwt>
<pdfrwt beam="1">  1        2 0.44856835E-01 0.12724160E+03</pdfrwt>
<pdfrwt beam="2">  1       -2 0.92300238E-02 0.12724160E+03</pdfrwt>
<totfact> 0.80409812E+03</totfact>
</mgrwt>
</event>
<event>
 4    1  0.5124795E-001  0.8539077E+02  0.7546771E-02  0.1314414E+00
          3   -1    0    0  501    0  0.00000000000E+00  0.00000000000E+00  0.10668974196E+03  0.10668974196E+03  0.00000000000E+00 0. -1.
         -3   -1    0    0    0  501 -0.00000000000E+00 -0.00000000000E+00 -0.10007740052E+03  0.10007740052E+03  0.00000000000E+00 0.  1.
         24    1    1    2    0    0  0.75265965008E+01 -0.27707734926E+02 -0.54909925807E+02  0.10152184069E+03  0.80419002446E+02 0. -1.
        -24    1    1    2    0    0 -0.75265965008E+01  0.27707734926E+02  0.61522267241E+02  0.10524530180E+03  0.80419002446E+02 0.  0.
<mgrwt>
<rscale>  0 0.85390773E+02</rscale>
<asrwt>0</asrwt>
<pdfrwt beam="1">  1        3 0.16413806E-01 0.85390773E+02</pdfrwt>
<pdfrwt beam="2">  1       -3 0.15396523E-01 0.85390773E+02</pdfrwt>
<totfact> 0.23554732E+03</totfact>
</mgrwt>
</event>
<event>
 4    1  0.5124795E-001  0.8154539E+02  0.7546771E-02  0.1324722E+00
          1   -1    0    0  501    0  0.00000000000E+00  0.00000000000E+00  0.10435800377E+03  0.10435800377E+03  0.00000000000E+00 0. -1.
         -1   -1    0    0    0  501 -0.00000000000E+00 -0.00000000000E+00 -0.63826867602E+02  0.63826867602E+02  0.00000000000E+00 0.  1.
         24    1    1    2    0    0 -0.12814618203E+02 -0.42681362868E+01  0.23713393226E+02  0.84923332481E+02  0.80419002446E+02 0. -1.
        -24    1    1    2    0    0  0.12814618203E+02  0.42681362868E+01  0.16817742945E+02  0.83261538895E+02  0.80419002446E+02 0.  1.
<mgrwt>
<rscale>  0 0.81545380E+02</rscale>
<asrwt>0</asrwt>
<pdfrwt beam="1">  1        1 0.16055078E-01 0.81545390E+02</pdfrwt>
<pdfrwt beam="2">  1       -1 0.98195181E-02 0.81545390E+02</pdfrwt>
<totfact> 0.18733807E+04</totfact>
</mgrwt>
</event>
<event>
 4    1  0.5124795E-001  0.9275350E+02  0.7546771E-02  0.1296317E+00
          1   -1    0    0  501    0  0.00000000000E+00  0.00000000000E+00  0.18913863418E+04  0.18913863418E+04  0.00000000000E+00 0. -1.
         -1   -1    0    0    0  501 -0.00000000000E+00 -0.00000000000E+00 -0.53536823600E+01  0.53536823600E+01  0.00000000000E+00 0.  1.
         24    1    1    2    0    0  0.36127251090E+02  0.28823911560E+02  0.57525655415E+03  0.58268629227E+03  0.80419002446E+02 0.  1.
        -24    1    1    2    0    0 -0.36127251090E+02 -0.28823911560E+02  0.13107761053E+04  0.13140537319E+04  0.80419002446E+02 0. -1.
<mgrwt>
<rscale>  0 0.92753502E+02</rscale>
<asrwt>0</asrwt>
<pdfrwt beam="1">  1        1 0.29098198E+00 0.92753502E+02</pdfrwt>
<pdfrwt beam="2">  1       -1 0.82364495E-03 0.92753502E+02</pdfrwt>
<totfact> 0.94944479E+03</totfact>
</mgrwt>
</event>
<event>
 4    1  0.5124795E-001  0.9438906E+02  0.7546771E-02  0.1292558E+00
         -2   -1    0    0    0  501 -0.00000000000E+00  0.00000000000E+00  0.53477606023E+01  0.53477606023E+01  0.00000000000E+00 0.  1.
          2   -1    0    0  501    0  0.00000000000E+00 -0.00000000000E+00 -0.20567146363E+04  0.20567146363E+04  0.00000000000E+00 0. -1.
         24    1    1    2    0    0  0.45886336915E+02  0.18344574887E+02 -0.14750722997E+04  0.14780891667E+04  0.80419002446E+02 0.  0.
        -24    1    1    2    0    0 -0.45886336915E+02 -0.18344574887E+02 -0.57629457594E+03  0.58397323017E+03  0.80419002446E+02 0. -1.
<mgrwt>
<rscale>  0 0.94389063E+02</rscale>
<asrwt>0</asrwt>
<pdfrwt beam="1">  1        2 0.31641741E+00 0.94389063E+02</pdfrwt>
<pdfrwt beam="2">  1       -2 0.82273299E-03 0.94389063E+02</pdfrwt>
<totfact> 0.18752583E+04</totfact>
</mgrwt>
</event>
<event>
 4    1  0.5124795E-001  0.1447128E+03  0.7546771E-02  0.1207125E+00
          2   -1    0    0  501    0  0.00000000000E+00  0.00000000000E+00  0.19066041461E+04  0.19066041461E+04  0.00000000000E+00 0. -1.
         -2   -1    0    0    0  501 -0.00000000000E+00 -0.00000000000E+00 -0.11487572154E+02  0.11487572154E+02  0.00000000000E+00 0.  1.
         24    1    1    2    0    0  0.82617962918E+02 -0.87457705668E+02  0.11483909382E+04  0.11574729116E+04  0.80419002446E+02 0.  1.
        -24    1    1    2    0    0 -0.82617962918E+02  0.87457705668E+02  0.74672563571E+03  0.76061880667E+03  0.80419002446E+02 0. -1.
<mgrwt>
<rscale>  0 0.14471280E+03</rscale>
<asrwt>0</asrwt>
<pdfrwt beam="1">  1        2 0.29332346E+00 0.14471280E+03</pdfrwt>
<pdfrwt beam="2">  1       -2 0.17673203E-02 0.14471280E+03</pdfrwt>
<totfact> 0.76178505E+03</totfact>
</mgrwt>
</event>
<event>
 4    1  0.5124795E-001  0.8359506E+02  0.7546771E-02  0.1319148E+00
          2   -1    0    0  501    0  0.00000000000E+00  0.00000000000E+00  0.16372947941E+04  0.16372947941E+04  0.00000000000E+00 0. -1.
         -2   -1    0    0    0  501 -0.00000000000E+00 -0.00000000000E+00 -0.96157197263E+01  0.96157197263E+01  0.00000000000E+00 0.  1.
         24    1    1    2    0    0  0.22058050551E+02 -0.58617712448E+01  0.14279259181E+04  0.14303707777E+04  0.80419002446E+02 0. -1.
        -24    1    1    2    0    0 -0.22058050551E+02  0.58617712448E+01  0.19975315625E+03  0.21653973617E+03  0.80419002446E+02 0.  1.
<mgrwt>
<rscale>  0 0.83595059E+02</rscale>
<asrwt>0</asrwt>
<pdfrwt beam="1">  1        2 0.25189129E+00 0.83595059E+02</pdfrwt>
<pdfrwt beam="2">  1       -2 0.14793428E-02 0.83595059E+02</pdfrwt>
<totfact> 0.13162182E+04</totfact>
</mgrwt>
</event>
<event>
 4    1  0.5124795E-001  0.1008273E+03  0.7546771E-02  0.1278566E+00
         -2   -1    0    0    0  501 -0.00000000000E+00  0.00000000000E+00  0.36706645934E+02  0.36706645934E+02  0.00000000000E+00 0.  1.
          2   -1    0    0  501    0  0.00000000000E+00 -0.00000000000E+00 -0.30310007893E+03  0.30310007893E+03  0.00000000000E+00 0. -1.
         24    1    1    2    0    0  0.20527836376E+02  0.57249646393E+02 -0.83297391443E+02  0.13078450005E+03  0.80419002446E+02 0.  0.
        -24    1    1    2    0    0 -0.20527836376E+02 -0.57249646393E+02 -0.18309604155E+03  0.20902222481E+03  0.80419002446E+02 0.  0.
<mgrwt>
<rscale>  0 0.10082724E+03</rscale>
<asrwt>0</asrwt>
<pdfrwt beam="1">  1        2 0.46630778E-01 0.10082725E+03</pdfrwt>
<pdfrwt beam="2">  1       -2 0.56471767E-02 0.10082725E+03</pdfrwt>
<totfact> 0.16034283E+04</totfact>
</mgrwt>
</event>
<event>
 4    1  0.5124795E-001  0.9479785E+02  0.7546771E-02  0.1291632E+00
          2   -1    0    0  501    0  0.00000000000E+00  0.00000000000E+00  0.76062816518E+03  0.76062816518E+03  0.00000000000E+00 0. -1.
         -2   -1    0    0    0  501 -0.00000000000E+00 -0.00000000000E+00 -0.37839651428E+02  0.37839651428E+02  0.00000000000E+00 0.  1.
         24    1    1    2    0    0 -0.42658051048E+02  0.26451984451E+02  0.69248603092E+03  0.69894458706E+03  0.80419002446E+02 0. -1.
        -24    1    1    2    0    0  0.42658051048E+02 -0.26451984451E+02  0.30302482835E+02  0.99523229554E+02  0.80419002446E+02 0.  1.
<mgrwt>
<rscale>  0 0.94797852E+02</rscale>
<asrwt>0</asrwt>
<pdfrwt beam="1">  1        2 0.11701971E+00 0.94797852E+02</pdfrwt>
<pdfrwt beam="2">  1       -2 0.58214854E-02 0.94797852E+02</pdfrwt>
<totfact> 0.55782409E+03</totfact>
</mgrwt>
</event>
<event>
 4    1  0.5124795E-001  0.8800245E+02  0.7546771E-02  0.1307762E+00
         -1   -1    0    0    0  501 -0.00000000000E+00  0.00000000000E+00  0.65487436077E+02  0.65487436077E+02  0.00000000000E+00 0.  1.
          1   -1    0    0  501    0  0.00000000000E+00 -0.00000000000E+00 -0.11873167720E+03  0.11873167720E+03  0.00000000000E+00 0. -1.
         24    1    1    2    0    0 -0.11522007328E+02 -0.33829836197E+02 -0.20805883073E+02  0.90428508750E+02  0.80419002446E+02 0. -1.
        -24    1    1    2    0    0  0.11522007328E+02  0.33829836197E+02 -0.32438358048E+02  0.93790604525E+02  0.80419002446E+02 0.  1.
<mgrwt>
<rscale>  0 0.88002446E+02</rscale>
<asrwt>0</asrwt>
<pdfrwt beam="1">  1        1 0.18266412E-01 0.88002446E+02</pdfrwt>
<pdfrwt beam="2">  1       -1 0.10074990E-01 0.88002446E+02</pdfrwt>
<totfact> 0.15438638E+04</totfact>
</mgrwt>
</event>
<event>
 4    1  0.5124795E-001  0.8993893E+02  0.7546771E-02  0.1303000E+00
          2   -1    0    0  501    0  0.00000000000E+00  0.00000000000E+00  0.17764019561E+03  0.17764019561E+03  0.00000000000E+00 0. -1.
         -2   -1    0    0    0  501 -0.00000000000E+00 -0.00000000000E+00 -0.46534582152E+02  0.46534582152E+02  0.00000000000E+00 0.  1.
         24    1    1    2    0    0 -0.16364222558E+02  0.36796772496E+02  0.49132454595E+02  0.10248416607E+03  0.80419002446E+02 0. -1.
        -24    1    1    2    0    0  0.16364222558E+02 -0.36796772496E+02  0.81973158866E+02  0.12169061170E+03  0.80419002446E+02 0.  0.
<mgrwt>
<rscale>  0 0.89938914E+02</rscale>
<asrwt>0</asrwt>
<pdfrwt beam="1">  1        2 0.27329260E-01 0.89938925E+02</pdfrwt>
<pdfrwt beam="2">  1       -2 0.71591666E-02 0.89938925E+02</pdfrwt>
<totfact> 0.19518446E+04</totfact>
</mgrwt>
</event>
<event>
 4    1  0.5124795E-001  0.9341534E+02  0.7546771E-02  0.1294786E+00
          1   -1    0    0  501    0  0.00000000000E+00  0.00000000000E+00  0.15796335892E+03  0.15796335892E+03  0.00000000000E+00 0. -1.
         -1   -1    0    0    0  501 -0.00000000000E+00 -0.00000000000E+00 -0.59581115480E+02  0.59581115480E+02  0.00000000000E+00 0.  1.
         24    1    1    2    0    0  0.45937812208E+02 -0.12203544800E+02  0.19841885506E+02  0.95499348013E+02  0.80419002446E+02 0.  1.
        -24    1    1    2    0    0 -0.45937812208E+02  0.12203544800E+02  0.78540357932E+02  0.12204512639E+03  0.80419002446E+02 0. -1.
<mgrwt>
<rscale>  0 0.93415336E+02</rscale>
<asrwt>0</asrwt>
<pdfrwt beam="1">  1        1 0.24302055E-01 0.93415336E+02</pdfrwt>
<pdfrwt beam="2">  1       -1 0.91663255E-02 0.93415336E+02</pdfrwt>
<totfact> 0.12528687E+04</totfact>
</mgrwt>
</event>
<event>
 4    1  0.5124795E-001  0.8239074E+02  0.7546771E-02  0.1322401E+00
          1   -1    0    0  501    0  0.00000000000E+00  0.00000000000E+00  0.17052751270E+03  0.17052751270E+03  0.00000000000E+00 0. -1.
         -1   -1    0    0    0  501 -0.00000000000E+00 -0.00000000000E+00 -0.49720680471E+02  0.49720680471E+02  0.00000000000E+00 0.  1.
         24    1    1    2    0    0 -0.47644472015E+01  0.17271898379E+02  0.11230561966E+02  0.83152630188E+02  0.80419002446E+02 0.  0.
        -24    1    1    2    0    0  0.47644472015E+01 -0.17271898379E+02  0.10957627026E+03  0.13709556298E+03  0.80419002446E+02 0.  0.
<mgrwt>
<rscale>  0 0.82390742E+02</rscale>
<asrwt>0</asrwt>
<pdfrwt beam="1">  1        1 0.26235002E-01 0.82390742E+02</pdfrwt>
<pdfrwt beam="2">  1       -1 0.76493356E-02 0.82390742E+02</pdfrwt>
<totfact> 0.14744573E+04</totfact>
</mgrwt>
</event>
<event>
 4    1  0.5124795E-001  0.8204630E+02  0.7546771E-02  0.1323343E+00
         -1   -1    0    0    0  501 -0.00000000000E+00  0.00000000000E+00  0.13500861660E+03  0.13500861660E+03  0.00000000000E+00 0.  1.
          1   -1    0    0  501    0  0.00000000000E+00 -0.00000000000E+00 -0.53447333157E+02  0.53447333157E+02  0.00000000000E+00 0. -1.
         24    1    1    2    0    0  0.15421982819E+02 -0.51515325338E+01  0.16370246202E+02  0.83663473252E+02  0.80419002446E+02 0.  1.
        -24    1    1    2    0    0 -0.15421982819E+02  0.51515325338E+01  0.65191037244E+02  0.10479247651E+03  0.80419002446E+02 0.  1.
<mgrwt>
<rscale>  0 0.82046289E+02</rscale>
<asrwt>0</asrwt>
<pdfrwt beam="1">  1        1 0.82226667E-02 0.82046299E+02</pdfrwt>
<pdfrwt beam="2">  1       -1 0.20770556E-01 0.82046299E+02</pdfrwt>
<totfact> 0.14040400E+04</totfact>
</mgrwt>
</event>
<event>
 4    1  0.5124795E-001  0.1113275E+03  0.7546771E-02  0.1258131E+00
          2   -1    0    0  501    0  0.00000000000E+00  0.00000000000E+00  0.17171579519E+03  0.17171579519E+03  0.00000000000E+00 0. -1.
         -2   -1    0    0    0  501 -0.00000000000E+00 -0.00000000000E+00 -0.10553897730E+03  0.10553897730E+03  0.00000000000E+00 0.  1.
         24    1    1    2    0    0  0.21066264556E+02  0.74045982089E+02  0.11103067624E+03  0.15723111011E+03  0.80419002446E+02 0. -1.
        -24    1    1    2    0    0 -0.21066264556E+02 -0.74045982089E+02 -0.44853858349E+02  0.12002366237E+03  0.80419002446E+02 0.  1.
<mgrwt>
<rscale>  0 0.11132749E+03</rscale>
<asrwt>0</asrwt>
<pdfrwt beam="1">  1        2 0.26417815E-01 0.11132749E+03</pdfrwt>
<pdfrwt beam="2">  1       -2 0.16236766E-01 0.11132749E+03</pdfrwt>
<totfact> 0.56953626E+03</totfact>
</mgrwt>
</event>
<event>
 4    1  0.5124795E-001  0.8554111E+02  0.7546771E-02  0.1314024E+00
          1   -1    0    0  501    0  0.00000000000E+00  0.00000000000E+00  0.31615604292E+02  0.31615604292E+02  0.00000000000E+00 0. -1.
         -1   -1    0    0    0  501 -0.00000000000E+00 -0.00000000000E+00 -0.28364560185E+03  0.28364560185E+03  0.00000000000E+00 0.  1.
         24    1    1    2    0    0  0.17313760273E+02 -0.23458445725E+02 -0.19363719833E+03  0.21168997496E+03  0.80419002446E+02 0.  0.
        -24    1    1    2    0    0 -0.17313760273E+02  0.23458445725E+02 -0.58392799227E+02  0.10357123117E+03  0.80419002446E+02 0. -1.
<mgrwt>
<rscale>  0 0.85541107E+02</rscale>
<asrwt>0</asrwt>
<pdfrwt beam="1">  1        1 0.48639393E-02 0.85541107E+02</pdfrwt>
<pdfrwt beam="2">  1       -1 0.43637784E-01 0.85541107E+02</pdfrwt>
<totfact> 0.82650060E+03</totfact>
</mgrwt>
</event>
<event>
 4    1  0.5124795E-001  0.9928981E+02  0.7546771E-02  0.1281796E+00
          2   -1    0    0  501    0  0.00000000000E+00  0.00000000000E+00  0.60380507495E+03  0.60380507495E+03  0.00000000000E+00 0. -1.
         -2   -1    0    0    0  501 -0.00000000000E+00 -0.00000000000E+00 -0.18848744301E+02  0.18848744301E+02  0.00000000000E+00 0.  1.
         24    1    1    2    0    0  0.28987308150E+02 -0.50507296773E+02  0.40634723818E+03  0.41830197823E+03  0.80419002446E+02 0. -1.
        -24    1    1    2    0    0 -0.28987308150E+02  0.50507296773E+02  0.17860909247E+03  0.20435184102E+03  0.80419002446E+02 0.  1.
<mgrwt>
<rscale>  0 0.99289813E+02</rscale>
<asrwt>0</asrwt>
<pdfrwt beam="1">  1        2 0.92893074E-01 0.99289813E+02</pdfrwt>
<pdfrwt beam="2">  1       -2 0.28998073E-02 0.99289813E+02</pdfrwt>
<totfact> 0.20462364E+04</totfact>
</mgrwt>
</event>
<event>
 4    1  0.5124795E-001  0.8915478E+02  0.7546771E-02  0.1304912E+00
         -2   -1    0    0    0  501 -0.00000000000E+00  0.00000000000E+00  0.60889441004E+02  0.60889441004E+02  0.00000000000E+00 0.  1.
          2   -1    0    0  501    0  0.00000000000E+00 -0.00000000000E+00 -0.66692498495E+03  0.66692498495E+03  0.00000000000E+00 0. -1.
         24    1    1    2    0    0 -0.32498171958E+02  0.20621062282E+02 -0.62937258787E+03  0.63565590511E+03  0.80419002446E+02 0. -1.
        -24    1    1    2    0    0  0.32498171958E+02 -0.20621062282E+02  0.23337043922E+02  0.92158520841E+02  0.80419002446E+02 0.  1.
<mgrwt>
<rscale>  0 0.89154783E+02</rscale>
<asrwt>0</asrwt>
<pdfrwt beam="1">  1        2 0.10260383E+00 0.89154783E+02</pdfrwt>
<pdfrwt beam="2">  1       -2 0.93676073E-02 0.89154783E+02</pdfrwt>
<totfact> 0.31474764E+03</totfact>
</mgrwt>
</event>
<event>
 4    1  0.5124795E-001  0.1017287E+03  0.7546771E-02  0.1276702E+00
          2   -1    0    0  501    0  0.00000000000E+00  0.00000000000E+00  0.14820555686E+04  0.14820555686E+04  0.00000000000E+00 0. -1.
         -2   -1    0    0    0  501 -0.00000000000E+00 -0.00000000000E+00 -0.71679039362E+01  0.71679039362E+01  0.00000000000E+00 0.  1.
         24    1    1    2    0    0  0.28199406748E+02 -0.55554560565E+02  0.85713797999E+03  0.86315366444E+03  0.80419002446E+02 0.  1.
        -24    1    1    2    0    0 -0.28199406748E+02  0.55554560565E+02  0.61774968466E+03  0.62606980808E+03  0.80419002446E+02 0. -1.
<mgrwt>
<rscale>  0 0.10172872E+03</rscale>
<asrwt>0</asrwt>
<pdfrwt beam="1">  1        2 0.22800831E+00 0.10172872E+03</pdfrwt>
<pdfrwt beam="2">  1       -2 0.11027556E-02 0.10172872E+03</pdfrwt>
<totfact> 0.24287463E+04</totfact>
</mgrwt>
</event>
<event>
 4    1  0.5124795E-001  0.8333328E+02  0.7546771E-02  0.1319850E+00
          2   -1    0    0  501    0  0.00000000000E+00  0.00000000000E+00  0.17044850301E+03  0.17044850301E+03  0.00000000000E+00 0. -1.
         -2   -1    0    0    0  501 -0.00000000000E+00 -0.00000000000E+00 -0.21384899853E+03  0.21384899853E+03  0.00000000000E+00 0.  1.
         24    1    1    2    0    0 -0.42579657848E+01 -0.21426365508E+02  0.15117829886E+03  0.17262477636E+03  0.80419002446E+02 0. -1.
        -24    1    1    2    0    0  0.42579657848E+01  0.21426365508E+02 -0.19457879438E+03  0.21167272518E+03  0.80419002446E+02 0.  1.
<mgrwt>
<rscale>  0 0.83333279E+02</rscale>
<asrwt>0</asrwt>
<pdfrwt beam="1">  1        2 0.26222847E-01 0.83333279E+02</pdfrwt>
<pdfrwt beam="2">  1       -2 0.32899846E-01 0.83333279E+02</pdfrwt>
<totfact> 0.16791878E+03</totfact>
</mgrwt>
</event>
<event>
 4    1  0.5124795E-001  0.1025596E+03  0.7546771E-02  0.1275004E+00
         -2   -1    0    0    0  501 -0.00000000000E+00  0.00000000000E+00  0.30812218047E+03  0.30812218047E+03  0.00000000000E+00 0.  1.
          2   -1    0    0  501    0  0.00000000000E+00 -0.00000000000E+00 -0.37731017334E+02  0.37731017334E+02  0.00000000000E+00 0. -1.
         24    1    1    2    0    0 -0.36996361921E+02  0.51793067866E+02  0.81827367169E+02  0.13120284542E+03  0.80419002446E+02 0. -1.
        -24    1    1    2    0    0  0.36996361921E+02 -0.51793067866E+02  0.18856379596E+03  0.21465035238E+03  0.80419002446E+02 0.  1.
<mgrwt>
<rscale>  0 0.10255959E+03</rscale>
<asrwt>0</asrwt>
<pdfrwt beam="1">  1        2 0.58047721E-02 0.10255959E+03</pdfrwt>
<pdfrwt beam="2">  1       -2 0.47403411E-01 0.10255959E+03</pdfrwt>
<totfact> 0.51098369E+03</totfact>
</mgrwt>
</event>
<event>
 4    1  0.5124795E-001  0.1434157E+03  0.7546771E-02  0.1208805E+00
         -2   -1    0    0    0  501 -0.00000000000E+00  0.00000000000E+00  0.10292193360E+03  0.10292193360E+03  0.00000000000E+00 0.  1.
          2   -1    0    0  501    0  0.00000000000E+00 -0.00000000000E+00 -0.62639832539E+03  0.62639832539E+03  0.00000000000E+00 0. -1.
         24    1    1    2    0    0  0.11545559555E+03 -0.27764176895E+02 -0.56265850745E+03  0.58064847888E+03  0.80419002446E+02 0. -1.
        -24    1    1    2    0    0 -0.11545559555E+03  0.27764176895E+02  0.39182115663E+02  0.14867178012E+03  0.80419002446E+02 0.  1.
<mgrwt>
<rscale>  0 0.14341569E+03</rscale>
<asrwt>0</asrwt>
<pdfrwt beam="1">  1        2 0.96368975E-01 0.14341569E+03</pdfrwt>
<pdfrwt beam="2">  1       -2 0.15834143E-01 0.14341569E+03</pdfrwt>
<totfact> 0.14870085E+03</totfact>
</mgrwt>
</event>
<event>
 4    1  0.5124795E-001  0.8788830E+02  0.7546771E-02  0.1308048E+00
          2   -1    0    0  501    0  0.00000000000E+00  0.00000000000E+00  0.84482339015E+03  0.84482339015E+03  0.00000000000E+00 0. -1.
         -2   -1    0    0    0  501 -0.00000000000E+00 -0.00000000000E+00 -0.12427937400E+02  0.12427937400E+02  0.00000000000E+00 0.  1.
         24    1    1    2    0    0  0.18776933982E+02  0.30075970412E+02  0.63655723155E+03  0.64259587785E+03  0.80419002446E+02 0. -1.
        -24    1    1    2    0    0 -0.18776933982E+02 -0.30075970412E+02  0.19583822121E+03  0.21465544970E+03  0.80419002446E+02 0.  1.
<mgrwt>
<rscale>  0 0.87888300E+02</rscale>
<asrwt>0</asrwt>
<pdfrwt beam="1">  1        2 0.12997278E+00 0.87888300E+02</pdfrwt>
<pdfrwt beam="2">  1       -2 0.19119910E-02 0.87888300E+02</pdfrwt>
<totfact> 0.24841214E+04</totfact>
</mgrwt>
</event>
<event>
 4    1  0.5124795E-001  0.1149060E+03  0.7546771E-02  0.1251745E+00
          2   -1    0    0  501    0  0.00000000000E+00  0.00000000000E+00  0.97435499233E+03  0.97435499233E+03  0.00000000000E+00 0. -1.
         -2   -1    0    0    0  501 -0.00000000000E+00 -0.00000000000E+00 -0.14835944892E+02  0.14835944892E+02  0.00000000000E+00 0.  1.
         24    1    1    2    0    0  0.67719431948E+02  0.46370846619E+02  0.33419663125E+03  0.35339889809E+03  0.80419002446E+02 0.  1.
        -24    1    1    2    0    0 -0.67719431948E+02 -0.46370846619E+02  0.62532241618E+03  0.63579203913E+03  0.80419002446E+02 0. -1.
<mgrwt>
<rscale>  0 0.11490603E+03</rscale>
<asrwt>0</asrwt>
<pdfrwt beam="1">  1        2 0.14990072E+00 0.11490605E+03</pdfrwt>
<pdfrwt beam="2">  1       -2 0.22824538E-02 0.11490605E+03</pdfrwt>
<totfact> 0.16364370E+04</totfact>
</mgrwt>
</event>
<event>
 4    1  0.5124795E-001  0.8256090E+02  0.7546771E-02  0.1321937E+00
         -1   -1    0    0    0  501 -0.00000000000E+00  0.00000000000E+00  0.56939830915E+01  0.56939830915E+01  0.00000000000E+00 0.  1.
          1   -1    0    0  501    0  0.00000000000E+00 -0.00000000000E+00 -0.16096301936E+04  0.16096301936E+04  0.00000000000E+00 0. -1.
         24    1    1    2    0    0  0.18664547560E+02 -0.84954912397E+00 -0.39309250251E+03  0.40166904107E+03  0.80419002446E+02 0.  0.
        -24    1    1    2    0    0 -0.18664547560E+02  0.84954912397E+00 -0.12108437080E+04  0.12136551357E+04  0.80419002446E+02 0. -1.
<mgrwt>
<rscale>  0 0.82560905E+02</rscale>
<asrwt>0</asrwt>
<pdfrwt beam="1">  1        1 0.24763551E+00 0.82560905E+02</pdfrwt>
<pdfrwt beam="2">  1       -1 0.87599707E-03 0.82560905E+02</pdfrwt>
<totfact> 0.12990175E+04</totfact>
</mgrwt>
</event>
<event>
 4    1  0.5124795E-001  0.8209930E+02  0.7546771E-02  0.1323197E+00
         -2   -1    0    0    0  501 -0.00000000000E+00  0.00000000000E+00  0.22509785454E+02  0.22509785454E+02  0.00000000000E+00 0.  1.
          2   -1    0    0  501    0  0.00000000000E+00 -0.00000000000E+00 -0.10012653473E+04  0.10012653473E+04  0.00000000000E+00 0. -1.
         24    1    1    2    0    0  0.15547810900E+02 -0.55985939284E+01 -0.91794110382E+03  0.92160521087E+03  0.80419002446E+02 0. -1.
        -24    1    1    2    0    0 -0.15547810900E+02  0.55985939284E+01 -0.60814458034E+02  0.10216992189E+03  0.80419002446E+02 0.  1.
<mgrwt>
<rscale>  0 0.82099297E+02</rscale>
<asrwt>0</asrwt>
<pdfrwt beam="1">  1        2 0.15404085E+00 0.82099297E+02</pdfrwt>
<pdfrwt beam="2">  1       -2 0.34630432E-02 0.82099297E+02</pdfrwt>
<totfact> 0.84098861E+03</totfact>
</mgrwt>
</event>
<event>
 4    1  0.5124795E-001  0.8670692E+02  0.7546771E-02  0.1311028E+00
         -1   -1    0    0    0  501 -0.00000000000E+00  0.00000000000E+00  0.10897643486E+02  0.10897643486E+02  0.00000000000E+00 0.  1.
          1   -1    0    0  501    0  0.00000000000E+00 -0.00000000000E+00 -0.11840415011E+04  0.11840415011E+04  0.00000000000E+00 0. -1.
         24    1    1    2    0    0  0.14815430345E+02  0.28833599960E+02 -0.20059099603E+03  0.21852880154E+03  0.80419002446E+02 0.  0.
        -24    1    1    2    0    0 -0.14815430345E+02 -0.28833599960E+02 -0.97255286162E+03  0.97641034307E+03  0.80419002446E+02 0.  0.
<mgrwt>
<rscale>  0 0.86706917E+02</rscale>
<asrwt>0</asrwt>
<pdfrwt beam="1">  1        1 0.18216007E+00 0.86706917E+02</pdfrwt>
<pdfrwt beam="2">  1       -1 0.16765620E-02 0.86706917E+02</pdfrwt>
<totfact> 0.98278289E+03</totfact>
</mgrwt>
</event>
<event>
 4    1  0.5124795E-001  0.8512947E+02  0.7546771E-02  0.1315094E+00
         -2   -1    0    0    0  501 -0.00000000000E+00  0.00000000000E+00  0.10982708206E+02  0.10982708206E+02  0.00000000000E+00 0.  1.
          2   -1    0    0  501    0  0.00000000000E+00 -0.00000000000E+00 -0.33491431036E+04  0.33491431036E+04  0.00000000000E+00 0. -1.
         24    1    1    2    0    0 -0.16502838665E+02  0.22527042868E+02 -0.31745675737E+04  0.31757087881E+04  0.80419002446E+02 0. -1.
        -24    1    1    2    0    0  0.16502838665E+02 -0.22527042868E+02 -0.16359282177E+03  0.18441702371E+03  0.80419002446E+02 0.  1.
<mgrwt>
<rscale>  0 0.85129474E+02</rscale>
<asrwt>0</asrwt>
<pdfrwt beam="1">  1        2 0.51525338E+00 0.85129474E+02</pdfrwt>
<pdfrwt beam="2">  1       -2 0.16896455E-02 0.85129474E+02</pdfrwt>
<totfact> 0.13281148E+03</totfact>
</mgrwt>
</event>
<event>
 4    1  0.5124795E-001  0.8144237E+02  0.7546771E-02  0.1325007E+00
         -2   -1    0    0    0  501 -0.00000000000E+00  0.00000000000E+00  0.12988858225E+04  0.12988858225E+04  0.00000000000E+00 0.  1.
          2   -1    0    0  501    0  0.00000000000E+00 -0.00000000000E+00 -0.51078792735E+01  0.51078792735E+01  0.00000000000E+00 0. -1.
         24    1    1    2    0    0  0.12837359035E+02  0.92005729936E+00  0.63647768209E+03  0.64166712557E+03  0.80419002446E+02 0. -1.
        -24    1    1    2    0    0 -0.12837359035E+02 -0.92005729936E+00  0.65730026112E+03  0.66232657618E+03  0.80419002446E+02 0.  1.
<mgrwt>
<rscale>  0 0.81442374E+02</rscale>
<asrwt>0</asrwt>
<pdfrwt beam="1">  1        2 0.78582862E-03 0.81442374E+02</pdfrwt>
<pdfrwt beam="2">  1       -2 0.19982832E+00 0.81442374E+02</pdfrwt>
<totfact> 0.26583407E+03</totfact>
</mgrwt>
</event>
<event>
 4    1  0.5124795E-001  0.8256491E+02  0.7546771E-02  0.1321926E+00
         -2   -1    0    0    0  501 -0.00000000000E+00  0.00000000000E+00  0.27758686420E+02  0.27758686420E+02  0.00000000000E+00 0.  1.
          2   -1    0    0  501    0  0.00000000000E+00 -0.00000000000E+00 -0.43748936921E+03  0.43748936921E+03  0.00000000000E+00 0. -1.
         24    1    1    2    0    0  0.15290410336E+02  0.10768069044E+02 -0.35893584096E+03  0.36830951907E+03  0.80419002446E+02 0.  0.
        -24    1    1    2    0    0 -0.15290410336E+02 -0.10768069044E+02 -0.50794841832E+02  0.96938536560E+02  0.80419002446E+02 0.  1.
<mgrwt>
<rscale>  0 0.82564907E+02</rscale>
<asrwt>0</asrwt>
<pdfrwt beam="1">  1        2 0.67306056E-01 0.82564907E+02</pdfrwt>
<pdfrwt beam="2">  1       -2 0.42705672E-02 0.82564907E+02</pdfrwt>
<totfact> 0.16197961E+04</totfact>
</mgrwt>
</event>
<event>
 4    1  0.5124795E-001  0.8369608E+02  0.7546771E-02  0.1318878E+00
          1   -1    0    0  501    0  0.00000000000E+00  0.00000000000E+00  0.24621730141E+02  0.24621730141E+02  0.00000000000E+00 0. -1.
         -1   -1    0    0    0  501 -0.00000000000E+00 -0.00000000000E+00 -0.12812191718E+04  0.12812191718E+04  0.00000000000E+00 0.  1.
         24    1    1    2    0    0  0.22575689773E+02 -0.53062484795E+01 -0.12041808751E+04  0.12070860011E+04  0.80419002446E+02 0.  1.
        -24    1    1    2    0    0 -0.22575689773E+02  0.53062484795E+01 -0.52416566533E+02  0.98754900856E+02  0.80419002446E+02 0. -1.
<mgrwt>
<rscale>  0 0.83696081E+02</rscale>
<asrwt>0</asrwt>
<pdfrwt beam="1">  1        1 0.37879586E-02 0.83696081E+02</pdfrwt>
<pdfrwt beam="2">  1       -1 0.19711063E+00 0.83696081E+02</pdfrwt>
<totfact> 0.42386260E+02</totfact>
</mgrwt>
</event>
<event>
 4    1  0.5124795E-001  0.8938088E+02  0.7546771E-02  0.1304358E+00
          1   -1    0    0  501    0  0.00000000000E+00  0.00000000000E+00  0.18187331609E+04  0.18187331609E+04  0.00000000000E+00 0. -1.
         -1   -1    0    0    0  501 -0.00000000000E+00 -0.00000000000E+00 -0.15674388107E+02  0.15674388107E+02  0.00000000000E+00 0.  1.
         24    1    1    2    0    0  0.45710860857E+01 -0.38740552914E+02  0.12338573167E+03  0.15235806510E+03  0.80419002446E+02 0.  1.
        -24    1    1    2    0    0 -0.45710860857E+01  0.38740552914E+02  0.16796730411E+04  0.16820494839E+04  0.80419002446E+02 0. -1.
<mgrwt>
<rscale>  0 0.89380877E+02</rscale>
<asrwt>0</asrwt>
<pdfrwt beam="1">  1        1 0.27980493E+00 0.89380877E+02</pdfrwt>
<pdfrwt beam="2">  1       -1 0.24114458E-02 0.89380877E+02</pdfrwt>
<totfact> 0.22945248E+03</totfact>
</mgrwt>
</event>
<event>
 4    1  0.5124795E-001  0.8326295E+02  0.7546771E-02  0.1320039E+00
          4   -1    0    0  501    0  0.00000000000E+00  0.00000000000E+00  0.16141122123E+03  0.16141122123E+03  0.00000000000E+00 0. -1.
         -4   -1    0    0    0  501 -0.00000000000E+00 -0.00000000000E+00 -0.43462185291E+02  0.43462185291E+02  0.00000000000E+00 0.  1.
         24    1    1    2    0    0 -0.23858381693E+01  0.21443215244E+02  0.70087491478E+02  0.10883462739E+03  0.80419002446E+02 0.  1.
        -24    1    1    2    0    0  0.23858381693E+01 -0.21443215244E+02  0.47861544460E+02  0.96038779127E+02  0.80419002446E+02 0. -1.
<mgrwt>
<rscale>  0 0.83262955E+02</rscale>
<asrwt>0</asrwt>
<pdfrwt beam="1">  1        4 0.24832495E-01 0.83262955E+02</pdfrwt>
<pdfrwt beam="2">  1       -4 0.66864901E-02 0.83262955E+02</pdfrwt>
<totfact> 0.32508468E+03</totfact>
</mgrwt>
</event>
<event>
 4    1  0.5124795E-001  0.8768457E+02  0.7546771E-02  0.1308558E+00
         -2   -1    0    0    0  501 -0.00000000000E+00  0.00000000000E+00  0.38135065589E+02  0.38135065589E+02  0.00000000000E+00 0.  1.
          2   -1    0    0  501    0  0.00000000000E+00 -0.00000000000E+00 -0.20245899196E+03  0.20245899196E+03  0.00000000000E+00 0. -1.
         24    1    1    2    0    0  0.27975584745E+02 -0.20945998017E+02 -0.89931068178E+02  0.12560326888E+03  0.80419002446E+02 0.  0.
        -24    1    1    2    0    0 -0.27975584745E+02  0.20945998017E+02 -0.74392858192E+02  0.11499078867E+03  0.80419002446E+02 0. -1.
<mgrwt>
<rscale>  0 0.87684572E+02</rscale>
<asrwt>0</asrwt>
<pdfrwt beam="1">  1        2 0.31147537E-01 0.87684572E+02</pdfrwt>
<pdfrwt beam="2">  1       -2 0.58669332E-02 0.87684572E+02</pdfrwt>
<totfact> 0.22835177E+04</totfact>
</mgrwt>
</event>
<event>
 4    1  0.5124795E-001  0.1100123E+03  0.7546771E-02  0.1260547E+00
          1   -1    0    0  501    0  0.00000000000E+00  0.00000000000E+00  0.92855304054E+02  0.92855304054E+02  0.00000000000E+00 0. -1.
         -1   -1    0    0    0  501 -0.00000000000E+00 -0.00000000000E+00 -0.21510368403E+03  0.21510368403E+03  0.00000000000E+00 0.  1.
         24    1    1    2    0    0  0.32100311410E+02  0.67860569687E+02 -0.15778389409E+03  0.19234983780E+03  0.80419002446E+02 0.  1.
        -24    1    1    2    0    0 -0.32100311410E+02 -0.67860569687E+02  0.35535514121E+02  0.11560915028E+03  0.80419002446E+02 0. -1.
<mgrwt>
<rscale>  0 0.11001229E+03</rscale>
<asrwt>0</asrwt>
<pdfrwt beam="1">  1        1 0.14285432E-01 0.11001229E+03</pdfrwt>
<pdfrwt beam="2">  1       -1 0.33092874E-01 0.11001229E+03</pdfrwt>
<totfact> 0.32632431E+03</totfact>
</mgrwt>
</event>
<event>
 4    1  0.5124795E-001  0.8213184E+02  0.7546771E-02  0.1323108E+00
         -2   -1    0    0    0  501 -0.00000000000E+00  0.00000000000E+00  0.10496421599E+02  0.10496421599E+02  0.00000000000E+00 0.  1.
          2   -1    0    0  501    0  0.00000000000E+00 -0.00000000000E+00 -0.64616156280E+03  0.64616156280E+03  0.00000000000E+00 0. -1.
         24    1    1    2    0    0  0.34870118363E+00 -0.16682360138E+02 -0.34199942402E+03  0.35172325018E+03  0.80419002446E+02 0.  0.
        -24    1    1    2    0    0 -0.34870118363E+00  0.16682360138E+02 -0.29366571718E+03  0.30493473422E+03  0.80419002446E+02 0.  0.
<mgrwt>
<rscale>  0 0.82131837E+02</rscale>
<asrwt>0</asrwt>
<pdfrwt beam="1">  1        2 0.99409460E-01 0.82131837E+02</pdfrwt>
<pdfrwt beam="2">  1       -2 0.16148343E-02 0.82131837E+02</pdfrwt>
<totfact> 0.43137265E+04</totfact>
</mgrwt>
</event>
<event>
 4    1  0.5124795E-001  0.1048432E+03  0.7546771E-02  0.1270429E+00
         -1   -1    0    0    0  501 -0.00000000000E+00  0.00000000000E+00  0.30053591382E+02  0.30053591382E+02  0.00000000000E+00 0.  1.
          1   -1    0    0  501    0  0.00000000000E+00 -0.00000000000E+00 -0.58163125278E+03  0.58163125278E+03  0.00000000000E+00 0. -1.
         24    1    1    2    0    0  0.34102378599E+02 -0.57981935058E+02 -0.89459342000E+02  0.13782259192E+03  0.80419002446E+02 0.  1.
        -24    1    1    2    0    0 -0.34102378599E+02  0.57981935058E+02 -0.46211831940E+03  0.47386225224E+03  0.80419002446E+02 0.  0.
<mgrwt>
<rscale>  0 0.10484318E+03</rscale>
<asrwt>0</asrwt>
<pdfrwt beam="1">  1        1 0.89481724E-01 0.10484318E+03</pdfrwt>
<pdfrwt beam="2">  1       -1 0.46236298E-02 0.10484318E+03</pdfrwt>
<totfact> 0.68757095E+03</totfact>
</mgrwt>
</event>
<event>
 4    1  0.5124795E-001  0.9318070E+02  0.7546771E-02  0.1295327E+00
         -2   -1    0    0    0  501 -0.00000000000E+00  0.00000000000E+00  0.14870826587E+02  0.14870826587E+02  0.00000000000E+00 0.  1.
          2   -1    0    0  501    0  0.00000000000E+00 -0.00000000000E+00 -0.89961576557E+03  0.89961576557E+03  0.00000000000E+00 0. -1.
         24    1    1    2    0    0  0.44392282368E+02 -0.15644570834E+02 -0.71325871179E+03  0.71931956266E+03  0.80419002446E+02 0.  0.
        -24    1    1    2    0    0 -0.44392282368E+02  0.15644570834E+02 -0.17148622720E+03  0.19516702950E+03  0.80419002446E+02 0. -1.
<mgrwt>
<rscale>  0 0.93180702E+02</rscale>
<asrwt>0</asrwt>
<pdfrwt beam="1">  1        2 0.13840243E+00 0.93180702E+02</pdfrwt>
<pdfrwt beam="2">  1       -2 0.22878193E-02 0.93180702E+02</pdfrwt>
<totfact> 0.17818837E+04</totfact>
</mgrwt>
</event>
<event>
 4    1  0.5124795E-001  0.8515779E+02  0.7546771E-02  0.1315020E+00
         -3   -1    0    0    0  501 -0.00000000000E+00  0.00000000000E+00  0.86308949868E+02  0.86308949868E+02  0.00000000000E+00 0.  1.
          3   -1    0    0  501    0  0.00000000000E+00 -0.00000000000E+00 -0.87109501849E+02  0.87109501849E+02  0.00000000000E+00 0. -1.
         24    1    1    2    0    0  0.27966234148E+02  0.15883687133E+01  0.15924128593E+02  0.86633867473E+02  0.80419002446E+02 0.  1.
        -24    1    1    2    0    0 -0.27966234148E+02 -0.15883687133E+01 -0.16724680574E+02  0.86784584243E+02  0.80419002446E+02 0. -1.
<mgrwt>
<rscale>  0 0.85157790E+02</rscale>
<asrwt>0</asrwt>
<pdfrwt beam="1">  1        3 0.13401462E-01 0.85157790E+02</pdfrwt>
<pdfrwt beam="2">  1       -3 0.13278300E-01 0.85157790E+02</pdfrwt>
<totfact> 0.42547938E+03</totfact>
</mgrwt>
</event>
<event>
 4    1  0.5124795E-001  0.8323623E+02  0.7546771E-02  0.1320111E+00
          2   -1    0    0  501    0  0.00000000000E+00  0.00000000000E+00  0.36051016885E+02  0.36051016885E+02  0.00000000000E+00 0. -1.
         -2   -1    0    0    0  501 -0.00000000000E+00 -0.00000000000E+00 -0.21423090317E+03  0.21423090317E+03  0.00000000000E+00 0.  1.
         24    1    1    2    0    0 -0.16471195737E+02 -0.13774992014E+02 -0.12923910374E+03  0.15372381918E+03  0.80419002446E+02 0.  0.
        -24    1    1    2    0    0  0.16471195737E+02  0.13774992014E+02 -0.48940782546E+02  0.96558100875E+02  0.80419002446E+02 0.  0.
<mgrwt>
<rscale>  0 0.83236220E+02</rscale>
<asrwt>0</asrwt>
<pdfrwt beam="1">  1        2 0.55463102E-02 0.83236231E+02</pdfrwt>
<pdfrwt beam="2">  1       -2 0.32958601E-01 0.83236231E+02</pdfrwt>
<totfact> 0.10488693E+04</totfact>
</mgrwt>
</event>
<event>
 4    1  0.5124795E-001  0.8216933E+02  0.7546771E-02  0.1323006E+00
          2   -1    0    0  501    0  0.00000000000E+00  0.00000000000E+00  0.21562475949E+04  0.21562475949E+04  0.00000000000E+00 0. -1.
         -2   -1    0    0    0  501 -0.00000000000E+00 -0.00000000000E+00 -0.31917320316E+01  0.31917320316E+01  0.00000000000E+00 0.  1.
         24    1    1    2    0    0 -0.25591508232E+01  0.16674249726E+02  0.92792233600E+03  0.93155335728E+03  0.80419002446E+02 0.  1.
        -24    1    1    2    0    0  0.25591508232E+01 -0.16674249726E+02  0.12251335269E+04  0.12278859696E+04  0.80419002446E+02 0.  1.
<mgrwt>
<rscale>  0 0.82169322E+02</rscale>
<asrwt>0</asrwt>
<pdfrwt beam="1">  1        2 0.33172923E+00 0.82169332E+02</pdfrwt>
<pdfrwt beam="2">  1       -2 0.49103742E-03 0.82169332E+02</pdfrwt>
<totfact> 0.34180414E+04</totfact>
</mgrwt>
</event>
<event>
 4    1  0.5124795E-001  0.9559583E+02  0.7546771E-02  0.1289840E+00
         -2   -1    0    0    0  501 -0.00000000000E+00  0.00000000000E+00  0.13925777725E+02  0.13925777725E+02  0.00000000000E+00 0.  1.
          2   -1    0    0  501    0  0.00000000000E+00 -0.00000000000E+00 -0.11737177907E+04  0.11737177907E+04  0.00000000000E+00 0. -1.
         24    1    1    2    0    0 -0.48587267583E+02  0.17624517005E+02 -0.97419244922E+03  0.97887153919E+03  0.80419002446E+02 0. -1.
        -24    1    1    2    0    0  0.48587267583E+02 -0.17624517005E+02 -0.18559956379E+03  0.20877202927E+03  0.80419002446E+02 0.  1.
<mgrwt>
<rscale>  0 0.95595827E+02</rscale>
<asrwt>0</asrwt>
<pdfrwt beam="1">  1        2 0.18057204E+00 0.95595827E+02</pdfrwt>
<pdfrwt beam="2">  1       -2 0.21424265E-02 0.95595827E+02</pdfrwt>
<totfact> 0.13611931E+04</totfact>
</mgrwt>
</event>
<event>
 4    1  0.5124795E-001  0.1158549E+03  0.7546771E-02  0.1250096E+00
         -3   -1    0    0    0  501 -0.00000000000E+00  0.00000000000E+00  0.13081527427E+03  0.13081527427E+03  0.00000000000E+00 0.  1.
          3   -1    0    0  501    0  0.00000000000E+00 -0.00000000000E+00 -0.10677126815E+03  0.10677126815E+03  0.00000000000E+00 0. -1.
         24    1    1    2    0    0  0.81379373612E+02 -0.18235693978E+02  0.35486716315E+02  0.12116792469E+03  0.80419002446E+02 0.  1.
        -24    1    1    2    0    0 -0.81379373612E+02  0.18235693978E+02 -0.11442710195E+02  0.11641861773E+03  0.80419002446E+02 0. -1.
<mgrwt>
<rscale>  0 0.11585490E+03</rscale>
<asrwt>0</asrwt>
<pdfrwt beam="1">  1        3 0.16426349E-01 0.11585490E+03</pdfrwt>
<pdfrwt beam="2">  1       -3 0.20125427E-01 0.11585490E+03</pdfrwt>
<totfact> 0.15726171E+03</totfact>
</mgrwt>
</event>
<event>
 4    1  0.5124795E-001  0.1332103E+03  0.7546771E-02  0.1222769E+00
         -2   -1    0    0    0  501 -0.00000000000E+00  0.00000000000E+00  0.18277011542E+02  0.18277011542E+02  0.00000000000E+00 0.  1.
          2   -1    0    0  501    0  0.00000000000E+00 -0.00000000000E+00 -0.18215596620E+04  0.18215596620E+04  0.00000000000E+00 0. -1.
         24    1    1    2    0    0  0.30992396695E+02  0.10157379513E+03 -0.15302898056E+04  0.15360767786E+04  0.80419002446E+02 0. -1.
        -24    1    1    2    0    0 -0.30992396695E+02 -0.10157379513E+03 -0.27299284486E+03  0.30375989500E+03  0.80419002446E+02 0.  1.
<mgrwt>
<rscale>  0 0.13321029E+03</rscale>
<asrwt>0</asrwt>
<pdfrwt beam="1">  1        2 0.28024002E+00 0.13321029E+03</pdfrwt>
<pdfrwt beam="2">  1       -2 0.28118472E-02 0.13321029E+03</pdfrwt>
<totfact> 0.42727160E+03</totfact>
</mgrwt>
</event>
<event>
 4    1  0.5124795E-001  0.1240023E+03  0.7546771E-02  0.1236637E+00
         -1   -1    0    0    0  501 -0.00000000000E+00  0.00000000000E+00  0.53048132410E+02  0.53048132410E+02  0.00000000000E+00 0.  1.
          1   -1    0    0  501    0  0.00000000000E+00 -0.00000000000E+00 -0.29081299662E+03  0.29081299662E+03  0.00000000000E+00 0. -1.
         24    1    1    2    0    0 -0.68873076421E+02  0.64543384332E+02 -0.10904349224E+03  0.16512736984E+03  0.80419002446E+02 0. -1.
        -24    1    1    2    0    0  0.68873076421E+02 -0.64543384332E+02 -0.12872137196E+03  0.17873375918E+03  0.80419002446E+02 0.  1.
<mgrwt>
<rscale>  0 0.12400228E+03</rscale>
<asrwt>0</asrwt>
<pdfrwt beam="1">  1        1 0.44740460E-01 0.12400228E+03</pdfrwt>
<pdfrwt beam="2">  1       -1 0.81612513E-02 0.12400228E+03</pdfrwt>
<totfact> 0.71968275E+03</totfact>
</mgrwt>
</event>
<event>
 4    1  0.5124795E-001  0.8698861E+02  0.7546771E-02  0.1310313E+00
         -1   -1    0    0    0  501 -0.00000000000E+00  0.00000000000E+00  0.65334798387E+01  0.65334798387E+01  0.00000000000E+00 0.  1.
          1   -1    0    0  501    0  0.00000000000E+00 -0.00000000000E+00 -0.26317385694E+04  0.26317385694E+04  0.00000000000E+00 0. -1.
         24    1    1    2    0    0 -0.33081617400E+02  0.23257644733E+01 -0.32552728725E+03  0.33694960052E+03  0.80419002446E+02 0.  1.
        -24    1    1    2    0    0  0.33081617400E+02 -0.23257644733E+01 -0.22996778023E+04  0.23013224487E+04  0.80419002446E+02 0. -1.
<mgrwt>
<rscale>  0 0.86988612E+02</rscale>
<asrwt>0</asrwt>
<pdfrwt beam="1">  1        1 0.40488313E+00 0.86988612E+02</pdfrwt>
<pdfrwt beam="2">  1       -1 0.10051501E-02 0.86988612E+02</pdfrwt>
<totfact> 0.24264241E+03</totfact>
</mgrwt>
</event>
<event>
 4    1  0.5124795E-001  0.8498943E+02  0.7546771E-02  0.1315460E+00
         -1   -1    0    0    0  501 -0.00000000000E+00  0.00000000000E+00  0.67895674781E+02  0.67895674781E+02  0.00000000000E+00 0.  1.
          1   -1    0    0  501    0  0.00000000000E+00 -0.00000000000E+00 -0.15973443724E+03  0.15973443724E+03  0.00000000000E+00 0. -1.
         24    1    1    2    0    0  0.92935052318E+01  0.25876987869E+02  0.19855190023E+02  0.87277902506E+02  0.80419002446E+02 0. -1.
        -24    1    1    2    0    0 -0.92935052318E+01 -0.25876987869E+02 -0.11169395249E+03  0.14035220952E+03  0.80419002446E+02 0. -1.
<mgrwt>
<rscale>  0 0.84989433E+02</rscale>
<asrwt>0</asrwt>
<pdfrwt beam="1">  1        1 0.24574529E-01 0.84989433E+02</pdfrwt>
<pdfrwt beam="2">  1       -1 0.10445488E-01 0.84989433E+02</pdfrwt>
<totfact> 0.10056640E+04</totfact>
</mgrwt>
</event>
<event>
 4    1  0.5124795E-001  0.1252222E+03  0.7546771E-02  0.1234722E+00
         -1   -1    0    0    0  501 -0.00000000000E+00  0.00000000000E+00  0.13016811006E+03  0.13016811006E+03  0.00000000000E+00 0.  1.
          1   -1    0    0  501    0  0.00000000000E+00 -0.00000000000E+00 -0.24686089248E+03  0.24686089248E+03  0.00000000000E+00 0. -1.
         24    1    1    2    0    0  0.52210820038E+02  0.80544505866E+02  0.76545670786E+02  0.14676458301E+03  0.80419002446E+02 0.  1.
        -24    1    1    2    0    0 -0.52210820038E+02 -0.80544505866E+02 -0.19323845320E+03  0.23026441954E+03  0.80419002446E+02 0. -1.
<mgrwt>
<rscale>  0 0.12522221E+03</rscale>
<asrwt>0</asrwt>
<pdfrwt beam="1">  1        1 0.37978598E-01 0.12522221E+03</pdfrwt>
<pdfrwt beam="2">  1       -1 0.20025863E-01 0.12522221E+03</pdfrwt>
<totfact> 0.21945745E+03</totfact>
</mgrwt>
</event>
<event>
 4    1  0.5124795E-001  0.8793933E+02  0.7546771E-02  0.1307920E+00
         -2   -1    0    0    0  501 -0.00000000000E+00  0.00000000000E+00  0.79372995880E+02  0.79372995880E+02  0.00000000000E+00 0.  1.
          2   -1    0    0  501    0  0.00000000000E+00 -0.00000000000E+00 -0.16911755815E+03  0.16911755815E+03  0.00000000000E+00 0. -1.
         24    1    1    2    0    0 -0.28655606776E+02  0.21094213837E+02 -0.12576452357E+03  0.15346022612E+03  0.80419002446E+02 0. -1.
        -24    1    1    2    0    0  0.28655606776E+02 -0.21094213837E+02  0.36019961298E+02  0.95030327914E+02  0.80419002446E+02 0.  1.
<mgrwt>
<rscale>  0 0.87939329E+02</rscale>
<asrwt>0</asrwt>
<pdfrwt beam="1">  1        2 0.26018086E-01 0.87939329E+02</pdfrwt>
<pdfrwt beam="2">  1       -2 0.12211230E-01 0.87939329E+02</pdfrwt>
<totfact> 0.89920081E+03</totfact>
</mgrwt>
</event>
<event>
 4    1  0.5124795E-001  0.8524951E+02  0.7546771E-02  0.1314781E+00
          2   -1    0    0  501    0  0.00000000000E+00  0.00000000000E+00  0.20223580793E+03  0.20223580793E+03  0.00000000000E+00 0. -1.
         -2   -1    0    0    0  501 -0.00000000000E+00 -0.00000000000E+00 -0.37424546665E+02  0.37424546665E+02  0.00000000000E+00 0.  1.
         24    1    1    2    0    0 -0.27126452482E+02  0.80260820346E+01  0.10630673274E+03  0.13626664962E+03  0.80419002446E+02 0.  0.
        -24    1    1    2    0    0  0.27126452482E+02 -0.80260820346E+01  0.58504528523E+02  0.10339370498E+03  0.80419002446E+02 0. -1.
<mgrwt>
<rscale>  0 0.85249507E+02</rscale>
<asrwt>0</asrwt>
<pdfrwt beam="1">  1        2 0.31113201E-01 0.85249507E+02</pdfrwt>
<pdfrwt beam="2">  1       -2 0.57576227E-02 0.85249507E+02</pdfrwt>
<totfact> 0.23438018E+04</totfact>
</mgrwt>
</event>
<event>
 4    1  0.5124795E-001  0.1053940E+03  0.7546771E-02  0.1269345E+00
          2   -1    0    0  501    0  0.00000000000E+00  0.00000000000E+00  0.28468521952E+02  0.28468521952E+02  0.00000000000E+00 0. -1.
         -2   -1    0    0    0  501 -0.00000000000E+00 -0.00000000000E+00 -0.51533173095E+03  0.51533173095E+03  0.00000000000E+00 0.  1.
         24    1    1    2    0    0 -0.60081153056E+02 -0.32108302695E+02 -0.10943895409E+03  0.15193679173E+03  0.80419002446E+02 0. -1.
        -24    1    1    2    0    0  0.60081153056E+02  0.32108302695E+02 -0.37742425490E+03  0.39186346117E+03  0.80419002446E+02 0.  1.
<mgrwt>
<rscale>  0 0.10539404E+03</rscale>
<asrwt>0</asrwt>
<pdfrwt beam="1">  1        2 0.43797728E-02 0.10539404E+03</pdfrwt>
<pdfrwt beam="2">  1       -2 0.79281801E-01 0.10539404E+03</pdfrwt>
<totfact> 0.25620546E+03</totfact>
</mgrwt>
</event>
<event>
 4    1  0.5124795E-001  0.8134015E+02  0.7546771E-02  0.1325291E+00
          2   -1    0    0  501    0  0.00000000000E+00  0.00000000000E+00  0.54984328223E+03  0.54984328223E+03  0.00000000000E+00 0. -1.
         -2   -1    0    0    0  501 -0.00000000000E+00 -0.00000000000E+00 -0.27307943257E+03  0.27307943257E+03  0.00000000000E+00 0.  1.
         24    1    1    2    0    0  0.11836456080E+02 -0.29836275793E+01  0.54067588028E+03  0.54676011851E+03  0.80419002446E+02 0. -1.
        -24    1    1    2    0    0 -0.11836456080E+02  0.29836275793E+01 -0.26391203062E+03  0.27616259628E+03  0.80419002446E+02 0.  1.
<mgrwt>
<rscale>  0 0.81340148E+02</rscale>
<asrwt>0</asrwt>
<pdfrwt beam="1">  1        2 0.84591274E-01 0.81340148E+02</pdfrwt>
<pdfrwt beam="2">  1       -2 0.42012220E-01 0.81340148E+02</pdfrwt>
<totfact> 0.31017053E+02</totfact>
</mgrwt>
</event>
<event>
 4    1  0.5124795E-001  0.8583720E+02  0.7546771E-02  0.1313258E+00
         -2   -1    0    0    0  501 -0.00000000000E+00  0.00000000000E+00  0.43968473802E+02  0.43968473802E+02  0.00000000000E+00 0.  1.
          2   -1    0    0  501    0  0.00000000000E+00 -0.00000000000E+00 -0.30863266096E+03  0.30863266096E+03  0.00000000000E+00 0. -1.
         24    1    1    2    0    0 -0.12268972153E+01 -0.29988384947E+02 -0.25151963079E+03  0.26576333294E+03  0.80419002446E+02 0. -1.
        -24    1    1    2    0    0  0.12268972153E+01  0.29988384947E+02 -0.13144556366E+02  0.86837801820E+02  0.80419002446E+02 0.  1.
<mgrwt>
<rscale>  0 0.85837197E+02</rscale>
<asrwt>0</asrwt>
<pdfrwt beam="1">  1        2 0.47481948E-01 0.85837197E+02</pdfrwt>
<pdfrwt beam="2">  1       -2 0.67643806E-02 0.85837197E+02</pdfrwt>
<totfact> 0.11813438E+04</totfact>
</mgrwt>
</event>
<event>
 4    1  0.5124795E-001  0.8315767E+02  0.7546771E-02  0.1320322E+00
         -1   -1    0    0    0  501 -0.00000000000E+00  0.00000000000E+00  0.29462497776E+03  0.29462497776E+03  0.00000000000E+00 0.  1.
          1   -1    0    0  501    0  0.00000000000E+00 -0.00000000000E+00 -0.29820543377E+02  0.29820543377E+02  0.00000000000E+00 0. -1.
         24    1    1    2    0    0  0.83795291626E+01  0.19436085983E+02  0.57547472604E+02  0.10112816376E+03  0.80419002446E+02 0. -1.
        -24    1    1    2    0    0 -0.83795291626E+01 -0.19436085983E+02  0.20725696178E+03  0.22331735738E+03  0.80419002446E+02 0.  1.
<mgrwt>
<rscale>  0 0.83157655E+02</rscale>
<asrwt>0</asrwt>
<pdfrwt beam="1">  1        1 0.45877761E-02 0.83157666E+02</pdfrwt>
<pdfrwt beam="2">  1       -1 0.45326918E-01 0.83157666E+02</pdfrwt>
<totfact> 0.83412003E+03</totfact>
</mgrwt>
</event>
<event>
 4    1  0.5124795E-001  0.8876928E+02  0.7546771E-02  0.1305860E+00
         -2   -1    0    0    0  501 -0.00000000000E+00  0.00000000000E+00  0.55226122468E+01  0.55226122468E+01  0.00000000000E+00 0.  1.
          2   -1    0    0  501    0  0.00000000000E+00 -0.00000000000E+00 -0.14339427408E+04  0.14339427408E+04  0.00000000000E+00 0. -1.
         24    1    1    2    0    0 -0.33029989541E+02  0.17938476087E+02 -0.76479932033E+03  0.76993375394E+03  0.80419002446E+02 0.  0.
        -24    1    1    2    0    0  0.33029989541E+02 -0.17938476087E+02 -0.66362080820E+03  0.66953159908E+03  0.80419002446E+02 0. -1.
<mgrwt>
<rscale>  0 0.88769280E+02</rscale>
<asrwt>0</asrwt>
<pdfrwt beam="1">  1        2 0.22060635E+00 0.88769280E+02</pdfrwt>
<pdfrwt beam="2">  1       -2 0.84963352E-03 0.88769280E+02</pdfrwt>
<totfact> 0.36786829E+04</totfact>
</mgrwt>
</event>
<event>
 4    1  0.5124795E-001  0.9013836E+02  0.7546771E-02  0.1302517E+00
         -3   -1    0    0    0  501 -0.00000000000E+00  0.00000000000E+00  0.42491726005E+03  0.42491726005E+03  0.00000000000E+00 0.  1.
          3   -1    0    0  501    0  0.00000000000E+00 -0.00000000000E+00 -0.48177576966E+02  0.48177576966E+02  0.00000000000E+00 0. -1.
         24    1    1    2    0    0 -0.61849150631E+01 -0.40242447671E+02  0.37207296485E+03  0.38283575447E+03  0.80419002446E+02 0.  1.
        -24    1    1    2    0    0  0.61849150631E+01  0.40242447671E+02  0.46667182296E+01  0.90259082547E+02  0.80419002446E+02 0. -1.
<mgrwt>
<rscale>  0 0.90138359E+02</rscale>
<asrwt>0</asrwt>
<pdfrwt beam="1">  1        3 0.74119352E-02 0.90138359E+02</pdfrwt>
<pdfrwt beam="2">  1       -3 0.65371884E-01 0.90138359E+02</pdfrwt>
<totfact> 0.60255507E+02</totfact>
</mgrwt>
</event>
<event>
 4    1  0.5124795E-001  0.9487588E+02  0.7546771E-02  0.1291456E+00
         -1   -1    0    0    0  501 -0.00000000000E+00  0.00000000000E+00  0.15186304638E+03  0.15186304638E+03  0.00000000000E+00 0.  1.
          1   -1    0    0  501    0  0.00000000000E+00 -0.00000000000E+00 -0.40732441387E+03  0.40732441387E+03  0.00000000000E+00 0. -1.
         24    1    1    2    0    0  0.44707847182E+02  0.23139263567E+02  0.13072059416E+03  0.16152184623E+03  0.80419002446E+02 0.  1.
        -24    1    1    2    0    0 -0.44707847182E+02 -0.23139263567E+02 -0.38618196165E+03  0.39766561402E+03  0.80419002446E+02 0. -1.
<mgrwt>
<rscale>  0 0.94875882E+02</rscale>
<asrwt>0</asrwt>
<pdfrwt beam="1">  1        1 0.62665294E-01 0.94875882E+02</pdfrwt>
<pdfrwt beam="2">  1       -1 0.23363546E-01 0.94875882E+02</pdfrwt>
<totfact> 0.91588055E+02</totfact>
</mgrwt>
</event>
<event>
 4    1  0.5124795E-001  0.9376626E+02  0.7546771E-02  0.1293979E+00
         -1   -1    0    0    0  501 -0.00000000000E+00  0.00000000000E+00  0.79879266147E+01  0.79879266147E+01  0.00000000000E+00 0.  1.
          1   -1    0    0  501    0  0.00000000000E+00 -0.00000000000E+00 -0.12141538240E+04  0.12141538240E+04  0.00000000000E+00 0. -1.
         24    1    1    2    0    0 -0.43805510854E+02 -0.20148759261E+02 -0.41626778871E+03  0.42669776558E+03  0.80419002446E+02 0.  1.
        -24    1    1    2    0    0  0.43805510854E+02  0.20148759261E+02 -0.78989810867E+03  0.79544398503E+03  0.80419002446E+02 0. -1.
<mgrwt>
<rscale>  0 0.93766259E+02</rscale>
<asrwt>0</asrwt>
<pdfrwt beam="1">  1        1 0.18679295E+00 0.93766259E+02</pdfrwt>
<pdfrwt beam="2">  1       -1 0.12289114E-02 0.93766259E+02</pdfrwt>
<totfact> 0.14649689E+04</totfact>
</mgrwt>
</event>
<event>
 4    1  0.5124795E-001  0.1169274E+03  0.7546771E-02  0.1248254E+00
          2   -1    0    0  501    0  0.00000000000E+00  0.00000000000E+00  0.48799321982E+03  0.48799321982E+03  0.00000000000E+00 0. -1.
         -2   -1    0    0    0  501 -0.00000000000E+00 -0.00000000000E+00 -0.78144370258E+02  0.78144370258E+02  0.00000000000E+00 0.  1.
         24    1    1    2    0    0 -0.79153084535E+02  0.30652860269E+02  0.43163998711E+03  0.44719693990E+03  0.80419002446E+02 0. -1.
        -24    1    1    2    0    0  0.79153084535E+02 -0.30652860269E+02 -0.21791137546E+02  0.11894065017E+03  0.80419002446E+02 0.  1.
<mgrwt>
<rscale>  0 0.11692743E+03</rscale>
<asrwt>0</asrwt>
<pdfrwt beam="1">  1        2 0.75075878E-01 0.11692743E+03</pdfrwt>
<pdfrwt beam="2">  1       -2 0.12022211E-01 0.11692743E+03</pdfrwt>
<totfact> 0.30500088E+03</totfact>
</mgrwt>
</event>
<event>
 4    1  0.5124795E-001  0.1096814E+03  0.7546771E-02  0.1261161E+00
          2   -1    0    0  501    0  0.00000000000E+00  0.00000000000E+00  0.68375403843E+02  0.68375403843E+02  0.00000000000E+00 0. -1.
         -2   -1    0    0    0  501 -0.00000000000E+00 -0.00000000000E+00 -0.17700787435E+03  0.17700787435E+03  0.00000000000E+00 0.  1.
         24    1    1    2    0    0  0.14153639662E+02  0.73228901145E+02 -0.63842995549E+02  0.12690918609E+03  0.80419002446E+02 0.  1.
        -24    1    1    2    0    0 -0.14153639662E+02 -0.73228901145E+02 -0.44789474959E+02  0.11847409210E+03  0.80419002446E+02 0.  0.
<mgrwt>
<rscale>  0 0.10968143E+03</rscale>
<asrwt>0</asrwt>
<pdfrwt beam="1">  1        2 0.10519293E-01 0.10968145E+03</pdfrwt>
<pdfrwt beam="2">  1       -2 0.27231981E-01 0.10968145E+03</pdfrwt>
<totfact> 0.68169244E+03</totfact>
</mgrwt>
</event>
<event>
 4    1  0.5124795E-001  0.8786961E+02  0.7546771E-02  0.1308094E+00
          3   -1    0    0  501    0  0.00000000000E+00  0.00000000000E+00  0.36184655773E+01  0.36184655773E+01  0.00000000000E+00 0. -1.
         -3   -1    0    0    0  501 -0.00000000000E+00 -0.00000000000E+00 -0.27334878351E+04  0.27334878351E+04  0.00000000000E+00 0.  1.
         24    1    1    2    0    0  0.88865740440E+01  0.34276543837E+02 -0.20059479844E+04  0.20078716057E+04  0.80419002446E+02 0.  1.
        -24    1    1    2    0    0 -0.88865740440E+01 -0.34276543837E+02 -0.72392138507E+03  0.72923469499E+03  0.80419002446E+02 0. -1.
<mgrwt>
<rscale>  0 0.87869611E+02</rscale>
<asrwt>0</asrwt>
<pdfrwt beam="1">  1        3 0.55668695E-03 0.87869611E+02</pdfrwt>
<pdfrwt beam="2">  1       -3 0.42053664E+00 0.87869611E+02</pdfrwt>
<totfact> 0.15526956E+02</totfact>
</mgrwt>
</event>
<event>
 4    1  0.5124795E-001  0.8598826E+02  0.7546771E-02  0.1312868E+00
          1   -1    0    0  501    0  0.00000000000E+00  0.00000000000E+00  0.43146371359E+03  0.43146371359E+03  0.00000000000E+00 0. -1.
         -1   -1    0    0    0  501 -0.00000000000E+00 -0.00000000000E+00 -0.25260550468E+02  0.25260550468E+02  0.00000000000E+00 0.  1.
         24    1    1    2    0    0 -0.28316738809E+02  0.11177083109E+02  0.73599598247E+02  0.11318516555E+03  0.80419002446E+02 0.  1.
        -24    1    1    2    0    0  0.28316738809E+02 -0.11177083109E+02  0.33260356488E+03  0.34353909851E+03  0.80419002446E+02 0. -1.
<mgrwt>
<rscale>  0 0.85988260E+02</rscale>
<asrwt>0</asrwt>
<pdfrwt beam="1">  1        1 0.66379028E-01 0.85988260E+02</pdfrwt>
<pdfrwt beam="2">  1       -1 0.38862388E-02 0.85988260E+02</pdfrwt>
<totfact> 0.12815517E+04</totfact>
</mgrwt>
</event>
<event>
 4    1  0.5124795E-001  0.8049927E+02  0.7546771E-02  0.1327641E+00
          1   -1    0    0  501    0  0.00000000000E+00  0.00000000000E+00  0.29834847081E+03  0.29834847081E+03  0.00000000000E+00 0. -1.
         -1   -1    0    0    0  501 -0.00000000000E+00 -0.00000000000E+00 -0.21732057635E+02  0.21732057635E+02  0.00000000000E+00 0.  1.
         24    1    1    2    0    0 -0.71395110258E+00  0.35223558735E+01  0.13454051593E+03  0.15678419276E+03  0.80419002446E+02 0.  0.
        -24    1    1    2    0    0  0.71395110258E+00 -0.35223558735E+01  0.14207589724E+03  0.16329633569E+03  0.80419002446E+02 0.  1.
<mgrwt>
<rscale>  0 0.80499271E+02</rscale>
<asrwt>0</asrwt>
<pdfrwt beam="1">  1        1 0.45899762E-01 0.80499271E+02</pdfrwt>
<pdfrwt beam="2">  1       -1 0.33433937E-02 0.80499271E+02</pdfrwt>
<totfact> 0.24893454E+04</totfact>
</mgrwt>
</event>
<event>
 4    1  0.5124795E-001  0.1079069E+03  0.7546771E-02  0.1264496E+00
         -2   -1    0    0    0  501 -0.00000000000E+00  0.00000000000E+00  0.13245897287E+03  0.13245897287E+03  0.00000000000E+00 0.  1.
          2   -1    0    0  501    0  0.00000000000E+00 -0.00000000000E+00 -0.14072245202E+03  0.14072245202E+03  0.00000000000E+00 0. -1.
         24    1    1    2    0    0  0.68927173692E+02 -0.20633419329E+02 -0.87812379583E+02  0.13912197249E+03  0.80419002446E+02 0.  0.
        -24    1    1    2    0    0 -0.68927173692E+02  0.20633419329E+02  0.79548900434E+02  0.13405945241E+03  0.80419002446E+02 0.  0.
<mgrwt>
<rscale>  0 0.10790695E+03</rscale>
<asrwt>0</asrwt>
<pdfrwt beam="1">  1        2 0.21649608E-01 0.10790695E+03</pdfrwt>
<pdfrwt beam="2">  1       -2 0.20378304E-01 0.10790695E+03</pdfrwt>
<totfact> 0.48491246E+03</totfact>
</mgrwt>
</event>
<event>
 4    1  0.5124795E-001  0.8045364E+02  0.7546771E-02  0.1327769E+00
          1   -1    0    0  501    0  0.00000000000E+00  0.00000000000E+00  0.51309509710E+03  0.51309509710E+03  0.00000000000E+00 0. -1.
         -1   -1    0    0    0  501 -0.00000000000E+00 -0.00000000000E+00 -0.27312934826E+02  0.27312934826E+02  0.00000000000E+00 0.  1.
         24    1    1    2    0    0  0.15739861151E+01 -0.17590287166E+01  0.44677641286E+02  0.92026513568E+02  0.80419002446E+02 0.  0.
        -24    1    1    2    0    0 -0.15739861151E+01  0.17590287166E+01  0.44110452099E+03  0.44838151836E+03  0.80419002446E+02 0. -1.
<mgrwt>
<rscale>  0 0.80453636E+02</rscale>
<asrwt>0</asrwt>
<pdfrwt beam="1">  1        1 0.78937700E-01 0.80453636E+02</pdfrwt>
<pdfrwt beam="2">  1       -1 0.42019904E-02 0.80453636E+02</pdfrwt>
<totfact> 0.91352237E+03</totfact>
</mgrwt>
</event>
<event>
 4    1  0.5124795E-001  0.1529070E+03  0.7546771E-02  0.1196946E+00
          2   -1    0    0  501    0  0.00000000000E+00  0.00000000000E+00  0.12031501305E+04  0.12031501305E+04  0.00000000000E+00 0. -1.
         -2   -1    0    0    0  501 -0.00000000000E+00 -0.00000000000E+00 -0.71040435734E+02  0.71040435734E+02  0.00000000000E+00 0.  1.
         24    1    1    2    0    0 -0.12540106044E+03  0.34466216258E+02  0.11090658278E+04  0.11195568643E+04  0.80419002446E+02 0. -1.
        -24    1    1    2    0    0  0.12540106044E+03 -0.34466216258E+02  0.23043866985E+02  0.15463370197E+03  0.80419002446E+02 0.  1.
<mgrwt>
<rscale>  0 0.15290704E+03</rscale>
<asrwt>0</asrwt>
<pdfrwt beam="1">  1        2 0.18510001E+00 0.15290704E+03</pdfrwt>
<pdfrwt beam="2">  1       -2 0.10929299E-01 0.15290704E+03</pdfrwt>
<totfact> 0.11521296E+03</totfact>
</mgrwt>
</event>
<event>
 4    1  0.5124795E-001  0.8269948E+02  0.7546771E-02  0.1321561E+00
         -1   -1    0    0    0  501 -0.00000000000E+00  0.00000000000E+00  0.65336701694E+02  0.65336701694E+02  0.00000000000E+00 0.  1.
          1   -1    0    0  501    0  0.00000000000E+00 -0.00000000000E+00 -0.13835015158E+03  0.13835015158E+03  0.00000000000E+00 0. -1.
         24    1    1    2    0    0  0.19099179095E+02  0.26849446039E+01  0.13737904283E+02  0.83832771266E+02  0.80419002446E+02 0.  1.
        -24    1    1    2    0    0 -0.19099179095E+02 -0.26849446039E+01 -0.86751354169E+02  0.11985408201E+03  0.80419002446E+02 0.  1.
<mgrwt>
<rscale>  0 0.82699477E+02</rscale>
<asrwt>0</asrwt>
<pdfrwt beam="1">  1        1 0.21284638E-01 0.82699477E+02</pdfrwt>
<pdfrwt beam="2">  1       -1 0.10051800E-01 0.82699477E+02</pdfrwt>
<totfact> 0.12705690E+04</totfact>
</mgrwt>
</event>
<event>
 4    1  0.5124795E-001  0.8603208E+02  0.7546771E-02  0.1312755E+00
         -2   -1    0    0    0  501 -0.00000000000E+00  0.00000000000E+00  0.78500456855E+01  0.78500456855E+01  0.00000000000E+00 0.  1.
          2   -1    0    0  501    0  0.00000000000E+00 -0.00000000000E+00 -0.13477742069E+04  0.13477742069E+04  0.00000000000E+00 0. -1.
         24    1    1    2    0    0  0.23806071758E+02  0.19172212519E+02 -0.10414807018E+04  0.10450280240E+04  0.80419002446E+02 0. -1.
        -24    1    1    2    0    0 -0.23806071758E+02 -0.19172212519E+02 -0.29844345943E+03  0.31059622859E+03  0.80419002446E+02 0.  1.
<mgrwt>
<rscale>  0 0.86032080E+02</rscale>
<asrwt>0</asrwt>
<pdfrwt beam="1">  1        2 0.20734973E+00 0.86032080E+02</pdfrwt>
<pdfrwt beam="2">  1       -2 0.12077002E-02 0.86032080E+02</pdfrwt>
<totfact> 0.24727139E+04</totfact>
</mgrwt>
</event>
<event>
 4    1  0.5124795E-001  0.9084438E+02  0.7546771E-02  0.1300820E+00
          1   -1    0    0  501    0  0.00000000000E+00  0.00000000000E+00  0.77610564869E+03  0.77610564869E+03  0.00000000000E+00 0. -1.
         -1   -1    0    0    0  501 -0.00000000000E+00 -0.00000000000E+00 -0.31796291911E+02  0.31796291911E+02  0.00000000000E+00 0.  1.
         24    1    1    2    0    0  0.33576227330E+02 -0.25653909052E+02  0.42600267799E+02  0.10033685695E+03  0.80419002446E+02 0.  1.
        -24    1    1    2    0    0 -0.33576227330E+02  0.25653909052E+02  0.70170908898E+03  0.70756508365E+03  0.80419002446E+02 0. -1.
<mgrwt>
<rscale>  0 0.90844384E+02</rscale>
<asrwt>0</asrwt>
<pdfrwt beam="1">  1        1 0.11940085E+00 0.90844384E+02</pdfrwt>
<pdfrwt beam="2">  1       -1 0.48917378E-02 0.90844384E+02</pdfrwt>
<totfact> 0.42008326E+03</totfact>
</mgrwt>
</event>
<event>
 4    1  0.5124795E-001  0.9056282E+02  0.7546771E-02  0.1301494E+00
          2   -1    0    0  501    0  0.00000000000E+00  0.00000000000E+00  0.28113563546E+03  0.28113563546E+03  0.00000000000E+00 0. -1.
         -2   -1    0    0    0  501 -0.00000000000E+00 -0.00000000000E+00 -0.61152664042E+02  0.61152664042E+02  0.00000000000E+00 0.  1.
         24    1    1    2    0    0  0.40555963598E+02 -0.94668597865E+01  0.23375425530E+03  0.25068441404E+03  0.80419002446E+02 0. -1.
        -24    1    1    2    0    0 -0.40555963598E+02  0.94668597865E+01 -0.13771283882E+02  0.91603885462E+02  0.80419002446E+02 0.  1.
<mgrwt>
<rscale>  0 0.90562816E+02</rscale>
<asrwt>0</asrwt>
<pdfrwt beam="1">  1        2 0.43251635E-01 0.90562816E+02</pdfrwt>
<pdfrwt beam="2">  1       -2 0.94081023E-02 0.90562816E+02</pdfrwt>
<totfact> 0.79051688E+03</totfact>
</mgrwt>
</event>
<event>
 4    1  0.5124795E-001  0.8500641E+02  0.7546771E-02  0.1315416E+00
         -1   -1    0    0    0  501 -0.00000000000E+00  0.00000000000E+00  0.42338367993E+03  0.42338367993E+03  0.00000000000E+00 0.  1.
          1   -1    0    0  501    0  0.00000000000E+00 -0.00000000000E+00 -0.18738806425E+02  0.18738806425E+02  0.00000000000E+00 0. -1.
         24    1    1    2    0    0  0.24191101444E+01  0.27441255578E+02  0.26834203526E+03  0.28148452612E+03  0.80419002446E+02 0.  1.
        -24    1    1    2    0    0 -0.24191101444E+01 -0.27441255578E+02  0.13630283825E+03  0.16063796024E+03  0.80419002446E+02 0. -1.
<mgrwt>
<rscale>  0 0.85006415E+02</rscale>
<asrwt>0</asrwt>
<pdfrwt beam="1">  1        1 0.28828936E-02 0.85006415E+02</pdfrwt>
<pdfrwt beam="2">  1       -1 0.65135944E-01 0.85006415E+02</pdfrwt>
<totfact> 0.80783869E+03</totfact>
</mgrwt>
</event>
<event>
 4    1  0.5124795E-001  0.1176126E+03  0.7546771E-02  0.1247088E+00
          1   -1    0    0  501    0  0.00000000000E+00  0.00000000000E+00  0.15554629207E+03  0.15554629207E+03  0.00000000000E+00 0. -1.
         -1   -1    0    0    0  501 -0.00000000000E+00 -0.00000000000E+00 -0.10058848911E+03  0.10058848911E+03  0.00000000000E+00 0.  1.
         24    1    1    2    0    0  0.49487309669E+02 -0.70117910377E+02 -0.16121012148E+02  0.11871233365E+03  0.80419002446E+02 0.  1.
        -24    1    1    2    0    0 -0.49487309669E+02  0.70117910377E+02  0.71078815100E+02  0.13742244753E+03  0.80419002446E+02 0. -1.
<mgrwt>
<rscale>  0 0.11761263E+03</rscale>
<asrwt>0</asrwt>
<pdfrwt beam="1">  1        1 0.23930199E-01 0.11761263E+03</pdfrwt>
<pdfrwt beam="2">  1       -1 0.15475152E-01 0.11761263E+03</pdfrwt>
<totfact> 0.58339967E+03</totfact>
</mgrwt>
</event>
<event>
 4    1  0.5124795E-001  0.8464124E+02  0.7546771E-02  0.1316373E+00
         -1   -1    0    0    0  501 -0.00000000000E+00  0.00000000000E+00  0.51915023896E+02  0.51915023896E+02  0.00000000000E+00 0.  1.
          1   -1    0    0  501    0  0.00000000000E+00 -0.00000000000E+00 -0.29672062499E+03  0.29672062499E+03  0.00000000000E+00 0. -1.
         24    1    1    2    0    0  0.36121391735E+01  0.26151028763E+02  0.50907247277E+01  0.84794193713E+02  0.80419002446E+02 0.  1.
        -24    1    1    2    0    0 -0.36121391735E+01 -0.26151028763E+02 -0.24989632582E+03  0.26384145517E+03  0.80419002446E+02 0. -1.
<mgrwt>
<rscale>  0 0.84641242E+02</rscale>
<asrwt>0</asrwt>
<pdfrwt beam="1">  1        1 0.45649328E-01 0.84641242E+02</pdfrwt>
<pdfrwt beam="2">  1       -1 0.79869266E-02 0.84641242E+02</pdfrwt>
<totfact> 0.70495262E+03</totfact>
</mgrwt>
</event>
<event>
 4    1  0.5124795E-001  0.8215645E+02  0.7546771E-02  0.1323041E+00
          2   -1    0    0  501    0  0.00000000000E+00  0.00000000000E+00  0.40032486742E+03  0.40032486742E+03  0.00000000000E+00 0. -1.
         -2   -1    0    0    0  501 -0.00000000000E+00 -0.00000000000E+00 -0.16913411681E+02  0.16913411681E+02  0.00000000000E+00 0.  1.
         24    1    1    2    0    0 -0.71878064379E+00  0.16791348628E+02  0.20337295225E+03  0.21934046525E+03  0.80419002446E+02 0.  1.
        -24    1    1    2    0    0  0.71878064379E+00 -0.16791348628E+02  0.18003850349E+03  0.19789781385E+03  0.80419002446E+02 0. -1.
<mgrwt>
<rscale>  0 0.82156448E+02</rscale>
<asrwt>0</asrwt>
<pdfrwt beam="1">  1        2 0.61588434E-01 0.82156448E+02</pdfrwt>
<pdfrwt beam="2">  1       -2 0.26020636E-02 0.82156448E+02</pdfrwt>
<totfact> 0.36566690E+04</totfact>
</mgrwt>
</event>
<event>
 4    1  0.5124795E-001  0.9832278E+02  0.7546771E-02  0.1283863E+00
          1   -1    0    0  501    0  0.00000000000E+00  0.00000000000E+00  0.13728137322E+03  0.13728137322E+03  0.00000000000E+00 0. -1.
         -1   -1    0    0    0  501 -0.00000000000E+00 -0.00000000000E+00 -0.10141334894E+03  0.10141334894E+03  0.00000000000E+00 0.  1.
         24    1    1    2    0    0 -0.83592791739E+01 -0.55948862387E+02 -0.48043931601E+02  0.10943303006E+03  0.80419002446E+02 0.  1.
        -24    1    1    2    0    0  0.83592791739E+01  0.55948862387E+02  0.83911955882E+02  0.12926169210E+03  0.80419002446E+02 0. -1.
<mgrwt>
<rscale>  0 0.98322778E+02</rscale>
<asrwt>0</asrwt>
<pdfrwt beam="1">  1        1 0.21120211E-01 0.98322778E+02</pdfrwt>
<pdfrwt beam="2">  1       -1 0.15602054E-01 0.98322778E+02</pdfrwt>
<totfact> 0.66478422E+03</totfact>
</mgrwt>
</event>
<event>
 4    1  0.5124795E-001  0.8729154E+02  0.7546771E-02  0.1309546E+00
          1   -1    0    0  501    0  0.00000000000E+00  0.00000000000E+00  0.21669587509E+03  0.21669587509E+03  0.00000000000E+00 0. -1.
         -1   -1    0    0    0  501 -0.00000000000E+00 -0.00000000000E+00 -0.41416316482E+02  0.41416316482E+02  0.00000000000E+00 0.  1.
         24    1    1    2    0    0 -0.23202444105E+02  0.24783941496E+02  0.37494946658E+02  0.95003600710E+02  0.80419002446E+02 0.  0.
        -24    1    1    2    0    0  0.23202444105E+02 -0.24783941496E+02  0.13778461195E+03  0.16310859086E+03  0.80419002446E+02 0.  0.
<mgrwt>
<rscale>  0 0.87291541E+02</rscale>
<asrwt>0</asrwt>
<pdfrwt beam="1">  1        1 0.33337826E-01 0.87291541E+02</pdfrwt>
<pdfrwt beam="2">  1       -1 0.63717411E-02 0.87291541E+02</pdfrwt>
<totfact> 0.14491301E+04</totfact>
</mgrwt>
</event>
<event>
 4    1  0.5124795E-001  0.8084442E+02  0.7546771E-02  0.1326672E+00
          2   -1    0    0  501    0  0.00000000000E+00  0.00000000000E+00  0.10549834358E+04  0.10549834358E+04  0.00000000000E+00 0. -1.
         -2   -1    0    0    0  501 -0.00000000000E+00 -0.00000000000E+00 -0.22391184858E+02  0.22391184858E+02  0.00000000000E+00 0.  1.
         24    1    1    2    0    0  0.57954157461E+01 -0.59175185616E+01  0.97444018607E+03  0.97778806296E+03  0.80419002446E+02 0. -1.
        -24    1    1    2    0    0 -0.57954157461E+01  0.59175185616E+01  0.58152064838E+02  0.99586557671E+02  0.80419002446E+02 0.  0.
<mgrwt>
<rscale>  0 0.80844417E+02</rscale>
<asrwt>0</asrwt>
<pdfrwt beam="1">  1        2 0.16230510E+00 0.80844417E+02</pdfrwt>
<pdfrwt beam="2">  1       -2 0.34447985E-02 0.80844417E+02</pdfrwt>
<totfact> 0.78849686E+03</totfact>
</mgrwt>
</event>
<event>
 4    1  0.5124795E-001  0.9427812E+02  0.7546771E-02  0.1292810E+00
          1   -1    0    0  501    0  0.00000000000E+00  0.00000000000E+00  0.89907080343E+03  0.89907080343E+03  0.00000000000E+00 0. -1.
         -1   -1    0    0    0  501 -0.00000000000E+00 -0.00000000000E+00 -0.12352468324E+02  0.12352468324E+02  0.00000000000E+00 0.  1.
         24    1    1    2    0    0 -0.17081038747E+02 -0.46145272023E+02  0.23973171653E+03  0.25760368762E+03  0.80419002446E+02 0.  1.
        -24    1    1    2    0    0  0.17081038747E+02  0.46145272023E+02  0.64698661858E+03  0.65381958413E+03  0.80419002446E+02 0. -1.
<mgrwt>
<rscale>  0 0.94278120E+02</rscale>
<asrwt>0</asrwt>
<pdfrwt beam="1">  1        1 0.13831853E+00 0.94278120E+02</pdfrwt>
<pdfrwt beam="2">  1       -1 0.19003804E-02 0.94278120E+02</pdfrwt>
<totfact> 0.13184026E+04</totfact>
</mgrwt>
</event>
<event>
 4    1  0.5124795E-001  0.8097010E+02  0.7546771E-02  0.1326321E+00
         -2   -1    0    0    0  501 -0.00000000000E+00  0.00000000000E+00  0.43375823088E+02  0.43375823088E+02  0.00000000000E+00 0.  1.
          2   -1    0    0  501    0  0.00000000000E+00 -0.00000000000E+00 -0.15833790559E+03  0.15833790559E+03  0.00000000000E+00 0. -1.
         24    1    1    2    0    0 -0.45835058992E+01  0.82419419031E+01 -0.35988640648E+02  0.88607766831E+02  0.80419002446E+02 0.  0.
        -24    1    1    2    0    0  0.45835058992E+01 -0.82419419031E+01 -0.78973441852E+02  0.11310596185E+03  0.80419002446E+02 0. -1.
<mgrwt>
<rscale>  0 0.80970092E+02</rscale>
<asrwt>0</asrwt>
<pdfrwt beam="1">  1        2 0.24359679E-01 0.80970102E+02</pdfrwt>
<pdfrwt beam="2">  1       -2 0.66732033E-02 0.80970102E+02</pdfrwt>
<totfact> 0.24291738E+04</totfact>
</mgrwt>
</event>
<event>
 4    1  0.5124795E-001  0.8924087E+02  0.7546771E-02  0.1304701E+00
         -2   -1    0    0    0  501 -0.00000000000E+00  0.00000000000E+00  0.43093627170E+02  0.43093627170E+02  0.00000000000E+00 0.  1.
          2   -1    0    0  501    0  0.00000000000E+00 -0.00000000000E+00 -0.18501625849E+03  0.18501625849E+03  0.00000000000E+00 0. -1.
         24    1    1    2    0    0 -0.52986856027E+01  0.38322852865E+02 -0.74812114725E+02  0.11645078611E+03  0.80419002446E+02 0.  0.
        -24    1    1    2    0    0  0.52986856027E+01 -0.38322852865E+02 -0.67110516590E+02  0.11165909955E+03  0.80419002446E+02 0.  1.
<mgrwt>
<rscale>  0 0.89240871E+02</rscale>
<asrwt>0</asrwt>
<pdfrwt beam="1">  1        2 0.28464040E-01 0.89240871E+02</pdfrwt>
<pdfrwt beam="2">  1       -2 0.66297887E-02 0.89240871E+02</pdfrwt>
<totfact> 0.20966298E+04</totfact>
</mgrwt>
</event>
<event>
 4    1  0.5124795E-001  0.8197595E+02  0.7546771E-02  0.1323536E+00
         -2   -1    0    0    0  501 -0.00000000000E+00  0.00000000000E+00  0.31477801734E+03  0.31477801734E+03  0.00000000000E+00 0.  1.
          2   -1    0    0  501    0  0.00000000000E+00 -0.00000000000E+00 -0.36453613253E+02  0.36453613253E+02  0.00000000000E+00 0. -1.
         24    1    1    2    0    0 -0.13369180948E+02  0.86084964015E+01  0.26116390987E+02  0.86035591717E+02  0.80419002446E+02 0. -1.
        -24    1    1    2    0    0  0.13369180948E+02 -0.86084964015E+01  0.25220801311E+03  0.26519603888E+03  0.80419002446E+02 0.  1.
<mgrwt>
<rscale>  0 0.81975955E+02</rscale>
<asrwt>0</asrwt>
<pdfrwt beam="1">  1        2 0.56082484E-02 0.81975955E+02</pdfrwt>
<pdfrwt beam="2">  1       -2 0.48427385E-01 0.81975955E+02</pdfrwt>
<totfact> 0.50212676E+03</totfact>
</mgrwt>
</event>
<event>
 4    1  0.5124795E-001  0.1155667E+03  0.7546771E-02  0.1250595E+00
          2   -1    0    0  501    0  0.00000000000E+00  0.00000000000E+00  0.15469040233E+04  0.15469040233E+04  0.00000000000E+00 0. -1.
         -2   -1    0    0    0  501 -0.00000000000E+00 -0.00000000000E+00 -0.91350349660E+01  0.91350349660E+01  0.00000000000E+00 0.  1.
         24    1    1    2    0    0  0.34700795300E+02 -0.75394332187E+02  0.95112891657E+03  0.95812414770E+03  0.80419002446E+02 0.  1.
        -24    1    1    2    0    0 -0.34700795300E+02  0.75394332187E+02  0.58664007175E+03  0.59791491055E+03  0.80419002446E+02 0. -1.
<mgrwt>
<rscale>  0 0.11556672E+03</rscale>
<asrwt>0</asrwt>
<pdfrwt beam="1">  1        2 0.23798503E+00 0.11556672E+03</pdfrwt>
<pdfrwt beam="2">  1       -2 0.14053912E-02 0.11556672E+03</pdfrwt>
<totfact> 0.16042186E+04</totfact>
</mgrwt>
</event>
<event>
 4    1  0.5124795E-001  0.8928615E+02  0.7546771E-02  0.1304590E+00
          2   -1    0    0  501    0  0.00000000000E+00  0.00000000000E+00  0.41617811346E+03  0.41617811346E+03  0.00000000000E+00 0. -1.
         -2   -1    0    0    0  501 -0.00000000000E+00 -0.00000000000E+00 -0.16860626499E+03  0.16860626499E+03  0.00000000000E+00 0.  1.
         24    1    1    2    0    0  0.29820543005E+02  0.24810009717E+02  0.39906821421E+03  0.40893453867E+03  0.80419002446E+02 0. -1.
        -24    1    1    2    0    0 -0.29820543005E+02 -0.24810009717E+02 -0.15149636574E+03  0.17584983979E+03  0.80419002446E+02 0.  1.
<mgrwt>
<rscale>  0 0.89286154E+02</rscale>
<asrwt>0</asrwt>
<pdfrwt beam="1">  1        2 0.64027402E-01 0.89286154E+02</pdfrwt>
<pdfrwt beam="2">  1       -2 0.25939425E-01 0.89286154E+02</pdfrwt>
<totfact> 0.10018850E+03</totfact>
</mgrwt>
</event>
<event>
 4    1  0.5124795E-001  0.8246004E+02  0.7546771E-02  0.1322212E+00
         -1   -1    0    0    0  501 -0.00000000000E+00  0.00000000000E+00  0.18788006917E+02  0.18788006917E+02  0.00000000000E+00 0.  1.
          1   -1    0    0  501    0  0.00000000000E+00 -0.00000000000E+00 -0.38174215124E+03  0.38174215124E+03  0.00000000000E+00 0. -1.
         24    1    1    2    0    0  0.16450099698E+02 -0.78636493560E+01 -0.13583640706E+03  0.15890622454E+03  0.80419002446E+02 0.  1.
        -24    1    1    2    0    0 -0.16450099698E+02  0.78636493560E+01 -0.22711773726E+03  0.24162393361E+03  0.80419002446E+02 0. -1.
<mgrwt>
<rscale>  0 0.82460043E+02</rscale>
<asrwt>0</asrwt>
<pdfrwt beam="1">  1        1 0.58729561E-01 0.82460043E+02</pdfrwt>
<pdfrwt beam="2">  1       -1 0.28904626E-02 0.82460043E+02</pdfrwt>
<totfact> 0.22762434E+04</totfact>
</mgrwt>
</event>
<event>
 4    1  0.5124795E-001  0.1826510E+03  0.7546771E-02  0.1165262E+00
         -2   -1    0    0    0  501 -0.00000000000E+00  0.00000000000E+00  0.36685588096E+02  0.36685588096E+02  0.00000000000E+00 0.  1.
          2   -1    0    0  501    0  0.00000000000E+00 -0.00000000000E+00 -0.10304178326E+04  0.10304178326E+04  0.00000000000E+00 0. -1.
         24    1    1    2    0    0 -0.10986374459E+03  0.12175435628E+03 -0.67972607031E+03  0.70383869762E+03  0.80419002446E+02 0. -1.
        -24    1    1    2    0    0  0.10986374459E+03 -0.12175435628E+03 -0.31400617420E+03  0.36326472308E+03  0.80419002446E+02 0.  1.
<mgrwt>
<rscale>  0 0.18265098E+03</rscale>
<asrwt>0</asrwt>
<pdfrwt beam="1">  1        2 0.15852581E+00 0.18265098E+03</pdfrwt>
<pdfrwt beam="2">  1       -2 0.56439371E-02 0.18265098E+03</pdfrwt>
<totfact> 0.40452999E+03</totfact>
</mgrwt>
</event>
<event>
 4    1  0.5124795E-001  0.1006976E+03  0.7546771E-02  0.1278836E+00
         -3   -1    0    0    0  501 -0.00000000000E+00  0.00000000000E+00  0.32655274932E+02  0.32655274932E+02  0.00000000000E+00 0.  1.
          3   -1    0    0  501    0  0.00000000000E+00 -0.00000000000E+00 -0.89018989333E+03  0.89018989333E+03  0.00000000000E+00 0. -1.
         24    1    1    2    0    0 -0.32657280007E+02  0.51051810379E+02 -0.56419154400E+02  0.11542582994E+03  0.80419002446E+02 0.  1.
        -24    1    1    2    0    0  0.32657280007E+02 -0.51051810379E+02 -0.80111546400E+03  0.80741933832E+03  0.80419002446E+02 0. -1.
<mgrwt>
<rscale>  0 0.10069757E+03</rscale>
<asrwt>0</asrwt>
<pdfrwt beam="1">  1        3 0.13695229E+00 0.10069757E+03</pdfrwt>
<pdfrwt beam="2">  1       -3 0.50238885E-02 0.10069757E+03</pdfrwt>
<totfact> 0.21916710E+02</totfact>
</mgrwt>
</event>
<event>
 4    1  0.5124795E-001  0.1002409E+03  0.7546771E-02  0.1279790E+00
          2   -1    0    0  501    0  0.00000000000E+00  0.00000000000E+00  0.18257330046E+02  0.18257330046E+02  0.00000000000E+00 0. -1.
         -2   -1    0    0    0  501 -0.00000000000E+00 -0.00000000000E+00 -0.61285780564E+03  0.61285780564E+03  0.00000000000E+00 0.  1.
         24    1    1    2    0    0 -0.33512232136E+02 -0.49577740829E+02 -0.19653618094E+03  0.22062345401E+03  0.80419002446E+02 0. -1.
        -24    1    1    2    0    0  0.33512232136E+02  0.49577740829E+02 -0.39806429465E+03  0.41049168167E+03  0.80419002446E+02 0.  1.
<mgrwt>
<rscale>  0 0.10024090E+03</rscale>
<asrwt>0</asrwt>
<pdfrwt beam="1">  1        2 0.28088203E-02 0.10024090E+03</pdfrwt>
<pdfrwt beam="2">  1       -2 0.94285807E-01 0.10024090E+03</pdfrwt>
<totfact> 0.31282143E+03</totfact>
</mgrwt>
</event>
<event>
 4    1  0.5124795E-001  0.8589974E+02  0.7546771E-02  0.1313096E+00
          2   -1    0    0  501    0  0.00000000000E+00  0.00000000000E+00  0.72684169481E+03  0.72684169481E+03  0.00000000000E+00 0. -1.
         -2   -1    0    0    0  501 -0.00000000000E+00 -0.00000000000E+00 -0.10533933081E+03  0.10533933081E+03  0.00000000000E+00 0.  1.
         24    1    1    2    0    0 -0.22936613743E+02  0.19633184811E+02  0.70628399760E+03  0.71148847596E+03  0.80419002446E+02 0. -1.
        -24    1    1    2    0    0  0.22936613743E+02 -0.19633184811E+02 -0.84781633597E+02  0.12069254967E+03  0.80419002446E+02 0.  1.
<mgrwt>
<rscale>  0 0.85899745E+02</rscale>
<asrwt>0</asrwt>
<pdfrwt beam="1">  1        2 0.11182180E+00 0.85899745E+02</pdfrwt>
<pdfrwt beam="2">  1       -2 0.16206051E-01 0.85899745E+02</pdfrwt>
<totfact> 0.11933029E+03</totfact>
</mgrwt>
</event>
<event>
 4    1  0.5124795E-001  0.1158766E+03  0.7546771E-02  0.1250059E+00
          1   -1    0    0  501    0  0.00000000000E+00  0.00000000000E+00  0.40210338587E+02  0.40210338587E+02  0.00000000000E+00 0. -1.
         -1   -1    0    0    0  501 -0.00000000000E+00 -0.00000000000E+00 -0.33394300554E+03  0.33394300554E+03  0.00000000000E+00 0.  1.
         24    1    1    2    0    0 -0.42349704243E+01 -0.83320039019E+02 -0.14809741253E+03  0.18804314247E+03  0.80419002446E+02 0.  0.
        -24    1    1    2    0    0  0.42349704243E+01  0.83320039019E+02 -0.14563525442E+03  0.18611020166E+03  0.80419002446E+02 0.  0.
<mgrwt>
<rscale>  0 0.11587657E+03</rscale>
<asrwt>0</asrwt>
<pdfrwt beam="1">  1        1 0.61862059E-02 0.11587657E+03</pdfrwt>
<pdfrwt beam="2">  1       -1 0.51375847E-01 0.11587657E+03</pdfrwt>
<totfact> 0.45727963E+03</totfact>
</mgrwt>
</event>
<event>
 4    1  0.5124795E-001  0.8202752E+02  0.7546771E-02  0.1323394E+00
         -2   -1    0    0    0  501 -0.00000000000E+00  0.00000000000E+00  0.12425867623E+04  0.12425867623E+04  0.00000000000E+00 0.  1.
          2   -1    0    0  501    0  0.00000000000E+00 -0.00000000000E+00 -0.11037968666E+02  0.11037968666E+02  0.00000000000E+00 0. -1.
         24    1    1    2    0    0 -0.14853633894E+02 -0.63770733476E+01  0.16839217117E+03  0.18730840016E+03  0.80419002446E+02 0. -1.
        -24    1    1    2    0    0  0.14853633894E+02  0.63770733476E+01  0.10631566225E+04  0.10663163308E+04  0.80419002446E+02 0.  1.
<mgrwt>
<rscale>  0 0.82027516E+02</rscale>
<asrwt>0</asrwt>
<pdfrwt beam="1">  1        2 0.16981500E-02 0.82027516E+02</pdfrwt>
<pdfrwt beam="2">  1       -2 0.19116708E+00 0.82027516E+02</pdfrwt>
<totfact> 0.10549816E+03</totfact>
</mgrwt>
</event>
<event>
 4    1  0.5124795E-001  0.1341159E+03  0.7546771E-02  0.1221473E+00
          1   -1    0    0  501    0  0.00000000000E+00  0.00000000000E+00  0.88882162278E+03  0.88882162278E+03  0.00000000000E+00 0. -1.
         -1   -1    0    0    0  501 -0.00000000000E+00 -0.00000000000E+00 -0.31345182684E+02  0.31345182684E+02  0.00000000000E+00 0.  1.
         24    1    1    2    0    0  0.88470659557E+02 -0.60768514489E+02  0.15485046855E+03  0.20485544542E+03  0.80419002446E+02 0.  1.
        -24    1    1    2    0    0 -0.88470659557E+02  0.60768514489E+02  0.70262597155E+03  0.71531136004E+03  0.80419002446E+02 0. -1.
<mgrwt>
<rscale>  0 0.13411594E+03</rscale>
<asrwt>0</asrwt>
<pdfrwt beam="1">  1        1 0.13674177E+00 0.13411594E+03</pdfrwt>
<pdfrwt beam="2">  1       -1 0.48223365E-02 0.13411594E+03</pdfrwt>
<totfact> 0.35471486E+03</totfact>
</mgrwt>
</event>
<event>
 4    1  0.5124795E-001  0.1088013E+03  0.7546771E-02  0.1262806E+00
          3   -1    0    0  501    0  0.00000000000E+00  0.00000000000E+00  0.45686249551E+03  0.45686249551E+03  0.00000000000E+00 0. -1.
         -3   -1    0    0    0  501 -0.00000000000E+00 -0.00000000000E+00 -0.26234161627E+02  0.26234161627E+02  0.00000000000E+00 0.  1.
         24    1    1    2    0    0 -0.58724675442E+02  0.43839736708E+02  0.18850172107E+03  0.21764793778E+03  0.80419002446E+02 0.  1.
        -24    1    1    2    0    0  0.58724675442E+02 -0.43839736708E+02  0.24212661282E+03  0.26544871936E+03  0.80419002446E+02 0. -1.
<mgrwt>
<rscale>  0 0.10880131E+03</rscale>
<asrwt>0</asrwt>
<pdfrwt beam="1">  1        3 0.70286532E-01 0.10880131E+03</pdfrwt>
<pdfrwt beam="2">  1       -3 0.40360252E-02 0.10880131E+03</pdfrwt>
<totfact> 0.13994607E+03</totfact>
</mgrwt>
</event>
<event>
 4    1  0.5124795E-001  0.1072928E+03  0.7546771E-02  0.1265667E+00
          2   -1    0    0  501    0  0.00000000000E+00  0.00000000000E+00  0.53922131478E+03  0.53922131478E+03  0.00000000000E+00 0. -1.
         -2   -1    0    0    0  501 -0.00000000000E+00 -0.00000000000E+00 -0.23191591078E+02  0.23191591078E+02  0.00000000000E+00 0.  1.
         24    1    1    2    0    0  0.41024825568E+02  0.57978295335E+02  0.33728261211E+03  0.35393685232E+03  0.80419002446E+02 0. -1.
        -24    1    1    2    0    0 -0.41024825568E+02 -0.57978295335E+02  0.17874711159E+03  0.20847605354E+03  0.80419002446E+02 0.  1.
<mgrwt>
<rscale>  0 0.10729275E+03</rscale>
<asrwt>0</asrwt>
<pdfrwt beam="1">  1        2 0.82957116E-01 0.10729275E+03</pdfrwt>
<pdfrwt beam="2">  1       -2 0.35679375E-02 0.10729275E+03</pdfrwt>
<totfact> 0.17257493E+04</totfact>
</mgrwt>
</event>
<event>
 4    1  0.5124795E-001  0.9155185E+02  0.7546771E-02  0.1299137E+00
         -2   -1    0    0    0  501 -0.00000000000E+00  0.00000000000E+00  0.17781686587E+02  0.17781686587E+02  0.00000000000E+00 0.  1.
          2   -1    0    0  501    0  0.00000000000E+00 -0.00000000000E+00 -0.49236636998E+03  0.49236636998E+03  0.00000000000E+00 0. -1.
         24    1    1    2    0    0  0.17433238214E+02  0.40132375031E+02 -0.28996695193E+03  0.30407659313E+03  0.80419002446E+02 0. -1.
        -24    1    1    2    0    0 -0.17433238214E+02 -0.40132375031E+02 -0.18461773146E+03  0.20607146344E+03  0.80419002446E+02 0.  0.
<mgrwt>
<rscale>  0 0.91551850E+02</rscale>
<asrwt>0</asrwt>
<pdfrwt beam="1">  1        2 0.75748671E-01 0.91551850E+02</pdfrwt>
<pdfrwt beam="2">  1       -2 0.27356441E-02 0.91551850E+02</pdfrwt>
<totfact> 0.27646681E+04</totfact>
</mgrwt>
</event>
<event>
 4    1  0.5124795E-001  0.1098045E+03  0.7546771E-02  0.1260932E+00
          1   -1    0    0  501    0  0.00000000000E+00  0.00000000000E+00  0.13125620772E+03  0.13125620772E+03  0.00000000000E+00 0. -1.
         -1   -1    0    0    0  501 -0.00000000000E+00 -0.00000000000E+00 -0.91943538181E+02  0.91943538181E+02  0.00000000000E+00 0.  1.
         24    1    1    2    0    0  0.55498070249E+02 -0.50097589975E+02  0.23046986686E+02  0.11219707604E+03  0.80419002446E+02 0. -1.
        -24    1    1    2    0    0 -0.55498070249E+02  0.50097589975E+02  0.16265682853E+02  0.11100266986E+03  0.80419002446E+02 0.  1.
<mgrwt>
<rscale>  0 0.10980448E+03</rscale>
<asrwt>0</asrwt>
<pdfrwt beam="1">  1        1 0.20193263E-01 0.10980449E+03</pdfrwt>
<pdfrwt beam="2">  1       -1 0.14145160E-01 0.10980449E+03</pdfrwt>
<totfact> 0.82657765E+03</totfact>
</mgrwt>
</event>
<event>
 4    1  0.5124795E-001  0.8658372E+02  0.7546771E-02  0.1311342E+00
          2   -1    0    0  501    0  0.00000000000E+00  0.00000000000E+00  0.64479842269E+03  0.64479842269E+03  0.00000000000E+00 0. -1.
         -2   -1    0    0    0  501 -0.00000000000E+00 -0.00000000000E+00 -0.50407033050E+02  0.50407033050E+02  0.00000000000E+00 0.  1.
         24    1    1    2    0    0 -0.80282033260E+01 -0.31065613464E+02  0.60208666992E+03  0.60828044391E+03  0.80419002446E+02 0. -1.
        -24    1    1    2    0    0  0.80282033260E+01  0.31065613464E+02 -0.76952802837E+01  0.86925011830E+02  0.80419002446E+02 0.  1.
<mgrwt>
<rscale>  0 0.86583719E+02</rscale>
<asrwt>0</asrwt>
<pdfrwt beam="1">  1        2 0.99199751E-01 0.86583719E+02</pdfrwt>
<pdfrwt beam="2">  1       -2 0.77549286E-02 0.86583719E+02</pdfrwt>
<totfact> 0.43647025E+03</totfact>
</mgrwt>
</event>
<event>
 4    1  0.5124795E-001  0.9925717E+02  0.7546771E-02  0.1281866E+00
          2   -1    0    0  501    0  0.00000000000E+00  0.00000000000E+00  0.12080837583E+04  0.12080837583E+04  0.00000000000E+00 0. -1.
         -2   -1    0    0    0  501 -0.00000000000E+00 -0.00000000000E+00 -0.89470753538E+01  0.89470753538E+01  0.00000000000E+00 0.  1.
         24    1    1    2    0    0  0.58171266688E+02 -0.93513746444E+00  0.78061888882E+03  0.78690395620E+03  0.80419002446E+02 0. -1.
        -24    1    1    2    0    0 -0.58171266688E+02  0.93513746444E+00  0.41851779408E+03  0.43012687740E+03  0.80419002446E+02 0.  1.
<mgrwt>
<rscale>  0 0.99257175E+02</rscale>
<asrwt>0</asrwt>
<pdfrwt beam="1">  1        2 0.18585891E+00 0.99257175E+02</pdfrwt>
<pdfrwt beam="2">  1       -2 0.13764741E-02 0.99257175E+02</pdfrwt>
<totfact> 0.24652640E+04</totfact>
</mgrwt>
</event>
<event>
 4    1  0.5124795E-001  0.8801848E+02  0.7546771E-02  0.1307722E+00
         -1   -1    0    0    0  501 -0.00000000000E+00  0.00000000000E+00  0.10631796215E+03  0.10631796215E+03  0.00000000000E+00 0.  1.
          1   -1    0    0  501    0  0.00000000000E+00 -0.00000000000E+00 -0.17478947153E+03  0.17478947153E+03  0.00000000000E+00 0. -1.
         24    1    1    2    0    0  0.34038180552E+02 -0.11019956912E+02  0.73092983161E+02  0.11441082697E+03  0.80419002446E+02 0.  1.
        -24    1    1    2    0    0 -0.34038180552E+02  0.11019956912E+02 -0.14156449254E+03  0.16669660671E+03  0.80419002446E+02 0. -1.
<mgrwt>
<rscale>  0 0.88018482E+02</rscale>
<asrwt>0</asrwt>
<pdfrwt beam="1">  1        1 0.26890688E-01 0.88018482E+02</pdfrwt>
<pdfrwt beam="2">  1       -1 0.16356610E-01 0.88018482E+02</pdfrwt>
<totfact> 0.45360869E+03</totfact>
</mgrwt>
</event>
<event>
 4    1  0.5124795E-001  0.8250571E+02  0.7546771E-02  0.1322087E+00
          2   -1    0    0  501    0  0.00000000000E+00  0.00000000000E+00  0.22056734876E+03  0.22056734876E+03  0.00000000000E+00 0. -1.
         -2   -1    0    0    0  501 -0.00000000000E+00 -0.00000000000E+00 -0.40123718985E+02  0.40123718985E+02  0.00000000000E+00 0.  1.
         24    1    1    2    0    0  0.83841689263E+01  0.16421987558E+02  0.15284524587E+03  0.17369185676E+03  0.80419002446E+02 0. -1.
        -24    1    1    2    0    0 -0.83841689263E+01 -0.16421987558E+02  0.27598383902E+02  0.86999210987E+02  0.80419002446E+02 0.  1.
<mgrwt>
<rscale>  0 0.82505708E+02</rscale>
<asrwt>0</asrwt>
<pdfrwt beam="1">  1        2 0.33933438E-01 0.82505708E+02</pdfrwt>
<pdfrwt beam="2">  1       -2 0.61728800E-02 0.82505708E+02</pdfrwt>
<totfact> 0.19192682E+04</totfact>
</mgrwt>
</event>
<event>
 4    1  0.5124795E-001  0.1029076E+03  0.7546771E-02  0.1274298E+00
         -2   -1    0    0    0  501 -0.00000000000E+00  0.00000000000E+00  0.81387483588E+02  0.81387483588E+02  0.00000000000E+00 0.  1.
          2   -1    0    0  501    0  0.00000000000E+00 -0.00000000000E+00 -0.13097084180E+03  0.13097084180E+03  0.00000000000E+00 0. -1.
         24    1    1    2    0    0 -0.28794553460E+02  0.57390129831E+02 -0.16223093540E+02  0.10417849120E+03  0.80419002446E+02 0. -1.
        -24    1    1    2    0    0  0.28794553460E+02 -0.57390129831E+02 -0.33360264675E+02  0.10817983419E+03  0.80419002446E+02 0.  0.
<mgrwt>
<rscale>  0 0.10290759E+03</rscale>
<asrwt>0</asrwt>
<pdfrwt beam="1">  1        2 0.20149360E-01 0.10290760E+03</pdfrwt>
<pdfrwt beam="2">  1       -2 0.12521151E-01 0.10290760E+03</pdfrwt>
<totfact> 0.11615389E+04</totfact>
</mgrwt>
</event>
<event>
 4    1  0.5124795E-001  0.8336978E+02  0.7546771E-02  0.1319752E+00
         -2   -1    0    0    0  501 -0.00000000000E+00  0.00000000000E+00  0.12832666683E+02  0.12832666683E+02  0.00000000000E+00 0.  1.
          2   -1    0    0  501    0  0.00000000000E+00 -0.00000000000E+00 -0.75919564126E+03  0.75919564126E+03  0.00000000000E+00 0. -1.
         24    1    1    2    0    0 -0.17878679863E+02 -0.12792875931E+02 -0.57982623218E+03  0.58578919446E+03  0.80419002446E+02 0. -1.
        -24    1    1    2    0    0  0.17878679863E+02  0.12792875931E+02 -0.16653674240E+03  0.18623911349E+03  0.80419002446E+02 0.  1.
<mgrwt>
<rscale>  0 0.83369784E+02</rscale>
<asrwt>0</asrwt>
<pdfrwt beam="1">  1        2 0.11679931E+00 0.83369784E+02</pdfrwt>
<pdfrwt beam="2">  1       -2 0.19742567E-02 0.83369784E+02</pdfrwt>
<totfact> 0.26885171E+04</totfact>
</mgrwt>
</event>
<event>
 4    1  0.5124795E-001  0.8883893E+02  0.7546771E-02  0.1305688E+00
         -1   -1    0    0    0  501 -0.00000000000E+00  0.00000000000E+00  0.98869002395E+01  0.98869002395E+01  0.00000000000E+00 0.  1.
          1   -1    0    0  501    0  0.00000000000E+00 -0.00000000000E+00 -0.99183971171E+03  0.99183971171E+03  0.00000000000E+00 0. -1.
         24    1    1    2    0    0 -0.10986361578E+02  0.36117030116E+02 -0.26970567670E+03  0.28396039865E+03  0.80419002446E+02 0.  0.
        -24    1    1    2    0    0  0.10986361578E+02 -0.36117030116E+02 -0.71224713477E+03  0.71776621329E+03  0.80419002446E+02 0.  0.
<mgrwt>
<rscale>  0 0.88838933E+02</rscale>
<asrwt>0</asrwt>
<pdfrwt beam="1">  1        1 0.15259066E+00 0.88838933E+02</pdfrwt>
<pdfrwt beam="2">  1       -1 0.15210622E-02 0.88838933E+02</pdfrwt>
<totfact> 0.15382090E+04</totfact>
</mgrwt>
</event>
<event>
 4    1  0.5124795E-001  0.8209957E+02  0.7546771E-02  0.1323197E+00
         -2   -1    0    0    0  501 -0.00000000000E+00  0.00000000000E+00  0.21790503556E+01  0.21790503556E+01  0.00000000000E+00 0.  1.
          2   -1    0    0  501    0  0.00000000000E+00 -0.00000000000E+00 -0.33559545142E+04  0.33559545142E+04  0.00000000000E+00 0. -1.
         24    1    1    2    0    0 -0.11102507128E+02  0.12241635049E+02 -0.21466702376E+04  0.21482396161E+04  0.80419002446E+02 0. -1.
        -24    1    1    2    0    0  0.11102507128E+02 -0.12241635049E+02 -0.12071052263E+04  0.12098939485E+04  0.80419002446E+02 0. -1.
<mgrwt>
<rscale>  0 0.82099569E+02</rscale>
<asrwt>0</asrwt>
<pdfrwt beam="1">  1        2 0.51629872E+00 0.82099569E+02</pdfrwt>
<pdfrwt beam="2">  1       -2 0.33523980E-03 0.82099569E+02</pdfrwt>
<totfact> 0.12807929E+04</totfact>
</mgrwt>
</event>
<event>
 4    1  0.5124795E-001  0.8869221E+02  0.7546771E-02  0.1306050E+00
         -2   -1    0    0    0  501 -0.00000000000E+00  0.00000000000E+00  0.16210200655E+02  0.16210200655E+02  0.00000000000E+00 0.  1.
          2   -1    0    0  501    0  0.00000000000E+00 -0.00000000000E+00 -0.50601470302E+03  0.50601470302E+03  0.00000000000E+00 0. -1.
         24    1    1    2    0    0 -0.27121614587E+01  0.37305981149E+02 -0.29777233528E+03  0.31070029234E+03  0.80419002446E+02 0. -1.
        -24    1    1    2    0    0  0.27121614587E+01 -0.37305981149E+02 -0.19203216708E+03  0.21152461133E+03  0.80419002446E+02 0.  1.
<mgrwt>
<rscale>  0 0.88692209E+02</rscale>
<asrwt>0</asrwt>
<pdfrwt beam="1">  1        2 0.77848407E-01 0.88692209E+02</pdfrwt>
<pdfrwt beam="2">  1       -2 0.24938773E-02 0.88692209E+02</pdfrwt>
<totfact> 0.30579795E+04</totfact>
</mgrwt>
</event>
<event>
 4    1  0.5124795E-001  0.8451871E+02  0.7546771E-02  0.1316696E+00
         -1   -1    0    0    0  501 -0.00000000000E+00  0.00000000000E+00  0.38250205891E+02  0.38250205891E+02  0.00000000000E+00 0.  1.
          1   -1    0    0  501    0  0.00000000000E+00 -0.00000000000E+00 -0.35576078634E+03  0.35576078634E+03  0.00000000000E+00 0. -1.
         24    1    1    2    0    0  0.16254002722E+02  0.20297871744E+02 -0.22970770441E+02  0.87584635929E+02  0.80419002446E+02 0.  0.
        -24    1    1    2    0    0 -0.16254002722E+02 -0.20297871744E+02 -0.29453981001E+03  0.30642635630E+03  0.80419002446E+02 0.  0.
<mgrwt>
<rscale>  0 0.84518709E+02</rscale>
<asrwt>0</asrwt>
<pdfrwt beam="1">  1        1 0.54732428E-01 0.84518709E+02</pdfrwt>
<pdfrwt beam="2">  1       -1 0.58846472E-02 0.84518709E+02</pdfrwt>
<totfact> 0.88712442E+03</totfact>
</mgrwt>
</event>
<event>
 4    1  0.5124795E-001  0.8993809E+02  0.7546771E-02  0.1303002E+00
          1   -1    0    0  501    0  0.00000000000E+00  0.00000000000E+00  0.30731731823E+02  0.30731731823E+02  0.00000000000E+00 0. -1.
         -1   -1    0    0    0  501 -0.00000000000E+00 -0.00000000000E+00 -0.27169571553E+03  0.27169571553E+03  0.00000000000E+00 0.  1.
         24    1    1    2    0    0  0.24249126062E+02  0.32150032007E+02 -0.14720750842E+03  0.17250771334E+03  0.80419002446E+02 0.  0.
        -24    1    1    2    0    0 -0.24249126062E+02 -0.32150032007E+02 -0.93756475289E+02  0.12991973401E+03  0.80419002446E+02 0. -1.
<mgrwt>
<rscale>  0 0.89938093E+02</rscale>
<asrwt>0</asrwt>
<pdfrwt beam="1">  1        1 0.47279587E-02 0.89938093E+02</pdfrwt>
<pdfrwt beam="2">  1       -1 0.41799341E-01 0.89938093E+02</pdfrwt>
<totfact> 0.93065844E+03</totfact>
</mgrwt>
</event>
<event>
 4    1  0.5124795E-001  0.1907562E+03  0.7546771E-02  0.1157781E+00
         -2   -1    0    0    0  501 -0.00000000000E+00  0.00000000000E+00  0.16798136930E+02  0.16798136930E+02  0.00000000000E+00 0.  1.
          2   -1    0    0  501    0  0.00000000000E+00 -0.00000000000E+00 -0.31074809899E+04  0.31074809899E+04  0.00000000000E+00 0. -1.
         24    1    1    2    0    0  0.45686303268E+02  0.16683361950E+03 -0.24051032666E+04  0.24126561367E+04  0.80419002446E+02 0.  0.
        -24    1    1    2    0    0 -0.45686303268E+02 -0.16683361950E+03 -0.68557958632E+03  0.71162299010E+03  0.80419002446E+02 0.  1.
<mgrwt>
<rscale>  0 0.19075616E+03</rscale>
<asrwt>0</asrwt>
<pdfrwt beam="1">  1        2 0.47807346E+00 0.19075616E+03</pdfrwt>
<pdfrwt beam="2">  1       -2 0.25843317E-02 0.19075616E+03</pdfrwt>
<totfact> 0.96732049E+02</totfact>
</mgrwt>
</event>
<event>
 4    1  0.5124795E-001  0.1006060E+03  0.7546771E-02  0.1279027E+00
          1   -1    0    0  501    0  0.00000000000E+00  0.00000000000E+00  0.65892353000E+03  0.65892353000E+03  0.00000000000E+00 0. -1.
         -1   -1    0    0    0  501 -0.00000000000E+00 -0.00000000000E+00 -0.86573667778E+02  0.86573667778E+02  0.00000000000E+00 0.  1.
         24    1    1    2    0    0  0.10882677306E+02 -0.59463651449E+02 -0.51891798613E+02  0.11320041178E+03  0.80419002446E+02 0.  1.
        -24    1    1    2    0    0 -0.10882677306E+02  0.59463651449E+02  0.62424166083E+03  0.63229678600E+03  0.80419002446E+02 0. -1.
<mgrwt>
<rscale>  0 0.10060604E+03</rscale>
<asrwt>0</asrwt>
<pdfrwt beam="1">  1        1 0.10137285E+00 0.10060604E+03</pdfrwt>
<pdfrwt beam="2">  1       -1 0.13319026E-01 0.10060604E+03</pdfrwt>
<totfact> 0.11870121E+03</totfact>
</mgrwt>
</event>
<event>
 4    1  0.5124795E-001  0.2178310E+03  0.7546771E-02  0.1135511E+00
         -1   -1    0    0    0  501 -0.00000000000E+00  0.00000000000E+00  0.26398632804E+03  0.26398632804E+03  0.00000000000E+00 0.  1.
          1   -1    0    0  501    0  0.00000000000E+00 -0.00000000000E+00 -0.32717111775E+03  0.32717111775E+03  0.00000000000E+00 0. -1.
         24    1    1    2    0    0  0.11500545197E+03  0.16660391028E+03  0.16682159418E+03  0.27437160411E+03  0.80419002446E+02 0.  1.
        -24    1    1    2    0    0 -0.11500545197E+03 -0.16660391028E+03 -0.23000638389E+03  0.31678584168E+03  0.80419002446E+02 0. -1.
<mgrwt>
<rscale>  0 0.21783097E+03</rscale>
<asrwt>0</asrwt>
<pdfrwt beam="1">  1        1 0.50334018E-01 0.21783097E+03</pdfrwt>
<pdfrwt beam="2">  1       -1 0.40613281E-01 0.21783097E+03</pdfrwt>
<totfact> 0.47472540E+02</totfact>
</mgrwt>
</event>
<event>
 4    1  0.5124795E-001  0.1056732E+03  0.7546771E-02  0.1268799E+00
         -2   -1    0    0    0  501 -0.00000000000E+00  0.00000000000E+00  0.40739489951E+01  0.40739489951E+01  0.00000000000E+00 0.  1.
          2   -1    0    0  501    0  0.00000000000E+00 -0.00000000000E+00 -0.31719285106E+04  0.31719285106E+04  0.00000000000E+00 0. -1.
         24    1    1    2    0    0 -0.35262981897E+02 -0.58788782122E+02 -0.21692250130E+04  0.21717974058E+04  0.80419002446E+02 0. -1.
        -24    1    1    2    0    0  0.35262981897E+02  0.58788782122E+02 -0.99862954852E+03  0.10042050537E+04  0.80419002446E+02 0.  1.
<mgrwt>
<rscale>  0 0.10567315E+03</rscale>
<asrwt>0</asrwt>
<pdfrwt beam="1">  1        2 0.48798947E+00 0.10567315E+03</pdfrwt>
<pdfrwt beam="2">  1       -2 0.62676078E-03 0.10567315E+03</pdfrwt>
<totfact> 0.69065585E+03</totfact>
</mgrwt>
</event>
<event>
 4    1  0.5124795E-001  0.8069417E+02  0.7546771E-02  0.1327093E+00
         -2   -1    0    0    0  501 -0.00000000000E+00  0.00000000000E+00  0.20664430147E+02  0.20664430147E+02  0.00000000000E+00 0.  1.
          2   -1    0    0  501    0  0.00000000000E+00 -0.00000000000E+00 -0.73139211353E+03  0.73139211353E+03  0.00000000000E+00 0. -1.
         24    1    1    2    0    0  0.34416819791E+01  0.56998176270E+01 -0.63905103510E+03  0.64412558908E+03  0.80419002446E+02 0. -1.
        -24    1    1    2    0    0 -0.34416819791E+01 -0.56998176270E+01 -0.71676648281E+02  0.10793095459E+03  0.80419002446E+02 0.  1.
<mgrwt>
<rscale>  0 0.80694170E+02</rscale>
<asrwt>0</asrwt>
<pdfrwt beam="1">  1        2 0.11252185E+00 0.80694170E+02</pdfrwt>
<pdfrwt beam="2">  1       -2 0.31791433E-02 0.80694170E+02</pdfrwt>
<totfact> 0.14095717E+04</totfact>
</mgrwt>
</event>
<event>
 4    1  0.5124795E-001  0.1701615E+03  0.7546771E-02  0.1177680E+00
          3   -1    0    0  501    0  0.00000000000E+00  0.00000000000E+00  0.54774666514E+03  0.54774666514E+03  0.00000000000E+00 0. -1.
         -3   -1    0    0    0  501 -0.00000000000E+00 -0.00000000000E+00 -0.53052560540E+02  0.53052560540E+02  0.00000000000E+00 0.  1.
         24    1    1    2    0    0  0.83797807325E+02 -0.12436091484E+03  0.26535584382E+03  0.31522793255E+03  0.80419002446E+02 0. -1.
        -24    1    1    2    0    0 -0.83797807325E+02  0.12436091484E+03  0.22933826077E+03  0.28557129313E+03  0.80419002446E+02 0.  0.
<mgrwt>
<rscale>  0 0.17016149E+03</rscale>
<asrwt>0</asrwt>
<pdfrwt beam="1">  1        3 0.84268714E-01 0.17016151E+03</pdfrwt>
<pdfrwt beam="2">  1       -3 0.81619328E-02 0.17016151E+03</pdfrwt>
<totfact> 0.32942421E+02</totfact>
</mgrwt>
</event>
<event>
 4    1  0.5124795E-001  0.1238956E+03  0.7546771E-02  0.1236805E+00
          1   -1    0    0  501    0  0.00000000000E+00  0.00000000000E+00  0.48610876539E+03  0.48610876539E+03  0.00000000000E+00 0. -1.
         -1   -1    0    0    0  501 -0.00000000000E+00 -0.00000000000E+00 -0.31635042986E+02  0.31635042986E+02  0.00000000000E+00 0.  1.
         24    1    1    2    0    0 -0.83258397041E+02 -0.44169377588E+02  0.23827539562E+03  0.26856149148E+03  0.80419002446E+02 0.  0.
        -24    1    1    2    0    0  0.83258397041E+02  0.44169377588E+02  0.21619832679E+03  0.24918231690E+03  0.80419002446E+02 0.  0.
<mgrwt>
<rscale>  0 0.12389558E+03</rscale>
<asrwt>0</asrwt>
<pdfrwt beam="1">  1        1 0.74785959E-01 0.12389559E+03</pdfrwt>
<pdfrwt beam="2">  1       -1 0.48669300E-02 0.12389559E+03</pdfrwt>
<totfact> 0.81597957E+03</totfact>
</mgrwt>
</event>
<event>
 4    1  0.5124795E-001  0.8745382E+02  0.7546771E-02  0.1309137E+00
          2   -1    0    0  501    0  0.00000000000E+00  0.00000000000E+00  0.11291946740E+04  0.11291946740E+04  0.00000000000E+00 0. -1.
         -2   -1    0    0    0  501 -0.00000000000E+00 -0.00000000000E+00 -0.74828897038E+01  0.74828897038E+01  0.00000000000E+00 0.  1.
         24    1    1    2    0    0  0.83293945377E+01  0.33340306753E+02  0.73589351453E+03  0.74107181538E+03  0.80419002446E+02 0.  0.
        -24    1    1    2    0    0 -0.83293945377E+01 -0.33340306753E+02  0.38581826977E+03  0.39560574833E+03  0.80419002446E+02 0.  0.
<mgrwt>
<rscale>  0 0.87453821E+02</rscale>
<asrwt>0</asrwt>
<pdfrwt beam="1">  1        2 0.17372212E+00 0.87453821E+02</pdfrwt>
<pdfrwt beam="2">  1       -2 0.11512147E-02 0.87453821E+02</pdfrwt>
<totfact> 0.34723188E+04</totfact>
</mgrwt>
</event>
<event>
 4    1  0.5124795E-001  0.8287294E+02  0.7546771E-02  0.1321091E+00
          1   -1    0    0  501    0  0.00000000000E+00  0.00000000000E+00  0.94339558207E+03  0.94339558207E+03  0.00000000000E+00 0. -1.
         -1   -1    0    0    0  501 -0.00000000000E+00 -0.00000000000E+00 -0.19160157798E+02  0.19160157798E+02  0.00000000000E+00 0.  1.
         24    1    1    2    0    0 -0.92054523445E+01  0.17775485861E+02  0.83145495737E+02  0.11739292000E+03  0.80419002446E+02 0.  1.
        -24    1    1    2    0    0  0.92054523445E+01 -0.17775485861E+02  0.84108992854E+03  0.84516281987E+03  0.80419002446E+02 0. -1.
<mgrwt>
<rscale>  0 0.82872940E+02</rscale>
<asrwt>0</asrwt>
<pdfrwt beam="1">  1        1 0.14513775E+00 0.82872940E+02</pdfrwt>
<pdfrwt beam="2">  1       -1 0.29477173E-02 0.82872940E+02</pdfrwt>
<totfact> 0.64607130E+03</totfact>
</mgrwt>
</event>
<event>
 4    1  0.5124795E-001  0.1142290E+03  0.7546771E-02  0.1252933E+00
          1   -1    0    0  501    0  0.00000000000E+00  0.00000000000E+00  0.35665231997E+03  0.35665231997E+03  0.00000000000E+00 0. -1.
         -1   -1    0    0    0  501 -0.00000000000E+00 -0.00000000000E+00 -0.11397585168E+03  0.11397585168E+03  0.00000000000E+00 0.  1.
         24    1    1    2    0    0 -0.23545705198E+01  0.81089513278E+02 -0.72565057592E+02  0.13532906821E+03  0.80419002446E+02 0.  1.
        -24    1    1    2    0    0  0.23545705198E+01 -0.81089513278E+02  0.31524152589E+03  0.33529910344E+03  0.80419002446E+02 0. -1.
<mgrwt>
<rscale>  0 0.11422902E+03</rscale>
<asrwt>0</asrwt>
<pdfrwt beam="1">  1        1 0.54869587E-01 0.11422902E+03</pdfrwt>
<pdfrwt beam="2">  1       -1 0.17534747E-01 0.11422902E+03</pdfrwt>
<totfact> 0.17160255E+03</totfact>
</mgrwt>
</event>
<event>
 4    1  0.5124795E-001  0.8141107E+02  0.7546771E-02  0.1325094E+00
         -2   -1    0    0    0  501 -0.00000000000E+00  0.00000000000E+00  0.13383329900E+03  0.13383329900E+03  0.00000000000E+00 0.  1.
          2   -1    0    0  501    0  0.00000000000E+00 -0.00000000000E+00 -0.56906868052E+02  0.56906868052E+02  0.00000000000E+00 0. -1.
         24    1    1    2    0    0  0.11642824482E+02  0.49991257241E+01  0.41085421197E+01  0.81514677774E+02  0.80419002446E+02 0. -1.
        -24    1    1    2    0    0 -0.11642824482E+02 -0.49991257241E+01  0.72817888824E+02  0.10922548927E+03  0.80419002446E+02 0.  1.
<mgrwt>
<rscale>  0 0.81411072E+02</rscale>
<asrwt>0</asrwt>
<pdfrwt beam="1">  1        2 0.87549028E-02 0.81411072E+02</pdfrwt>
<pdfrwt beam="2">  1       -2 0.20589738E-01 0.81411072E+02</pdfrwt>
<totfact> 0.13394215E+04</totfact>
</mgrwt>
</event>
<event>
 4    1  0.5124795E-001  0.8856282E+02  0.7546771E-02  0.1306370E+00
         -2   -1    0    0    0  501 -0.00000000000E+00  0.00000000000E+00  0.31529061117E+01  0.31529061117E+01  0.00000000000E+00 0.  1.
          2   -1    0    0  501    0  0.00000000000E+00 -0.00000000000E+00 -0.26453192113E+04  0.26453192113E+04  0.00000000000E+00 0. -1.
         24    1    1    2    0    0  0.55718817126E+01  0.36675769255E+02 -0.16443634901E+04  0.16467466901E+04  0.80419002446E+02 0. -1.
        -24    1    1    2    0    0 -0.55718817126E+01 -0.36675769255E+02 -0.99780281516E+03  0.10017254274E+04  0.80419002446E+02 0.  1.
<mgrwt>
<rscale>  0 0.88562824E+02</rscale>
<asrwt>0</asrwt>
<pdfrwt beam="1">  1        2 0.40697312E+00 0.88562824E+02</pdfrwt>
<pdfrwt beam="2">  1       -2 0.48506136E-03 0.88562824E+02</pdfrwt>
<totfact> 0.19487640E+04</totfact>
</mgrwt>
</event>
<event>
 4    1  0.5124795E-001  0.9354949E+02  0.7546771E-02  0.1294477E+00
         -2   -1    0    0    0  501 -0.00000000000E+00  0.00000000000E+00  0.18079971313E+03  0.18079971313E+03  0.00000000000E+00 0.  1.
          2   -1    0    0  501    0  0.00000000000E+00 -0.00000000000E+00 -0.26223274784E+03  0.26223274784E+03  0.00000000000E+00 0. -1.
         24    1    1    2    0    0 -0.91210808590E+01  0.46915856388E+02 -0.24074631516E+03  0.25828336360E+03  0.80419002446E+02 0. -1.
        -24    1    1    2    0    0  0.91210808590E+01 -0.46915856388E+02  0.15931328045E+03  0.18474909737E+03  0.80419002446E+02 0.  1.
<mgrwt>
<rscale>  0 0.93549493E+02</rscale>
<asrwt>0</asrwt>
<pdfrwt beam="1">  1        2 0.40343499E-01 0.93549493E+02</pdfrwt>
<pdfrwt beam="2">  1       -2 0.27815341E-01 0.93549493E+02</pdfrwt>
<totfact> 0.14405096E+03</totfact>
</mgrwt>
</event>
<event>
 4    1  0.5124795E-001  0.8751084E+02  0.7546771E-02  0.1308994E+00
          2   -1    0    0  501    0  0.00000000000E+00  0.00000000000E+00  0.66531983296E+02  0.66531983296E+02  0.00000000000E+00 0. -1.
         -2   -1    0    0    0  501 -0.00000000000E+00 -0.00000000000E+00 -0.11520856691E+03  0.11520856691E+03  0.00000000000E+00 0.  1.
         24    1    1    2    0    0 -0.29781315310E+02  0.17435735205E+02 -0.21610535752E+02  0.90139685009E+02  0.80419002446E+02 0.  0.
        -24    1    1    2    0    0  0.29781315310E+02 -0.17435735205E+02 -0.27066047863E+02  0.91600865198E+02  0.80419002446E+02 0.  1.
<mgrwt>
<rscale>  0 0.87510843E+02</rscale>
<asrwt>0</asrwt>
<pdfrwt beam="1">  1        2 0.10235690E-01 0.87510843E+02</pdfrwt>
<pdfrwt beam="2">  1       -2 0.17724395E-01 0.87510843E+02</pdfrwt>
<totfact> 0.14323604E+04</totfact>
</mgrwt>
</event>
<event>
 4    1  0.5124795E-001  0.1112868E+03  0.7546771E-02  0.1258205E+00
          2   -1    0    0  501    0  0.00000000000E+00  0.00000000000E+00  0.38220108145E+03  0.38220108145E+03  0.00000000000E+00 0. -1.
         -2   -1    0    0    0  501 -0.00000000000E+00 -0.00000000000E+00 -0.74642689313E+02  0.74642689313E+02  0.00000000000E+00 0.  1.
         24    1    1    2    0    0 -0.34794120520E+02  0.68606966292E+02  0.32560974685E+03  0.34410241186E+03  0.80419002446E+02 0. -1.
        -24    1    1    2    0    0  0.34794120520E+02 -0.68606966292E+02 -0.18051354715E+02  0.11274135891E+03  0.80419002446E+02 0.  1.
<mgrwt>
<rscale>  0 0.11128685E+03</rscale>
<asrwt>0</asrwt>
<pdfrwt beam="1">  1        2 0.58800165E-01 0.11128685E+03</pdfrwt>
<pdfrwt beam="2">  1       -2 0.11483491E-01 0.11128685E+03</pdfrwt>
<totfact> 0.42508457E+03</totfact>
</mgrwt>
</event>
<event>
 4    1  0.5124795E-001  0.1129699E+03  0.7546771E-02  0.1255167E+00
          2   -1    0    0  501    0  0.00000000000E+00  0.00000000000E+00  0.34233766342E+03  0.34233766342E+03  0.00000000000E+00 0. -1.
         -2   -1    0    0    0  501 -0.00000000000E+00 -0.00000000000E+00 -0.10691509974E+03  0.10691509974E+03  0.00000000000E+00 0.  1.
         24    1    1    2    0    0 -0.36372568811E+02  0.70512547993E+02  0.29899412186E+03  0.31962428576E+03  0.80419002446E+02 0. -1.
        -24    1    1    2    0    0  0.36372568811E+02 -0.70512547993E+02 -0.63571558186E+02  0.12962847739E+03  0.80419002446E+02 0.  1.
<mgrwt>
<rscale>  0 0.11296990E+03</rscale>
<asrwt>0</asrwt>
<pdfrwt beam="1">  1        2 0.52667332E-01 0.11296990E+03</pdfrwt>
<pdfrwt beam="2">  1       -2 0.16448477E-01 0.11296990E+03</pdfrwt>
<totfact> 0.26780444E+03</totfact>
</mgrwt>
</event>
<event>
 4    1  0.5124795E-001  0.9560336E+02  0.7546771E-02  0.1289823E+00
          2   -1    0    0  501    0  0.00000000000E+00  0.00000000000E+00  0.43138937982E+03  0.43138937982E+03  0.00000000000E+00 0. -1.
         -2   -1    0    0    0  501 -0.00000000000E+00 -0.00000000000E+00 -0.27999669809E+02  0.27999669809E+02  0.00000000000E+00 0.  1.
         24    1    1    2    0    0  0.50862817279E+02  0.92607023231E+01  0.31499261804E+03  0.32918133630E+03  0.80419002446E+02 0.  0.
        -24    1    1    2    0    0 -0.50862817279E+02 -0.92607023231E+01  0.88397091968E+02  0.13020771333E+03  0.80419002446E+02 0.  0.
<mgrwt>
<rscale>  0 0.95603362E+02</rscale>
<asrwt>0</asrwt>
<pdfrwt beam="1">  1        2 0.66367592E-01 0.95603362E+02</pdfrwt>
<pdfrwt beam="2">  1       -2 0.43076418E-02 0.95603362E+02</pdfrwt>
<totfact> 0.16463798E+04</totfact>
</mgrwt>
</event>
<event>
 4    1  0.5124795E-001  0.9443682E+02  0.7546771E-02  0.1292450E+00
          2   -1    0    0  501    0  0.00000000000E+00  0.00000000000E+00  0.60342041367E+02  0.60342041367E+02  0.00000000000E+00 0. -1.
         -2   -1    0    0    0  501 -0.00000000000E+00 -0.00000000000E+00 -0.14847727664E+03  0.14847727664E+03  0.00000000000E+00 0.  1.
         24    1    1    2    0    0 -0.14850651462E+02 -0.47228752101E+02 -0.36995167711E+02  0.10142462848E+03  0.80419002446E+02 0.  0.
        -24    1    1    2    0    0  0.14850651462E+02  0.47228752101E+02 -0.51140067559E+02  0.10739468952E+03  0.80419002446E+02 0.  1.
<mgrwt>
<rscale>  0 0.94436819E+02</rscale>
<asrwt>0</asrwt>
<pdfrwt beam="1">  1        2 0.92833912E-02 0.94436819E+02</pdfrwt>
<pdfrwt beam="2">  1       -2 0.22842657E-01 0.94436819E+02</pdfrwt>
<totfact> 0.10620945E+04</totfact>
</mgrwt>
</event>
<event>
 4    1  0.5124795E-001  0.8064085E+02  0.7546771E-02  0.1327243E+00
         -2   -1    0    0    0  501 -0.00000000000E+00  0.00000000000E+00  0.25630540156E+02  0.25630540156E+02  0.00000000000E+00 0.  1.
          2   -1    0    0  501    0  0.00000000000E+00 -0.00000000000E+00 -0.25396821778E+03  0.25396821778E+03  0.00000000000E+00 0. -1.
         24    1    1    2    0    0  0.36002791612E+01 -0.47716488011E+01 -0.11855102840E+03  0.14337814663E+03  0.80419002446E+02 0.  0.
        -24    1    1    2    0    0 -0.36002791612E+01  0.47716488011E+01 -0.10978664923E+03  0.13622061131E+03  0.80419002446E+02 0. -1.
<mgrwt>
<rscale>  0 0.80640849E+02</rscale>
<asrwt>0</asrwt>
<pdfrwt beam="1">  1        2 0.39072034E-01 0.80640849E+02</pdfrwt>
<pdfrwt beam="2">  1       -2 0.39431599E-02 0.80640849E+02</pdfrwt>
<totfact> 0.32048961E+04</totfact>
</mgrwt>
</event>
<event>
 4    1  0.5124795E-001  0.1074871E+03  0.7546771E-02  0.1265295E+00
          2   -1    0    0  501    0  0.00000000000E+00  0.00000000000E+00  0.98699716036E+03  0.98699716036E+03  0.00000000000E+00 0. -1.
         -2   -1    0    0    0  501 -0.00000000000E+00 -0.00000000000E+00 -0.17500660849E+02  0.17500660849E+02  0.00000000000E+00 0.  1.
         24    1    1    2    0    0 -0.49924815828E+02  0.50929051505E+02  0.77376155481E+03  0.78119166354E+03  0.80419002446E+02 0. -1.
        -24    1    1    2    0    0  0.49924815828E+02 -0.50929051505E+02  0.19573494470E+03  0.22330615767E+03  0.80419002446E+02 0.  1.
<mgrwt>
<rscale>  0 0.10748708E+03</rscale>
<asrwt>0</asrwt>
<pdfrwt beam="1">  1        2 0.15184567E+00 0.10748708E+03</pdfrwt>
<pdfrwt beam="2">  1       -2 0.26924101E-02 0.10748708E+03</pdfrwt>
<totfact> 0.12591407E+04</totfact>
</mgrwt>
</event>
<event>
 4    1  0.5124795E-001  0.9891886E+02  0.7546771E-02  0.1282586E+00
          1   -1    0    0  501    0  0.00000000000E+00  0.00000000000E+00  0.13245153827E+04  0.13245153827E+04  0.00000000000E+00 0. -1.
         -1   -1    0    0    0  501 -0.00000000000E+00 -0.00000000000E+00 -0.82154444027E+01  0.82154444027E+01  0.00000000000E+00 0.  1.
         24    1    1    2    0    0  0.45691707194E+02  0.35071258505E+02  0.44661561855E+03  0.45743901448E+03  0.80419002446E+02 0.  1.
        -24    1    1    2    0    0 -0.45691707194E+02 -0.35071258505E+02  0.86968431977E+03  0.87529181265E+03  0.80419002446E+02 0. -1.
<mgrwt>
<rscale>  0 0.98918862E+02</rscale>
<asrwt>0</asrwt>
<pdfrwt beam="1">  1        1 0.20377143E+00 0.98918862E+02</pdfrwt>
<pdfrwt beam="2">  1       -1 0.12639156E-02 0.98918862E+02</pdfrwt>
<totfact> 0.11936773E+04</totfact>
</mgrwt>
</event>
<event>
 4    1  0.5124795E-001  0.8231464E+02  0.7546771E-02  0.1322608E+00
         -1   -1    0    0    0  501 -0.00000000000E+00  0.00000000000E+00  0.58456566120E+01  0.58456566120E+01  0.00000000000E+00 0.  1.
          1   -1    0    0  501    0  0.00000000000E+00 -0.00000000000E+00 -0.11671299622E+04  0.11671299622E+04  0.00000000000E+00 0. -1.
         24    1    1    2    0    0 -0.15281900812E+02  0.86570426512E+01 -0.62929110089E+03  0.63465186244E+03  0.80419002446E+02 0.  0.
        -24    1    1    2    0    0  0.15281900812E+02 -0.86570426512E+01 -0.53199320473E+03  0.53832375641E+03  0.80419002446E+02 0. -1.
<mgrwt>
<rscale>  0 0.82314631E+02</rscale>
<asrwt>0</asrwt>
<pdfrwt beam="1">  1        1 0.17955873E+00 0.82314642E+02</pdfrwt>
<pdfrwt beam="2">  1       -1 0.89933041E-03 0.82314642E+02</pdfrwt>
<totfact> 0.24211606E+04</totfact>
</mgrwt>
</event>
<event>
 4    1  0.5124795E-001  0.1057097E+03  0.7546771E-02  0.1268728E+00
         -2   -1    0    0    0  501 -0.00000000000E+00  0.00000000000E+00  0.89220742580E+02  0.89220742580E+02  0.00000000000E+00 0.  1.
          2   -1    0    0  501    0  0.00000000000E+00 -0.00000000000E+00 -0.12757718863E+03  0.12757718863E+03  0.00000000000E+00 0. -1.
         24    1    1    2    0    0  0.64734432564E+02  0.22732696199E+02 -0.33831352799E+02  0.11099143491E+03  0.80419002446E+02 0. -1.
        -24    1    1    2    0    0 -0.64734432564E+02 -0.22732696199E+02 -0.45250932477E+01  0.10580649630E+03  0.80419002446E+02 0.  1.
<mgrwt>
<rscale>  0 0.10570969E+03</rscale>
<asrwt>0</asrwt>
<pdfrwt beam="1">  1        2 0.19627260E-01 0.10570969E+03</pdfrwt>
<pdfrwt beam="2">  1       -2 0.13726268E-01 0.10570969E+03</pdfrwt>
<totfact> 0.10352085E+04</totfact>
</mgrwt>
</event>
<event>
 4    1  0.5124795E-001  0.9325545E+02  0.7546771E-02  0.1295154E+00
          2   -1    0    0  501    0  0.00000000000E+00  0.00000000000E+00  0.39721190052E+03  0.39721190052E+03  0.00000000000E+00 0. -1.
         -2   -1    0    0    0  501 -0.00000000000E+00 -0.00000000000E+00 -0.13334792443E+03  0.13334792443E+03  0.00000000000E+00 0.  1.
         24    1    1    2    0    0  0.36517603889E+02  0.29930388155E+02  0.37445827032E+03  0.38589580938E+03  0.80419002446E+02 0. -1.
        -24    1    1    2    0    0 -0.36517603889E+02 -0.29930388155E+02 -0.11059429423E+03  0.14466401557E+03  0.80419002446E+02 0.  1.
<mgrwt>
<rscale>  0 0.93255453E+02</rscale>
<asrwt>0</asrwt>
<pdfrwt beam="1">  1        2 0.61109522E-01 0.93255453E+02</pdfrwt>
<pdfrwt beam="2">  1       -2 0.20515066E-01 0.93255453E+02</pdfrwt>
<totfact> 0.15738691E+03</totfact>
</mgrwt>
</event>
<event>
 4    1  0.5124795E-001  0.8770713E+02  0.7546771E-02  0.1308501E+00
         -1   -1    0    0    0  501 -0.00000000000E+00  0.00000000000E+00  0.31917452957E+02  0.31917452957E+02  0.00000000000E+00 0.  1.
          1   -1    0    0  501    0  0.00000000000E+00 -0.00000000000E+00 -0.46158854577E+03  0.46158854577E+03  0.00000000000E+00 0. -1.
         24    1    1    2    0    0  0.15042875904E+02  0.31607537138E+02 -0.44261476434E+02  0.98242652498E+02  0.80419002446E+02 0.  1.
        -24    1    1    2    0    0 -0.15042875904E+02 -0.31607537138E+02 -0.38540961638E+03  0.39526334623E+03  0.80419002446E+02 0. -1.
<mgrwt>
<rscale>  0 0.87707129E+02</rscale>
<asrwt>0</asrwt>
<pdfrwt beam="1">  1        1 0.71013613E-01 0.87707129E+02</pdfrwt>
<pdfrwt beam="2">  1       -1 0.49103780E-02 0.87707129E+02</pdfrwt>
<totfact> 0.83913988E+03</totfact>
</mgrwt>
</event>
<event>
 4    1  0.5124795E-001  0.8769602E+02  0.7546771E-02  0.1308529E+00
         -1   -1    0    0    0  501 -0.00000000000E+00  0.00000000000E+00  0.28611113841E+02  0.28611113841E+02  0.00000000000E+00 0.  1.
          1   -1    0    0  501    0  0.00000000000E+00 -0.00000000000E+00 -0.27699849735E+03  0.27699849735E+03  0.00000000000E+00 0. -1.
         24    1    1    2    0    0 -0.28319077253E+02  0.20528189343E+02 -0.97901025684E+02  0.13143516835E+03  0.80419002446E+02 0.  1.
        -24    1    1    2    0    0  0.28319077253E+02 -0.20528189343E+02 -0.15048635782E+03  0.17417444284E+03  0.80419002446E+02 0. -1.
<mgrwt>
<rscale>  0 0.87696024E+02</rscale>
<asrwt>0</asrwt>
<pdfrwt beam="1">  1        1 0.42615153E-01 0.87696024E+02</pdfrwt>
<pdfrwt beam="2">  1       -1 0.44017099E-02 0.87696024E+02</pdfrwt>
<totfact> 0.18477446E+04</totfact>
</mgrwt>
</event>
<event>
 4    1  0.5124795E-001  0.1354782E+03  0.7546771E-02  0.1219546E+00
          2   -1    0    0  501    0  0.00000000000E+00  0.00000000000E+00  0.14494266372E+04  0.14494266372E+04  0.00000000000E+00 0. -1.
         -2   -1    0    0    0  501 -0.00000000000E+00 -0.00000000000E+00 -0.13925785183E+02  0.13925785183E+02  0.00000000000E+00 0.  1.
         24    1    1    2    0    0 -0.48039203491E+01  0.10892217675E+03  0.93806579632E+03  0.94779838174E+03  0.80419002446E+02 0. -1.
        -24    1    1    2    0    0  0.48039203491E+01 -0.10892217675E+03  0.49743505565E+03  0.51555404060E+03  0.80419002446E+02 0.  1.
<mgrwt>
<rscale>  0 0.13547817E+03</rscale>
<asrwt>0</asrwt>
<pdfrwt beam="1">  1        2 0.22298859E+00 0.13547817E+03</pdfrwt>
<pdfrwt beam="2">  1       -2 0.21424296E-02 0.13547817E+03</pdfrwt>
<totfact> 0.98848752E+03</totfact>
</mgrwt>
</event>
<event>
 4    1  0.5124795E-001  0.1071808E+03  0.7546771E-02  0.1265881E+00
          1   -1    0    0  501    0  0.00000000000E+00  0.00000000000E+00  0.12473434814E+04  0.12473434814E+04  0.00000000000E+00 0. -1.
         -1   -1    0    0    0  501 -0.00000000000E+00 -0.00000000000E+00 -0.11934332622E+02  0.11934332622E+02  0.00000000000E+00 0.  1.
         24    1    1    2    0    0 -0.34245940414E+02 -0.62030029457E+02  0.31685994242E+03  0.33449655911E+03  0.80419002446E+02 0.  1.
        -24    1    1    2    0    0  0.34245940414E+02  0.62030029457E+02  0.91854920632E+03  0.92478125488E+03  0.80419002446E+02 0. -1.
<mgrwt>
<rscale>  0 0.10718080E+03</rscale>
<asrwt>0</asrwt>
<pdfrwt beam="1">  1        1 0.19189889E+00 0.10718080E+03</pdfrwt>
<pdfrwt beam="2">  1       -1 0.18360522E-02 0.10718080E+03</pdfrwt>
<totfact> 0.79259292E+03</totfact>
</mgrwt>
</event>
<event>
 4    1  0.5124795E-001  0.8701184E+02  0.7546771E-02  0.1310254E+00
          2   -1    0    0  501    0  0.00000000000E+00  0.00000000000E+00  0.15414858414E+04  0.15414858414E+04  0.00000000000E+00 0. -1.
         -2   -1    0    0    0  501 -0.00000000000E+00 -0.00000000000E+00 -0.76675561124E+01  0.76675561124E+01  0.00000000000E+00 0.  1.
         24    1    1    2    0    0 -0.33187720204E+02  0.15556859892E+01  0.12312931516E+04  0.12343637576E+04  0.80419002446E+02 0. -1.
        -24    1    1    2    0    0  0.33187720204E+02 -0.15556859892E+01  0.30252513363E+03  0.31478963986E+03  0.80419002446E+02 0.  1.
<mgrwt>
<rscale>  0 0.87011843E+02</rscale>
<asrwt>0</asrwt>
<pdfrwt beam="1">  1        2 0.23715142E+00 0.87011843E+02</pdfrwt>
<pdfrwt beam="2">  1       -2 0.11796252E-02 0.87011843E+02</pdfrwt>
<totfact> 0.20345974E+04</totfact>
</mgrwt>
</event>
<event>
 4    1  0.5124795E-001  0.8468964E+02  0.7546771E-02  0.1316246E+00
          2   -1    0    0  501    0  0.00000000000E+00  0.00000000000E+00  0.86492033545E+03  0.86492033545E+03  0.00000000000E+00 0. -1.
         -2   -1    0    0    0  501 -0.00000000000E+00 -0.00000000000E+00 -0.39431048817E+02  0.39431048817E+02  0.00000000000E+00 0.  1.
         24    1    1    2    0    0  0.25701720520E+02  0.66738595169E+01  0.81457002855E+03  0.81896072324E+03  0.80419002446E+02 0.  0.
        -24    1    1    2    0    0 -0.25701720520E+02 -0.66738595169E+01  0.10919258076E+02  0.85390661022E+02  0.80419002446E+02 0.  1.
<mgrwt>
<rscale>  0 0.84689638E+02</rscale>
<asrwt>0</asrwt>
<pdfrwt beam="1">  1        2 0.13306465E+00 0.84689638E+02</pdfrwt>
<pdfrwt beam="2">  1       -2 0.60663159E-02 0.84689638E+02</pdfrwt>
<totfact> 0.44526478E+03</totfact>
</mgrwt>
</event>
<event>
 4    1  0.5124795E-001  0.9153474E+02  0.7546771E-02  0.1299177E+00
          2   -1    0    0  501    0  0.00000000000E+00  0.00000000000E+00  0.21151577728E+03  0.21151577728E+03  0.00000000000E+00 0. -1.
         -2   -1    0    0    0  501 -0.00000000000E+00 -0.00000000000E+00 -0.15769121843E+03  0.15769121843E+03  0.00000000000E+00 0.  1.
         24    1    1    2    0    0 -0.43660160497E+02  0.22766337977E+01  0.18665552696E+03  0.20789154475E+03  0.80419002446E+02 0. -1.
        -24    1    1    2    0    0  0.43660160497E+02 -0.22766337977E+01 -0.13283096811E+03  0.16131545097E+03  0.80419002446E+02 0.  1.
<mgrwt>
<rscale>  0 0.91534740E+02</rscale>
<asrwt>0</asrwt>
<pdfrwt beam="1">  1        2 0.32540889E-01 0.91534740E+02</pdfrwt>
<pdfrwt beam="2">  1       -2 0.24260187E-01 0.91534740E+02</pdfrwt>
<totfact> 0.22912902E+03</totfact>
</mgrwt>
</event>
<event>
 4    1  0.5124795E-001  0.8068950E+02  0.7546771E-02  0.1327106E+00
          1   -1    0    0  501    0  0.00000000000E+00  0.00000000000E+00  0.76163301510E+02  0.76163301510E+02  0.00000000000E+00 0. -1.
         -1   -1    0    0    0  501 -0.00000000000E+00 -0.00000000000E+00 -0.21319665604E+03  0.21319665604E+03  0.00000000000E+00 0.  1.
         24    1    1    2    0    0  0.64456295849E+01  0.14259582556E+01 -0.18049502485E+03  0.19771001352E+03  0.80419002446E+02 0.  0.
        -24    1    1    2    0    0 -0.64456295849E+01 -0.14259582556E+01  0.43461670323E+02  0.91649944023E+02  0.80419002446E+02 0. -1.
<mgrwt>
<rscale>  0 0.80689500E+02</rscale>
<asrwt>0</asrwt>
<pdfrwt beam="1">  1        1 0.11717431E-01 0.80689500E+02</pdfrwt>
<pdfrwt beam="2">  1       -1 0.32799485E-01 0.80689500E+02</pdfrwt>
<totfact> 0.41915404E+03</totfact>
</mgrwt>
</event>
<event>
 4    1  0.5124795E-001  0.8616761E+02  0.7546771E-02  0.1312407E+00
         -2   -1    0    0    0  501 -0.00000000000E+00  0.00000000000E+00  0.34327309336E+01  0.34327309336E+01  0.00000000000E+00 0.  1.
          2   -1    0    0  501    0  0.00000000000E+00 -0.00000000000E+00 -0.23466778623E+04  0.23466778623E+04  0.00000000000E+00 0. -1.
         24    1    1    2    0    0 -0.20696603190E+02 -0.23006342160E+02 -0.15004046522E+04  0.15028769003E+04  0.80419002446E+02 0. -1.
        -24    1    1    2    0    0  0.20696603190E+02  0.23006342160E+02 -0.84284047917E+03  0.84723369293E+03  0.80419002446E+02 0.  1.
<mgrwt>
<rscale>  0 0.86167611E+02</rscale>
<asrwt>0</asrwt>
<pdfrwt beam="1">  1        2 0.36102787E+00 0.86167611E+02</pdfrwt>
<pdfrwt beam="2">  1       -2 0.52811170E-03 0.86167611E+02</pdfrwt>
<totfact> 0.24771966E+04</totfact>
</mgrwt>
</event>
<event>
 4    1  0.5124795E-001  0.8127527E+02  0.7546771E-02  0.1325471E+00
         -1   -1    0    0    0  501 -0.00000000000E+00  0.00000000000E+00  0.81844842681E+01  0.81844842681E+01  0.00000000000E+00 0.  1.
          1   -1    0    0  501    0  0.00000000000E+00 -0.00000000000E+00 -0.84823241388E+03  0.84823241388E+03  0.00000000000E+00 0. -1.
         24    1    1    2    0    0  0.11751646381E+02 -0.59120762526E+00 -0.51432351523E+03  0.52070562220E+03  0.80419002446E+02 0. -1.
        -24    1    1    2    0    0 -0.11751646381E+02  0.59120762526E+00 -0.32572441438E+03  0.33571127595E+03  0.80419002446E+02 0.  0.
<mgrwt>
<rscale>  0 0.81275263E+02</rscale>
<asrwt>0</asrwt>
<pdfrwt beam="1">  1        1 0.13049730E+00 0.81275273E+02</pdfrwt>
<pdfrwt beam="2">  1       -1 0.12591514E-02 0.81275273E+02</pdfrwt>
<totfact> 0.25513747E+04</totfact>
</mgrwt>
</event>
<event>
 4    1  0.5124795E-001  0.8199043E+02  0.7546771E-02  0.1323496E+00
          2   -1    0    0  501    0  0.00000000000E+00  0.00000000000E+00  0.25874064728E+04  0.25874064728E+04  0.00000000000E+00 0. -1.
         -2   -1    0    0    0  501 -0.00000000000E+00 -0.00000000000E+00 -0.61531015477E+01  0.61531015477E+01  0.00000000000E+00 0.  1.
         24    1    1    2    0    0 -0.85457073087E+01 -0.13497622024E+02  0.22763089927E+04  0.22777851218E+04  0.80419002446E+02 0.  0.
        -24    1    1    2    0    0  0.85457073087E+01  0.13497622024E+02  0.30494437855E+03  0.31577445254E+03  0.80419002446E+02 0.  1.
<mgrwt>
<rscale>  0 0.81990432E+02</rscale>
<asrwt>0</asrwt>
<pdfrwt beam="1">  1        2 0.39806166E+00 0.81990432E+02</pdfrwt>
<pdfrwt beam="2">  1       -2 0.94663307E-03 0.81990432E+02</pdfrwt>
<totfact> 0.81569472E+03</totfact>
</mgrwt>
</event>
<event>
 4    1  0.5124795E-001  0.1021621E+03  0.7546771E-02  0.1275814E+00
         -2   -1    0    0    0  501 -0.00000000000E+00  0.00000000000E+00  0.31095717169E+02  0.31095717169E+02  0.00000000000E+00 0.  1.
          2   -1    0    0  501    0  0.00000000000E+00 -0.00000000000E+00 -0.57809526715E+03  0.57809526715E+03  0.00000000000E+00 0. -1.
         24    1    1    2    0    0 -0.46852677155E+02  0.42127352036E+02 -0.47075823685E+03  0.48171612041E+03  0.80419002446E+02 0. -1.
        -24    1    1    2    0    0  0.46852677155E+02 -0.42127352036E+02 -0.76241313130E+02  0.12747486391E+03  0.80419002446E+02 0.  1.
<mgrwt>
<rscale>  0 0.10216214E+03</rscale>
<asrwt>0</asrwt>
<pdfrwt beam="1">  1        2 0.88937735E-01 0.10216214E+03</pdfrwt>
<pdfrwt beam="2">  1       -2 0.47839564E-02 0.10216214E+03</pdfrwt>
<totfact> 0.10314330E+04</totfact>
</mgrwt>
</event>
<event>
 4    1  0.5124795E-001  0.9989963E+02  0.7546771E-02  0.1280507E+00
         -1   -1    0    0    0  501 -0.00000000000E+00  0.00000000000E+00  0.12403127474E+04  0.12403127474E+04  0.00000000000E+00 0.  1.
          1   -1    0    0  501    0  0.00000000000E+00 -0.00000000000E+00 -0.21055751683E+02  0.21055751683E+02  0.00000000000E+00 0. -1.
         24    1    1    2    0    0 -0.10115720142E+02 -0.58398566313E+02  0.11053708247E+04  0.11098759374E+04  0.80419002446E+02 0.  1.
        -24    1    1    2    0    0  0.10115720142E+02  0.58398566313E+02  0.11388617096E+03  0.15149256164E+03  0.80419002446E+02 0. -1.
<mgrwt>
<rscale>  0 0.99899631E+02</rscale>
<asrwt>0</asrwt>
<pdfrwt beam="1">  1        1 0.32393474E-02 0.99899631E+02</pdfrwt>
<pdfrwt beam="2">  1       -1 0.19081729E+00 0.99899631E+02</pdfrwt>
<totfact> 0.57965893E+02</totfact>
</mgrwt>
</event>
<event>
 4    1  0.5124795E-001  0.8421118E+02  0.7546771E-02  0.1317508E+00
          2   -1    0    0  501    0  0.00000000000E+00  0.00000000000E+00  0.15168041000E+03  0.15168041000E+03  0.00000000000E+00 0. -1.
         -2   -1    0    0    0  501 -0.00000000000E+00 -0.00000000000E+00 -0.63787682712E+02  0.63787682712E+02  0.00000000000E+00 0.  1.
         24    1    1    2    0    0  0.93559113160E+01 -0.23168367402E+02  0.99620168809E+02  0.13044424216E+03  0.80419002446E+02 0. -1.
        -24    1    1    2    0    0 -0.93559113160E+01  0.23168367402E+02 -0.11727441517E+02  0.85023850557E+02  0.80419002446E+02 0.  1.
<mgrwt>
<rscale>  0 0.84211177E+02</rscale>
<asrwt>0</asrwt>
<pdfrwt beam="1">  1        2 0.23335448E-01 0.84211177E+02</pdfrwt>
<pdfrwt beam="2">  1       -2 0.98134897E-02 0.84211177E+02</pdfrwt>
<totfact> 0.14193773E+04</totfact>
</mgrwt>
</event>
<event>
 4    1  0.5124795E-001  0.8055723E+02  0.7546771E-02  0.1327477E+00
          1   -1    0    0  501    0  0.00000000000E+00  0.00000000000E+00  0.23616165447E+03  0.23616165447E+03  0.00000000000E+00 0. -1.
         -1   -1    0    0    0  501 -0.00000000000E+00 -0.00000000000E+00 -0.34150074559E+02  0.34150074559E+02  0.00000000000E+00 0.  1.
         24    1    1    2    0    0  0.30787614672E+01 -0.35739087821E+01  0.41269324661E+02  0.90513118986E+02  0.80419002446E+02 0.  1.
        -24    1    1    2    0    0 -0.30787614672E+01  0.35739087821E+01  0.16074225525E+03  0.17979861004E+03  0.80419002446E+02 0.  0.
<mgrwt>
<rscale>  0 0.80557232E+02</rscale>
<asrwt>0</asrwt>
<pdfrwt beam="1">  1        1 0.36332561E-01 0.80557232E+02</pdfrwt>
<pdfrwt beam="2">  1       -1 0.52538578E-02 0.80557232E+02</pdfrwt>
<totfact> 0.17174156E+04</totfact>
</mgrwt>
</event>
<event>
 4    1  0.5124795E-001  0.8428927E+02  0.7546771E-02  0.1317302E+00
          2   -1    0    0  501    0  0.00000000000E+00  0.00000000000E+00  0.53796910806E+03  0.53796910806E+03  0.00000000000E+00 0. -1.
         -2   -1    0    0    0  501 -0.00000000000E+00 -0.00000000000E+00 -0.16618156727E+02  0.16618156727E+02  0.00000000000E+00 0.  1.
         24    1    1    2    0    0 -0.21544055459E+02  0.13165030821E+02  0.38631670163E+03  0.39540520264E+03  0.80419002446E+02 0. -1.
        -24    1    1    2    0    0  0.21544055459E+02 -0.13165030821E+02  0.13503424971E+03  0.15918206215E+03  0.80419002446E+02 0.  1.
<mgrwt>
<rscale>  0 0.84289266E+02</rscale>
<asrwt>0</asrwt>
<pdfrwt beam="1">  1        2 0.82764465E-01 0.84289266E+02</pdfrwt>
<pdfrwt beam="2">  1       -2 0.25566399E-02 0.84289266E+02</pdfrwt>
<totfact> 0.27447084E+04</totfact>
</mgrwt>
</event>
<event>
 4    1  0.5124795E-001  0.9602128E+02  0.7546771E-02  0.1288892E+00
          4   -1    0    0  501    0  0.00000000000E+00  0.00000000000E+00  0.17291282088E+03  0.17291282088E+03  0.00000000000E+00 0. -1.
         -4   -1    0    0    0  501 -0.00000000000E+00 -0.00000000000E+00 -0.53561129459E+02  0.53561129459E+02  0.00000000000E+00 0.  1.
         24    1    1    2    0    0  0.50912859627E+02  0.12678610188E+02  0.52111891979E+02  0.10925077424E+03  0.80419002446E+02 0.  1.
        -24    1    1    2    0    0 -0.50912859627E+02 -0.12678610188E+02  0.67239799444E+02  0.11722317610E+03  0.80419002446E+02 0.  0.
<mgrwt>
<rscale>  0 0.96021272E+02</rscale>
<asrwt>0</asrwt>
<pdfrwt beam="1">  1        4 0.26601972E-01 0.96021284E+02</pdfrwt>
<pdfrwt beam="2">  1       -4 0.82401738E-02 0.96021284E+02</pdfrwt>
<totfact> 0.21171385E+03</totfact>
</mgrwt>
</event>
<event>
 4    1  0.5124795E-001  0.1084358E+03  0.7546771E-02  0.1263494E+00
         -3   -1    0    0    0  501 -0.00000000000E+00  0.00000000000E+00  0.83359832466E+03  0.83359832466E+03  0.00000000000E+00 0.  1.
          3   -1    0    0  501    0  0.00000000000E+00 -0.00000000000E+00 -0.48613023127E+02  0.48613023127E+02  0.00000000000E+00 0. -1.
         24    1    1    2    0    0  0.31912986819E+02  0.65365728513E+02  0.76413323379E+03  0.77178878725E+03  0.80419002446E+02 0.  1.
        -24    1    1    2    0    0 -0.31912986819E+02 -0.65365728513E+02  0.20852067745E+02  0.11042256054E+03  0.80419002446E+02 0. -1.
<mgrwt>
<rscale>  0 0.10843585E+03</rscale>
<asrwt>0</asrwt>
<pdfrwt beam="1">  1        3 0.74789272E-02 0.10843585E+03</pdfrwt>
<pdfrwt beam="2">  1       -3 0.12824589E+00 0.10843585E+03</pdfrwt>
<totfact> 0.13709588E+02</totfact>
</mgrwt>
</event>
<event>
 4    1  0.5124795E-001  0.8431979E+02  0.7546771E-02  0.1317221E+00
         -1   -1    0    0    0  501 -0.00000000000E+00  0.00000000000E+00  0.78312495248E+03  0.78312495248E+03  0.00000000000E+00 0.  1.
          1   -1    0    0  501    0  0.00000000000E+00 -0.00000000000E+00 -0.24369392443E+02  0.24369392443E+02  0.00000000000E+00 0. -1.
         24    1    1    2    0    0  0.15837054569E+02  0.19793891811E+02  0.69919323856E+03  0.70425919323E+03  0.80419002446E+02 0.  1.
        -24    1    1    2    0    0 -0.15837054569E+02 -0.19793891811E+02  0.59562321478E+02  0.10323515169E+03  0.80419002446E+02 0. -1.
<mgrwt>
<rscale>  0 0.84319787E+02</rscale>
<asrwt>0</asrwt>
<pdfrwt beam="1">  1        1 0.37491379E-02 0.84319787E+02</pdfrwt>
<pdfrwt beam="2">  1       -1 0.12048074E+00 0.84319787E+02</pdfrwt>
<totfact> 0.15534241E+03</totfact>
</mgrwt>
</event>
<event>
 4    1  0.5124795E-001  0.8343900E+02  0.7546771E-02  0.1319566E+00
         -2   -1    0    0    0  501 -0.00000000000E+00  0.00000000000E+00  0.27579859090E+02  0.27579859090E+02  0.00000000000E+00 0.  1.
          2   -1    0    0  501    0  0.00000000000E+00 -0.00000000000E+00 -0.29117180029E+03  0.29117180029E+03  0.00000000000E+00 0. -1.
         24    1    1    2    0    0 -0.14959029216E+02 -0.16464445635E+02 -0.18992872550E+03  0.20744875813E+03  0.80419002446E+02 0.  0.
        -24    1    1    2    0    0  0.14959029216E+02  0.16464445635E+02 -0.73663215700E+02  0.11130290125E+03  0.80419002446E+02 0.  0.
<mgrwt>
<rscale>  0 0.83438999E+02</rscale>
<asrwt>0</asrwt>
<pdfrwt beam="1">  1        2 0.44795662E-01 0.83438999E+02</pdfrwt>
<pdfrwt beam="2">  1       -2 0.42430552E-02 0.83438999E+02</pdfrwt>
<totfact> 0.25058662E+04</totfact>
</mgrwt>
</event>
<event>
 4    1  0.5124795E-001  0.1193950E+03  0.7546771E-02  0.1244098E+00
         -1   -1    0    0    0  501 -0.00000000000E+00  0.00000000000E+00  0.18521665042E+02  0.18521665042E+02  0.00000000000E+00 0.  1.
          1   -1    0    0  501    0  0.00000000000E+00 -0.00000000000E+00 -0.96485423973E+03  0.96485423973E+03  0.00000000000E+00 0. -1.
         24    1    1    2    0    0 -0.15026312041E+02 -0.86960678252E+02 -0.25200690256E+03  0.27885954261E+03  0.80419002446E+02 0.  1.
        -24    1    1    2    0    0  0.15026312041E+02  0.86960678252E+02 -0.69432567213E+03  0.70451636216E+03  0.80419002446E+02 0. -1.
<mgrwt>
<rscale>  0 0.11939500E+03</rscale>
<asrwt>0</asrwt>
<pdfrwt beam="1">  1        1 0.14843911E+00 0.11939500E+03</pdfrwt>
<pdfrwt beam="2">  1       -1 0.28494870E-02 0.11939500E+03</pdfrwt>
<totfact> 0.66748747E+03</totfact>
</mgrwt>
</event>
<event>
 4    1  0.5124795E-001  0.8184066E+02  0.7546771E-02  0.1323908E+00
          1   -1    0    0  501    0  0.00000000000E+00  0.00000000000E+00  0.22250555544E+04  0.22250555544E+04  0.00000000000E+00 0. -1.
         -1   -1    0    0    0  501 -0.00000000000E+00 -0.00000000000E+00 -0.59963687729E+01  0.59963687729E+01  0.00000000000E+00 0.  1.
         24    1    1    2    0    0 -0.11066141891E+02 -0.10402762537E+02  0.32231762677E+03  0.33254555394E+03  0.80419002446E+02 0.  0.
        -24    1    1    2    0    0  0.11066141891E+02  0.10402762537E+02  0.18967415588E+04  0.18985063692E+04  0.80419002446E+02 0. -1.
<mgrwt>
<rscale>  0 0.81840656E+02</rscale>
<asrwt>0</asrwt>
<pdfrwt beam="1">  1        1 0.34231558E+00 0.81840656E+02</pdfrwt>
<pdfrwt beam="2">  1       -1 0.92252005E-03 0.81840656E+02</pdfrwt>
<totfact> 0.49752687E+03</totfact>
</mgrwt>
</event>
<event>
 4    1  0.5124795E-001  0.9094296E+02  0.7546771E-02  0.1300584E+00
         -1   -1    0    0    0  501 -0.00000000000E+00  0.00000000000E+00  0.31804284579E+02  0.31804284579E+02  0.00000000000E+00 0.  1.
          1   -1    0    0  501    0  0.00000000000E+00 -0.00000000000E+00 -0.30753570904E+03  0.30753570904E+03  0.00000000000E+00 0. -1.
         24    1    1    2    0    0  0.43688164349E+01  0.42241214201E+02 -0.71192641102E+02  0.11549465284E+03  0.80419002446E+02 0.  1.
        -24    1    1    2    0    0 -0.43688164349E+01 -0.42241214201E+02 -0.20453878336E+03  0.22384534077E+03  0.80419002446E+02 0. -1.
<mgrwt>
<rscale>  0 0.90942964E+02</rscale>
<asrwt>0</asrwt>
<pdfrwt beam="1">  1        1 0.47313187E-01 0.90942964E+02</pdfrwt>
<pdfrwt beam="2">  1       -1 0.48929667E-02 0.90942964E+02</pdfrwt>
<totfact> 0.13990798E+04</totfact>
</mgrwt>
</event>
<event>
 4    1  0.5124795E-001  0.8617123E+02  0.7546771E-02  0.1312398E+00
          1   -1    0    0  501    0  0.00000000000E+00  0.00000000000E+00  0.11392508433E+04  0.11392508433E+04  0.00000000000E+00 0. -1.
         -1   -1    0    0    0  501 -0.00000000000E+00 -0.00000000000E+00 -0.67552738655E+01  0.67552738655E+01  0.00000000000E+00 0.  1.
         24    1    1    2    0    0  0.18465367873E+02  0.24845348727E+02  0.67366868980E+03  0.67915755222E+03  0.80419002446E+02 0.  0.
        -24    1    1    2    0    0 -0.18465367873E+02 -0.24845348727E+02  0.45882687966E+03  0.46684856497E+03  0.80419002446E+02 0.  0.
<mgrwt>
<rscale>  0 0.86171219E+02</rscale>
<asrwt>0</asrwt>
<pdfrwt beam="1">  1        1 0.17526921E+00 0.86171230E+02</pdfrwt>
<pdfrwt beam="2">  1       -1 0.10392738E-02 0.86171230E+02</pdfrwt>
<totfact> 0.20720571E+04</totfact>
</mgrwt>
</event>
<event>
 4    1  0.5124795E-001  0.8108276E+02  0.7546771E-02  0.1326007E+00
         -2   -1    0    0    0  501 -0.00000000000E+00  0.00000000000E+00  0.50108735080E+02  0.50108735080E+02  0.00000000000E+00 0.  1.
          2   -1    0    0  501    0  0.00000000000E+00 -0.00000000000E+00 -0.15571425128E+03  0.15571425128E+03  0.00000000000E+00 0. -1.
         24    1    1    2    0    0 -0.30080093082E+01 -0.99070539482E+01 -0.93633088586E+02  0.12386108780E+03  0.80419002446E+02 0.  0.
        -24    1    1    2    0    0  0.30080093082E+01  0.99070539482E+01 -0.11972427609E+02  0.81961898558E+02  0.80419002446E+02 0.  1.
<mgrwt>
<rscale>  0 0.81082759E+02</rscale>
<asrwt>0</asrwt>
<pdfrwt beam="1">  1        2 0.23956039E-01 0.81082759E+02</pdfrwt>
<pdfrwt beam="2">  1       -2 0.77090362E-02 0.81082759E+02</pdfrwt>
<totfact> 0.19891436E+04</totfact>
</mgrwt>
</event>
<event>
 4    1  0.5124795E-001  0.1055395E+03  0.7546771E-02  0.1269060E+00
          2   -1    0    0  501    0  0.00000000000E+00  0.00000000000E+00  0.28591902390E+02  0.28591902390E+02  0.00000000000E+00 0. -1.
         -2   -1    0    0    0  501 -0.00000000000E+00 -0.00000000000E+00 -0.44517364430E+03  0.44517364430E+03  0.00000000000E+00 0.  1.
         24    1    1    2    0    0 -0.21536791343E+02 -0.64865426551E+02 -0.29200849690E+03  0.31049562824E+03  0.80419002446E+02 0.  0.
        -24    1    1    2    0    0  0.21536791343E+02  0.64865426551E+02 -0.12457324501E+03  0.16326991845E+03  0.80419002446E+02 0.  0.
<mgrwt>
<rscale>  0 0.10553945E+03</rscale>
<asrwt>0</asrwt>
<pdfrwt beam="1">  1        2 0.43987543E-02 0.10553946E+03</pdfrwt>
<pdfrwt beam="2">  1       -2 0.68488251E-01 0.10553946E+03</pdfrwt>
<totfact> 0.34842221E+03</totfact>
</mgrwt>
</event>
<event>
 4    1  0.5124795E-001  0.9201976E+02  0.7546771E-02  0.1298033E+00
         -1   -1    0    0    0  501 -0.00000000000E+00  0.00000000000E+00  0.12296243747E+02  0.12296243747E+02  0.00000000000E+00 0.  1.
          1   -1    0    0  501    0  0.00000000000E+00 -0.00000000000E+00 -0.86677061891E+03  0.86677061891E+03  0.00000000000E+00 0. -1.
         24    1    1    2    0    0  0.16458975500E+02 -0.41587469307E+02 -0.62649458380E+03  0.63321646770E+03  0.80419002446E+02 0.  0.
        -24    1    1    2    0    0 -0.16458975500E+02  0.41587469307E+02 -0.22797979136E+03  0.24585039496E+03  0.80419002446E+02 0.  0.
<mgrwt>
<rscale>  0 0.92019745E+02</rscale>
<asrwt>0</asrwt>
<pdfrwt beam="1">  1        1 0.13334937E+00 0.92019757E+02</pdfrwt>
<pdfrwt beam="2">  1       -1 0.18917291E-02 0.92019757E+02</pdfrwt>
<totfact> 0.14019181E+04</totfact>
</mgrwt>
</event>
<event>
 4    1  0.5124795E-001  0.9203248E+02  0.7546771E-02  0.1298003E+00
          2   -1    0    0  501    0  0.00000000000E+00  0.00000000000E+00  0.20794633633E+03  0.20794633633E+03  0.00000000000E+00 0. -1.
         -2   -1    0    0    0  501 -0.00000000000E+00 -0.00000000000E+00 -0.75201207036E+02  0.75201207036E+02  0.00000000000E+00 0.  1.
         24    1    1    2    0    0 -0.27021939654E+02  0.35673190978E+02  0.16222184210E+03  0.18650979541E+03  0.80419002446E+02 0. -1.
        -24    1    1    2    0    0  0.27021939654E+02 -0.35673190978E+02 -0.29476712804E+02  0.96637747952E+02  0.80419002446E+02 0.  1.
<mgrwt>
<rscale>  0 0.92032482E+02</rscale>
<asrwt>0</asrwt>
<pdfrwt beam="1">  1        2 0.31991744E-01 0.92032482E+02</pdfrwt>
<pdfrwt beam="2">  1       -2 0.11569417E-01 0.92032482E+02</pdfrwt>
<totfact> 0.78753185E+03</totfact>
</mgrwt>
</event>
<event>
 4    1  0.5124795E-001  0.1134915E+03  0.7546771E-02  0.1254237E+00
         -3   -1    0    0    0  501 -0.00000000000E+00  0.00000000000E+00  0.96020353078E+02  0.96020353078E+02  0.00000000000E+00 0.  1.
          3   -1    0    0  501    0  0.00000000000E+00 -0.00000000000E+00 -0.21360966306E+03  0.21360966306E+03  0.00000000000E+00 0. -1.
         24    1    1    2    0    0 -0.56224777023E+02 -0.57025254948E+02  0.35632955461E+02  0.11895389326E+03  0.80419002446E+02 0.  1.
        -24    1    1    2    0    0  0.56224777023E+02  0.57025254948E+02 -0.15322226545E+03  0.19067612288E+03  0.80419002446E+02 0. -1.
<mgrwt>
<rscale>  0 0.11349150E+03</rscale>
<asrwt>0</asrwt>
<pdfrwt beam="1">  1        3 0.32863024E-01 0.11349150E+03</pdfrwt>
<pdfrwt beam="2">  1       -3 0.14772362E-01 0.11349150E+03</pdfrwt>
<totfact> 0.77458983E+02</totfact>
</mgrwt>
</event>
<event>
 4    1  0.5124795E-001  0.8617334E+02  0.7546771E-02  0.1312392E+00
         -3   -1    0    0    0  501 -0.00000000000E+00  0.00000000000E+00  0.73579083816E+03  0.73579083816E+03  0.00000000000E+00 0.  1.
          3   -1    0    0  501    0  0.00000000000E+00 -0.00000000000E+00 -0.14326576443E+02  0.14326576443E+02  0.00000000000E+00 0. -1.
         24    1    1    2    0    0 -0.26982912253E+02  0.15183919592E+02  0.56463157395E+03  0.57116955383E+03  0.80419002446E+02 0.  1.
        -24    1    1    2    0    0  0.26982912253E+02 -0.15183919592E+02  0.15683268776E+03  0.17894786077E+03  0.80419002446E+02 0. -1.
<mgrwt>
<rscale>  0 0.86173342E+02</rscale>
<asrwt>0</asrwt>
<pdfrwt beam="1">  1        3 0.22040893E-02 0.86173342E+02</pdfrwt>
<pdfrwt beam="2">  1       -3 0.11319856E+00 0.86173342E+02</pdfrwt>
<totfact> 0.11849036E+03</totfact>
</mgrwt>
</event>
<event>
 4    1  0.5124795E-001  0.8200530E+02  0.7546771E-02  0.1323455E+00
          2   -1    0    0  501    0  0.00000000000E+00  0.00000000000E+00  0.11145526799E+04  0.11145526799E+04  0.00000000000E+00 0. -1.
         -2   -1    0    0    0  501 -0.00000000000E+00 -0.00000000000E+00 -0.60407477561E+01  0.60407477561E+01  0.00000000000E+00 0.  1.
         24    1    1    2    0    0  0.16050926995E+02 -0.13147060984E+00  0.53510448954E+03  0.54135171582E+03  0.80419002446E+02 0.  1.
        -24    1    1    2    0    0 -0.16050926995E+02  0.13147060984E+00  0.57340744261E+03  0.57924171184E+03  0.80419002446E+02 0. -1.
<mgrwt>
<rscale>  0 0.82005287E+02</rscale>
<asrwt>0</asrwt>
<pdfrwt beam="1">  1        2 0.17146948E+00 0.82005298E+02</pdfrwt>
<pdfrwt beam="2">  1       -2 0.92934669E-03 0.82005298E+02</pdfrwt>
<totfact> 0.47562980E+04</totfact>
</mgrwt>
</event>
<event>
 4    1  0.5124795E-001  0.8425832E+02  0.7546771E-02  0.1317384E+00
          4   -1    0    0  501    0  0.00000000000E+00  0.00000000000E+00  0.28717359280E+03  0.28717359280E+03  0.00000000000E+00 0. -1.
         -4   -1    0    0    0  501 -0.00000000000E+00 -0.00000000000E+00 -0.76150241221E+02  0.76150241221E+02  0.00000000000E+00 0.  1.
         24    1    1    2    0    0 -0.13030529851E+02 -0.21504740638E+02  0.25480132257E+03  0.26837134444E+03  0.80419002446E+02 0. -1.
        -24    1    1    2    0    0  0.13030529851E+02  0.21504740638E+02 -0.43777970995E+02  0.94952489577E+02  0.80419002446E+02 0. -1.
<mgrwt>
<rscale>  0 0.84258320E+02</rscale>
<asrwt>0</asrwt>
<pdfrwt beam="1">  1        4 0.44180552E-01 0.84258320E+02</pdfrwt>
<pdfrwt beam="2">  1       -4 0.11715422E-01 0.84258320E+02</pdfrwt>
<totfact> 0.43287498E+02</totfact>
</mgrwt>
</event>
<event>
 4    1  0.5124795E-001  0.3202496E+03  0.7546771E-02  0.1075534E+00
          2   -1    0    0  501    0  0.00000000000E+00  0.00000000000E+00  0.18995132056E+04  0.18995132056E+04  0.00000000000E+00 0. -1.
         -2   -1    0    0    0  501 -0.00000000000E+00 -0.00000000000E+00 -0.54342060698E+02  0.54342060698E+02  0.00000000000E+00 0.  1.
         24    1    1    2    0    0  0.30979232481E+03 -0.11014702170E+02  0.10009174863E+04  0.10509022973E+04  0.80419002446E+02 0.  1.
        -24    1    1    2    0    0 -0.30979232481E+03  0.11014702170E+02  0.84425365864E+03  0.90295296902E+03  0.80419002446E+02 0. -1.
<mgrwt>
<rscale>  0 0.32024963E+03</rscale>
<asrwt>0</asrwt>
<pdfrwt beam="1">  1        2 0.29223275E+00 0.32024963E+03</pdfrwt>
<pdfrwt beam="2">  1       -2 0.83603185E-02 0.32024963E+03</pdfrwt>
<totfact> 0.73635314E+02</totfact>
</mgrwt>
</event>
<event>
 4    1  0.5124795E-001  0.8374893E+02  0.7546771E-02  0.1318737E+00
          2   -1    0    0  501    0  0.00000000000E+00  0.00000000000E+00  0.82642988273E+03  0.82642988273E+03  0.00000000000E+00 0. -1.
         -2   -1    0    0    0  501 -0.00000000000E+00 -0.00000000000E+00 -0.16774657656E+02  0.16774657656E+02  0.00000000000E+00 0.  1.
         24    1    1    2    0    0  0.23062395534E+02  0.38461457431E+01  0.70116939066E+03  0.70615323923E+03  0.80419002446E+02 0. -1.
        -24    1    1    2    0    0 -0.23062395534E+02 -0.38461457431E+01  0.10848583441E+03  0.13705130115E+03  0.80419002446E+02 0.  1.
<mgrwt>
<rscale>  0 0.83748928E+02</rscale>
<asrwt>0</asrwt>
<pdfrwt beam="1">  1        2 0.12714303E+00 0.83748928E+02</pdfrwt>
<pdfrwt beam="2">  1       -2 0.25807172E-02 0.83748928E+02</pdfrwt>
<totfact> 0.16510291E+04</totfact>
</mgrwt>
</event>
<event>
 4    1  0.5124795E-001  0.8624633E+02  0.7546771E-02  0.1312205E+00
          1   -1    0    0  501    0  0.00000000000E+00  0.00000000000E+00  0.14119579109E+03  0.14119579109E+03  0.00000000000E+00 0. -1.
         -1   -1    0    0    0  501 -0.00000000000E+00 -0.00000000000E+00 -0.12024405276E+03  0.12024405276E+03  0.00000000000E+00 0.  1.
         24    1    1    2    0    0 -0.19067789552E+02  0.24650214040E+02 -0.87509778266E+02  0.12286737117E+03  0.80419002446E+02 0.  1.
        -24    1    1    2    0    0  0.19067789552E+02 -0.24650214040E+02  0.10846151660E+03  0.13857247269E+03  0.80419002446E+02 0. -1.
<mgrwt>
<rscale>  0 0.86246331E+02</rscale>
<asrwt>0</asrwt>
<pdfrwt beam="1">  1        1 0.21722429E-01 0.86246331E+02</pdfrwt>
<pdfrwt beam="2">  1       -1 0.18499085E-01 0.86246331E+02</pdfrwt>
<totfact> 0.48667345E+03</totfact>
</mgrwt>
</event>
<event>
 4    1  0.5124795E-001  0.1000442E+03  0.7546771E-02  0.1280203E+00
         -1   -1    0    0    0  501 -0.00000000000E+00  0.00000000000E+00  0.20616691972E+03  0.20616691972E+03  0.00000000000E+00 0.  1.
          1   -1    0    0  501    0  0.00000000000E+00 -0.00000000000E+00 -0.52130344774E+02  0.52130344774E+02  0.00000000000E+00 0. -1.
         24    1    1    2    0    0  0.17037413160E+02  0.57020622591E+02  0.11087716377E+03  0.14934050438E+03  0.80419002446E+02 0.  0.
        -24    1    1    2    0    0 -0.17037413160E+02 -0.57020622591E+02  0.43159411175E+02  0.10895676012E+03  0.80419002446E+02 0.  1.
<mgrwt>
<rscale>  0 0.10004419E+03</rscale>
<asrwt>0</asrwt>
<pdfrwt beam="1">  1        1 0.80200531E-02 0.10004419E+03</pdfrwt>
<pdfrwt beam="2">  1       -1 0.31717987E-01 0.10004419E+03</pdfrwt>
<totfact> 0.74167011E+03</totfact>
</mgrwt>
</event>
<event>
 4    1  0.5124795E-001  0.9210364E+02  0.7546771E-02  0.1297836E+00
         -2   -1    0    0    0  501 -0.00000000000E+00  0.00000000000E+00  0.50784427673E+03  0.50784427673E+03  0.00000000000E+00 0.  1.
          2   -1    0    0  501    0  0.00000000000E+00 -0.00000000000E+00 -0.17546544499E+02  0.17546544499E+02  0.00000000000E+00 0. -1.
         24    1    1    2    0    0 -0.16415444469E+02 -0.41789924012E+02  0.18758792670E+03  0.20897921132E+03  0.80419002446E+02 0.  0.
        -24    1    1    2    0    0  0.16415444469E+02  0.41789924012E+02  0.30270980553E+03  0.31641160991E+03  0.80419002446E+02 0. -1.
<mgrwt>
<rscale>  0 0.92103640E+02</rscale>
<asrwt>0</asrwt>
<pdfrwt beam="1">  1        2 0.26994688E-02 0.92103640E+02</pdfrwt>
<pdfrwt beam="2">  1       -2 0.78129878E-01 0.92103640E+02</pdfrwt>
<totfact> 0.49555218E+03</totfact>
</mgrwt>
</event>
<event>
 4    1  0.5124795E-001  0.8359378E+02  0.7546771E-02  0.1319151E+00
         -1   -1    0    0    0  501 -0.00000000000E+00  0.00000000000E+00  0.10315840515E+03  0.10315840515E+03  0.00000000000E+00 0.  1.
          1   -1    0    0  501    0  0.00000000000E+00 -0.00000000000E+00 -0.11522930534E+03  0.11522930534E+03  0.00000000000E+00 0. -1.
         24    1    1    2    0    0  0.21781137125E+02  0.68034214049E+01  0.64064218221E+02  0.10531925032E+03  0.80419002446E+02 0.  1.
        -24    1    1    2    0    0 -0.21781137125E+02 -0.68034214049E+01 -0.76135118409E+02  0.11306846018E+03  0.80419002446E+02 0. -1.
<mgrwt>
<rscale>  0 0.83593782E+02</rscale>
<asrwt>0</asrwt>
<pdfrwt beam="1">  1        1 0.17727585E-01 0.83593782E+02</pdfrwt>
<pdfrwt beam="2">  1       -1 0.15870524E-01 0.83593782E+02</pdfrwt>
<totfact> 0.79598543E+03</totfact>
</mgrwt>
</event>
<event>
 4    1  0.5124795E-001  0.1048277E+03  0.7546771E-02  0.1270460E+00
         -2   -1    0    0    0  501 -0.00000000000E+00  0.00000000000E+00  0.72545471559E+01  0.72545471559E+01  0.00000000000E+00 0.  1.
          2   -1    0    0  501    0  0.00000000000E+00 -0.00000000000E+00 -0.16212120269E+04  0.16212120269E+04  0.00000000000E+00 0. -1.
         24    1    1    2    0    0  0.61285957930E+02 -0.27670516019E+02 -0.10156302831E+04  0.10210258146E+04  0.80419002446E+02 0. -1.
        -24    1    1    2    0    0 -0.61285957930E+02  0.27670516019E+02 -0.59832719657E+03  0.60744075942E+03  0.80419002446E+02 0.  1.
<mgrwt>
<rscale>  0 0.10482768E+03</rscale>
<asrwt>0</asrwt>
<pdfrwt beam="1">  1        2 0.24941717E+00 0.10482768E+03</pdfrwt>
<pdfrwt beam="2">  1       -2 0.11160844E-02 0.10482768E+03</pdfrwt>
<totfact> 0.20309167E+04</totfact>
</mgrwt>
</event>
<event>
 4    1  0.5124795E-001  0.9568098E+02  0.7546771E-02  0.1289650E+00
          2   -1    0    0  501    0  0.00000000000E+00  0.00000000000E+00  0.49468757003E+02  0.49468757003E+02  0.00000000000E+00 0. -1.
         -2   -1    0    0    0  501 -0.00000000000E+00 -0.00000000000E+00 -0.44797538536E+03  0.44797538536E+03  0.00000000000E+00 0.  1.
         24    1    1    2    0    0 -0.44803565120E+02  0.26082056048E+02 -0.87105048085E+01  0.96076646192E+02  0.80419002446E+02 0. -1.
        -24    1    1    2    0    0  0.44803565120E+02 -0.26082056048E+02 -0.38979612355E+03  0.40136749617E+03  0.80419002446E+02 0.  1.
<mgrwt>
<rscale>  0 0.95680975E+02</rscale>
<asrwt>0</asrwt>
<pdfrwt beam="1">  1        2 0.76105780E-02 0.95680975E+02</pdfrwt>
<pdfrwt beam="2">  1       -2 0.68919290E-01 0.95680975E+02</pdfrwt>
<totfact> 0.16937499E+03</totfact>
</mgrwt>
</event>
<event>
 4    1  0.5124795E-001  0.8456850E+02  0.7546771E-02  0.1316565E+00
          2   -1    0    0  501    0  0.00000000000E+00  0.00000000000E+00  0.14060880663E+03  0.14060880663E+03  0.00000000000E+00 0. -1.
         -2   -1    0    0    0  501 -0.00000000000E+00 -0.00000000000E+00 -0.14835020239E+03  0.14835020239E+03  0.00000000000E+00 0.  1.
         24    1    1    2    0    0 -0.25287241050E+02  0.67208545212E+01  0.11325043597E+03  0.14134175479E+03  0.80419002446E+02 0.  0.
        -24    1    1    2    0    0  0.25287241050E+02 -0.67208545212E+01 -0.12099183174E+03  0.14761725423E+03  0.80419002446E+02 0.  1.
<mgrwt>
<rscale>  0 0.84568495E+02</rscale>
<asrwt>0</asrwt>
<pdfrwt beam="1">  1        2 0.21632124E-01 0.84568495E+02</pdfrwt>
<pdfrwt beam="2">  1       -2 0.22823108E-01 0.84568495E+02</pdfrwt>
<totfact> 0.39375355E+03</totfact>
</mgrwt>
</event>
<event>
 4    1  0.5124795E-001  0.8552809E+02  0.7546771E-02  0.1314057E+00
         -2   -1    0    0    0  501 -0.00000000000E+00  0.00000000000E+00  0.94048121844E+02  0.94048121844E+02  0.00000000000E+00 0.  1.
          2   -1    0    0  501    0  0.00000000000E+00 -0.00000000000E+00 -0.79062128612E+02  0.79062128612E+02  0.00000000000E+00 0. -1.
         24    1    1    2    0    0  0.82756747944E+01  0.27916799936E+02  0.18515919117E+02  0.87509369367E+02  0.80419002446E+02 0. -1.
        -24    1    1    2    0    0 -0.82756747944E+01 -0.27916799936E+02 -0.35299258853E+01  0.85600881088E+02  0.80419002446E+02 0.  0.
<mgrwt>
<rscale>  0 0.85528079E+02</rscale>
<asrwt>0</asrwt>
<pdfrwt beam="1">  1        2 0.12163404E-01 0.85528090E+02</pdfrwt>
<pdfrwt beam="2">  1       -2 0.14468942E-01 0.85528090E+02</pdfrwt>
<totfact> 0.16174966E+04</totfact>
</mgrwt>
</event>
<event>
 4    1  0.5124795E-001  0.1087253E+03  0.7546771E-02  0.1262949E+00
         -3   -1    0    0    0  501 -0.00000000000E+00  0.00000000000E+00  0.79607614835E+02  0.79607614835E+02  0.00000000000E+00 0.  1.
          3   -1    0    0  501    0  0.00000000000E+00 -0.00000000000E+00 -0.65593160165E+03  0.65593160165E+03  0.00000000000E+00 0. -1.
         24    1    1    2    0    0 -0.52846015260E+02 -0.50608962205E+02  0.35311167564E+02  0.11431562839E+03  0.80419002446E+02 0.  1.
        -24    1    1    2    0    0  0.52846015260E+02  0.50608962205E+02 -0.61163515438E+03  0.62122358810E+03  0.80419002446E+02 0. -1.
<mgrwt>
<rscale>  0 0.10872527E+03</rscale>
<asrwt>0</asrwt>
<pdfrwt beam="1">  1        3 0.10091255E+00 0.10872527E+03</pdfrwt>
<pdfrwt beam="2">  1       -3 0.12247325E-01 0.10872527E+03</pdfrwt>
<totfact> 0.10676879E+02</totfact>
</mgrwt>
</event>
<event>
 4    1  0.5124795E-001  0.8432596E+02  0.7546771E-02  0.1317205E+00
          1   -1    0    0  501    0  0.00000000000E+00  0.00000000000E+00  0.72862279330E+02  0.72862279330E+02  0.00000000000E+00 0. -1.
         -1   -1    0    0    0  501 -0.00000000000E+00 -0.00000000000E+00 -0.11437937495E+03  0.11437937495E+03  0.00000000000E+00 0.  1.
         24    1    1    2    0    0 -0.79464057907E+01 -0.24093689328E+02 -0.56623788010E+02  0.10157322754E+03  0.80419002446E+02 0.  1.
        -24    1    1    2    0    0  0.79464057907E+01  0.24093689328E+02  0.15106692390E+02  0.85668426738E+02  0.80419002446E+02 0. -1.
<mgrwt>
<rscale>  0 0.84325958E+02</rscale>
<asrwt>0</asrwt>
<pdfrwt beam="1">  1        1 0.11209581E-01 0.84325958E+02</pdfrwt>
<pdfrwt beam="2">  1       -1 0.17596827E-01 0.84325958E+02</pdfrwt>
<totfact> 0.12194406E+04</totfact>
</mgrwt>
</event>
<event>
 4    1  0.5124795E-001  0.1036077E+03  0.7546771E-02  0.1272887E+00
         -2   -1    0    0    0  501 -0.00000000000E+00  0.00000000000E+00  0.10493156236E+04  0.10493156236E+04  0.00000000000E+00 0.  1.
          2   -1    0    0  501    0  0.00000000000E+00 -0.00000000000E+00 -0.49948211314E+02  0.49948211314E+02  0.00000000000E+00 0. -1.
         24    1    1    2    0    0 -0.43583287192E+02  0.48660326945E+02  0.95590303286E+01  0.10404768789E+03  0.80419002446E+02 0. -1.
        -24    1    1    2    0    0  0.43583287192E+02 -0.48660326945E+02  0.98980838198E+03  0.99521614704E+03  0.80419002446E+02 0.  1.
<mgrwt>
<rscale>  0 0.10360766E+03</rscale>
<asrwt>0</asrwt>
<pdfrwt beam="1">  1        2 0.76843410E-02 0.10360766E+03</pdfrwt>
<pdfrwt beam="2">  1       -2 0.16143316E+00 0.10360766E+03</pdfrwt>
<totfact> 0.23177957E+02</totfact>
</mgrwt>
</event>
<event>
 4    1  0.5124795E-001  0.8083046E+02  0.7546771E-02  0.1326711E+00
         -2   -1    0    0    0  501 -0.00000000000E+00  0.00000000000E+00  0.91358805578E+01  0.91358805578E+01  0.00000000000E+00 0.  1.
          2   -1    0    0  501    0  0.00000000000E+00 -0.00000000000E+00 -0.75410649252E+03  0.75410649252E+03  0.00000000000E+00 0. -1.
         24    1    1    2    0    0 -0.22154424388E+01  0.78383111446E+01 -0.45921797363E+03  0.46627750382E+03  0.80419002446E+02 0. -1.
        -24    1    1    2    0    0  0.22154424388E+01 -0.78383111446E+01 -0.28575263833E+03  0.29696486926E+03  0.80419002446E+02 0.  0.
<mgrwt>
<rscale>  0 0.80830460E+02</rscale>
<asrwt>0</asrwt>
<pdfrwt beam="1">  1        2 0.11601637E+00 0.80830460E+02</pdfrwt>
<pdfrwt beam="2">  1       -2 0.14055202E-02 0.80830460E+02</pdfrwt>
<totfact> 0.43844660E+04</totfact>
</mgrwt>
</event>
<event>
 4    1  0.5124795E-001  0.1007602E+03  0.7546771E-02  0.1278705E+00
         -2   -1    0    0    0  501 -0.00000000000E+00  0.00000000000E+00  0.12614635978E+02  0.12614635978E+02  0.00000000000E+00 0.  1.
          2   -1    0    0  501    0  0.00000000000E+00 -0.00000000000E+00 -0.10834992077E+04  0.10834992077E+04  0.00000000000E+00 0. -1.
         24    1    1    2    0    0 -0.60358752719E+02 -0.64974566959E+01 -0.81338637179E+03  0.81960356377E+03  0.80419002446E+02 0. -1.
        -24    1    1    2    0    0  0.60358752719E+02  0.64974566959E+01 -0.25749819992E+03  0.27651027990E+03  0.80419002446E+02 0.  1.
<mgrwt>
<rscale>  0 0.10076017E+03</rscale>
<asrwt>0</asrwt>
<pdfrwt beam="1">  1        2 0.16669221E+00 0.10076017E+03</pdfrwt>
<pdfrwt beam="2">  1       -2 0.19407129E-02 0.10076017E+03</pdfrwt>
<totfact> 0.17690991E+04</totfact>
</mgrwt>
</event>
<event>
 4    1  0.5124795E-001  0.8540439E+02  0.7546771E-02  0.1314378E+00
          1   -1    0    0  501    0  0.00000000000E+00  0.00000000000E+00  0.11501225511E+03  0.11501225511E+03  0.00000000000E+00 0. -1.
         -1   -1    0    0    0  501 -0.00000000000E+00 -0.00000000000E+00 -0.39736800415E+03  0.39736800415E+03  0.00000000000E+00 0.  1.
         24    1    1    2    0    0 -0.28751187766E+02  0.25169348435E+00 -0.37603639295E+03  0.38561286146E+03  0.80419002446E+02 0.  1.
        -24    1    1    2    0    0  0.28751187766E+02 -0.25169348435E+00  0.93680643912E+02  0.12676739780E+03  0.80419002446E+02 0. -1.
<mgrwt>
<rscale>  0 0.85404392E+02</rscale>
<asrwt>0</asrwt>
<pdfrwt beam="1">  1        1 0.17694193E-01 0.85404392E+02</pdfrwt>
<pdfrwt beam="2">  1       -1 0.61133539E-01 0.85404392E+02</pdfrwt>
<totfact> 0.82472440E+02</totfact>
</mgrwt>
</event>
<event>
 4    1  0.5124795E-001  0.9457281E+02  0.7546771E-02  0.1292141E+00
         -2   -1    0    0    0  501 -0.00000000000E+00  0.00000000000E+00  0.28936366617E+03  0.28936366617E+03  0.00000000000E+00 0.  1.
          2   -1    0    0  501    0  0.00000000000E+00 -0.00000000000E+00 -0.32690814934E+02  0.32690814934E+02  0.00000000000E+00 0. -1.
         24    1    1    2    0    0 -0.36737209166E+02  0.33573479920E+02  0.90745243798E+02  0.13106760209E+03  0.80419002446E+02 0. -1.
        -24    1    1    2    0    0  0.36737209166E+02 -0.33573479920E+02  0.16592760744E+03  0.19098687902E+03  0.80419002446E+02 0.  1.
<mgrwt>
<rscale>  0 0.94572813E+02</rscale>
<asrwt>0</asrwt>
<pdfrwt beam="1">  1        2 0.50293563E-02 0.94572813E+02</pdfrwt>
<pdfrwt beam="2">  1       -2 0.44517485E-01 0.94572813E+02</pdfrwt>
<totfact> 0.68861314E+03</totfact>
</mgrwt>
</event>
<event>
 4    1  0.5124795E-001  0.8384556E+02  0.7546771E-02  0.1318479E+00
         -1   -1    0    0    0  501 -0.00000000000E+00  0.00000000000E+00  0.19609980472E+04  0.19609980472E+04  0.00000000000E+00 0.  1.
          1   -1    0    0  501    0  0.00000000000E+00 -0.00000000000E+00 -0.36584135620E+01  0.36584135620E+01  0.00000000000E+00 0. -1.
         24    1    1    2    0    0 -0.95595344664E+01 -0.21713512821E+02  0.11178733382E+04  0.11210133262E+04  0.80419002446E+02 0. -1.
        -24    1    1    2    0    0  0.95595344664E+01  0.21713512821E+02  0.83946629546E+03  0.84364313457E+03  0.80419002446E+02 0.  0.
<mgrwt>
<rscale>  0 0.83845556E+02</rscale>
<asrwt>0</asrwt>
<pdfrwt beam="1">  1        1 0.56283442E-03 0.83845556E+02</pdfrwt>
<pdfrwt beam="2">  1       -1 0.30169117E+00 0.83845556E+02</pdfrwt>
<totfact> 0.13220492E+03</totfact>
</mgrwt>
</event>
<event>
 4    1  0.5124795E-001  0.8695792E+02  0.7546771E-02  0.1310390E+00
         -2   -1    0    0    0  501 -0.00000000000E+00  0.00000000000E+00  0.14022372872E+02  0.14022372872E+02  0.00000000000E+00 0.  1.
          2   -1    0    0  501    0  0.00000000000E+00 -0.00000000000E+00 -0.62084685417E+03  0.62084685417E+03  0.00000000000E+00 0. -1.
         24    1    1    2    0    0  0.33045199134E+02  0.15746517517E+01 -0.41848610879E+03  0.42742520272E+03  0.80419002446E+02 0.  1.
        -24    1    1    2    0    0 -0.33045199134E+02 -0.15746517517E+01 -0.18833837251E+03  0.20744402432E+03  0.80419002446E+02 0.  0.
<mgrwt>
<rscale>  0 0.86957925E+02</rscale>
<asrwt>0</asrwt>
<pdfrwt beam="1">  1        2 0.95514918E-01 0.86957925E+02</pdfrwt>
<pdfrwt beam="2">  1       -2 0.21572877E-02 0.86957925E+02</pdfrwt>
<totfact> 0.30015080E+04</totfact>
</mgrwt>
</event>
<event>
 4    1  0.5124795E-001  0.8084399E+02  0.7546771E-02  0.1326673E+00
         -1   -1    0    0    0  501 -0.00000000000E+00  0.00000000000E+00  0.10954401809E+04  0.10954401809E+04  0.00000000000E+00 0.  1.
          1   -1    0    0  501    0  0.00000000000E+00 -0.00000000000E+00 -0.62506594790E+01  0.62506594790E+01  0.00000000000E+00 0. -1.
         24    1    1    2    0    0  0.22641898506E+00 -0.82754674546E+01  0.66207982817E+03  0.66699733841E+03  0.80419002446E+02 0.  0.
        -24    1    1    2    0    0 -0.22641898506E+00  0.82754674546E+01  0.42710969323E+03  0.43469350194E+03  0.80419002446E+02 0.  0.
<mgrwt>
<rscale>  0 0.80843989E+02</rscale>
<asrwt>0</asrwt>
<pdfrwt beam="1">  1        1 0.96164079E-03 0.80843989E+02</pdfrwt>
<pdfrwt beam="2">  1       -1 0.16852911E+00 0.80843989E+02</pdfrwt>
<totfact> 0.43304323E+03</totfact>
</mgrwt>
</event>
<event>
 4    1  0.5124795E-001  0.8495023E+02  0.7546771E-02  0.1315563E+00
          2   -1    0    0  501    0  0.00000000000E+00  0.00000000000E+00  0.13377065534E+04  0.13377065534E+04  0.00000000000E+00 0. -1.
         -2   -1    0    0    0  501 -0.00000000000E+00 -0.00000000000E+00 -0.54346312435E+01  0.54346312435E+01  0.00000000000E+00 0.  1.
         24    1    1    2    0    0 -0.17289050944E+02 -0.21222959823E+02  0.72369309310E+03  0.72866194786E+03  0.80419002446E+02 0. -1.
        -24    1    1    2    0    0  0.17289050944E+02  0.21222959823E+02  0.60857882907E+03  0.61447923679E+03  0.80419002446E+02 0.  1.
<mgrwt>
<rscale>  0 0.84950228E+02</rscale>
<asrwt>0</asrwt>
<pdfrwt beam="1">  1        2 0.20580075E+00 0.84950228E+02</pdfrwt>
<pdfrwt beam="2">  1       -2 0.83609818E-03 0.84950228E+02</pdfrwt>
<totfact> 0.42036952E+04</totfact>
</mgrwt>
</event>
<event>
 4    1  0.5124795E-001  0.1911066E+03  0.7546771E-02  0.1157467E+00
         -2   -1    0    0    0  501 -0.00000000000E+00  0.00000000000E+00  0.49026076716E+02  0.49026076716E+02  0.00000000000E+00 0.  1.
          2   -1    0    0  501    0  0.00000000000E+00 -0.00000000000E+00 -0.75216532305E+03  0.75216532305E+03  0.00000000000E+00 0. -1.
         24    1    1    2    0    0  0.57921630275E+02  0.16340006634E+03 -0.31231969356E+03  0.36614929179E+03  0.80419002446E+02 0.  0.
        -24    1    1    2    0    0 -0.57921630275E+02 -0.16340006634E+03 -0.39081955277E+03  0.43504210798E+03  0.80419002446E+02 0.  0.
<mgrwt>
<rscale>  0 0.19110657E+03</rscale>
<asrwt>0</asrwt>
<pdfrwt beam="1">  1        2 0.11571774E+00 0.19110660E+03</pdfrwt>
<pdfrwt beam="2">  1       -2 0.75424738E-02 0.19110660E+03</pdfrwt>
<totfact> 0.39262634E+03</totfact>
</mgrwt>
</event>
<event>
 4    1  0.5124795E-001  0.8442643E+02  0.7546771E-02  0.1316939E+00
         -3   -1    0    0    0  501 -0.00000000000E+00  0.00000000000E+00  0.10132076442E+03  0.10132076442E+03  0.00000000000E+00 0.  1.
          3   -1    0    0  501    0  0.00000000000E+00 -0.00000000000E+00 -0.72799637256E+02  0.72799637256E+02  0.00000000000E+00 0. -1.
         24    1    1    2    0    0  0.25223249647E+02 -0.49390906130E+01  0.30233589414E+02  0.89676601307E+02  0.80419002446E+02 0.  1.
        -24    1    1    2    0    0 -0.25223249647E+02  0.49390906130E+01 -0.17124622527E+01  0.84443800365E+02  0.80419002446E+02 0. -1.
<mgrwt>
<rscale>  0 0.84426435E+02</rscale>
<asrwt>0</asrwt>
<pdfrwt beam="1">  1        3 0.11199944E-01 0.84426435E+02</pdfrwt>
<pdfrwt beam="2">  1       -3 0.15587810E-01 0.84426435E+02</pdfrwt>
<totfact> 0.43665220E+03</totfact>
</mgrwt>
</event>
<event>
 4    1  0.5124795E-001  0.1006803E+03  0.7546771E-02  0.1278872E+00
          2   -1    0    0  501    0  0.00000000000E+00  0.00000000000E+00  0.10450329084E+04  0.10450329084E+04  0.00000000000E+00 0. -1.
         -2   -1    0    0    0  501 -0.00000000000E+00 -0.00000000000E+00 -0.19346482845E+02  0.19346482845E+02  0.00000000000E+00 0.  1.
         24    1    1    2    0    0 -0.53785729447E+02  0.27864026812E+02  0.88864279537E+03  0.89432798368E+03  0.80419002446E+02 0. -1.
        -24    1    1    2    0    0  0.53785729447E+02 -0.27864026812E+02  0.13704363015E+03  0.17005140752E+03  0.80419002446E+02 0.  1.
<mgrwt>
<rscale>  0 0.10068031E+03</rscale>
<asrwt>0</asrwt>
<pdfrwt beam="1">  1        2 0.16077425E+00 0.10068031E+03</pdfrwt>
<pdfrwt beam="2">  1       -2 0.29763828E-02 0.10068031E+03</pdfrwt>
<totfact> 0.10018652E+04</totfact>
</mgrwt>
</event>
<event>
 4    1  0.5124795E-001  0.9585460E+02  0.7546771E-02  0.1289263E+00
         -2   -1    0    0    0  501 -0.00000000000E+00  0.00000000000E+00  0.14362871908E+03  0.14362871908E+03  0.00000000000E+00 0.  1.
          2   -1    0    0  501    0  0.00000000000E+00 -0.00000000000E+00 -0.65531054752E+02  0.65531054752E+02  0.00000000000E+00 0. -1.
         24    1    1    2    0    0 -0.98549567102E+01  0.51222682109E+02  0.55183826814E+02  0.11060449372E+03  0.80419002446E+02 0.  1.
        -24    1    1    2    0    0  0.98549567102E+01 -0.51222682109E+02  0.22913837512E+02  0.98555280113E+02  0.80419002446E+02 0. -1.
<mgrwt>
<rscale>  0 0.95854586E+02</rscale>
<asrwt>0</asrwt>
<pdfrwt beam="1">  1        2 0.10081701E-01 0.95854598E+02</pdfrwt>
<pdfrwt beam="2">  1       -2 0.22096726E-01 0.95854598E+02</pdfrwt>
<totfact> 0.10179780E+04</totfact>
</mgrwt>
</event>
<event>
 4    1  0.5124795E-001  0.8050982E+02  0.7546771E-02  0.1327611E+00
          1   -1    0    0  501    0  0.00000000000E+00  0.00000000000E+00  0.96864031099E+02  0.96864031099E+02  0.00000000000E+00 0. -1.
         -1   -1    0    0    0  501 -0.00000000000E+00 -0.00000000000E+00 -0.32320500050E+03  0.32320500050E+03  0.00000000000E+00 0.  1.
         24    1    1    2    0    0 -0.16587296128E+01 -0.34444036521E+01 -0.30020249326E+03  0.31081082384E+03  0.80419002446E+02 0.  0.
        -24    1    1    2    0    0  0.16587296128E+01  0.34444036521E+01  0.73861523863E+02  0.10925820776E+03  0.80419002446E+02 0. -1.
<mgrwt>
<rscale>  0 0.80509821E+02</rscale>
<asrwt>0</asrwt>
<pdfrwt beam="1">  1        1 0.14902159E-01 0.80509821E+02</pdfrwt>
<pdfrwt beam="2">  1       -1 0.49723846E-01 0.80509821E+02</pdfrwt>
<totfact> 0.14965213E+03</totfact>
</mgrwt>
</event>
<event>
 4    1  0.5124795E-001  0.8068065E+02  0.7546771E-02  0.1327131E+00
         -2   -1    0    0    0  501 -0.00000000000E+00  0.00000000000E+00  0.41193917761E+03  0.41193917761E+03  0.00000000000E+00 0.  1.
          2   -1    0    0  501    0  0.00000000000E+00 -0.00000000000E+00 -0.16119848639E+02  0.16119848639E+02  0.00000000000E+00 0. -1.
         24    1    1    2    0    0  0.58689930857E+01 -0.27759619716E+01  0.16784458719E+03  0.18622881745E+03  0.80419002446E+02 0. -1.
        -24    1    1    2    0    0 -0.58689930857E+01  0.27759619716E+01  0.22797474178E+03  0.24183020880E+03  0.80419002446E+02 0.  0.
<mgrwt>
<rscale>  0 0.80680648E+02</rscale>
<asrwt>0</asrwt>
<pdfrwt beam="1">  1        2 0.24799770E-02 0.80680648E+02</pdfrwt>
<pdfrwt beam="2">  1       -2 0.63375250E-01 0.80680648E+02</pdfrwt>
<totfact> 0.85042398E+03</totfact>
</mgrwt>
</event>
<event>
 4    1  0.5124795E-001  0.8223547E+02  0.7546771E-02  0.1322825E+00
          1   -1    0    0  501    0  0.00000000000E+00  0.00000000000E+00  0.31447395468E+03  0.31447395468E+03  0.00000000000E+00 0. -1.
         -1   -1    0    0    0  501 -0.00000000000E+00 -0.00000000000E+00 -0.24090305968E+02  0.24090305968E+02  0.00000000000E+00 0.  1.
         24    1    1    2    0    0 -0.13993915472E+01  0.17131778845E+02  0.89733077959E+02  0.12171564147E+03  0.80419002446E+02 0.  1.
        -24    1    1    2    0    0  0.13993915472E+01 -0.17131778845E+02  0.20065057075E+03  0.21684861918E+03  0.80419002446E+02 0. -1.
<mgrwt>
<rscale>  0 0.82235467E+02</rscale>
<asrwt>0</asrwt>
<pdfrwt beam="1">  1        1 0.48380606E-01 0.82235467E+02</pdfrwt>
<pdfrwt beam="2">  1       -1 0.37062011E-02 0.82235467E+02</pdfrwt>
<totfact> 0.20173959E+04</totfact>
</mgrwt>
</event>
<event>
 4    1  0.5124795E-001  0.8319418E+02  0.7546771E-02  0.1320224E+00
         -2   -1    0    0    0  501 -0.00000000000E+00  0.00000000000E+00  0.40608873286E+02  0.40608873286E+02  0.00000000000E+00 0.  1.
          2   -1    0    0  501    0  0.00000000000E+00 -0.00000000000E+00 -0.18461173827E+03  0.18461173827E+03  0.00000000000E+00 0. -1.
         24    1    1    2    0    0  0.21134711340E+02  0.27165822497E+01 -0.10320465836E+03  0.13256120588E+03  0.80419002446E+02 0.  0.
        -24    1    1    2    0    0 -0.21134711340E+02 -0.27165822497E+01 -0.40798206627E+02  0.92659405680E+02  0.80419002446E+02 0.  0.
<mgrwt>
<rscale>  0 0.83194181E+02</rscale>
<asrwt>0</asrwt>
<pdfrwt beam="1">  1        2 0.28401807E-01 0.83194181E+02</pdfrwt>
<pdfrwt beam="2">  1       -2 0.62475187E-02 0.83194181E+02</pdfrwt>
<totfact> 0.22796392E+04</totfact>
</mgrwt>
</event>
<event>
 4    1  0.5124795E-001  0.8218520E+02  0.7546771E-02  0.1322962E+00
         -1   -1    0    0    0  501 -0.00000000000E+00  0.00000000000E+00  0.57601804414E+02  0.57601804414E+02  0.00000000000E+00 0.  1.
          1   -1    0    0  501    0  0.00000000000E+00 -0.00000000000E+00 -0.13698310671E+03  0.13698310671E+03  0.00000000000E+00 0. -1.
         24    1    1    2    0    0 -0.13590898764E+02  0.10123194969E+02 -0.27733874879E+01  0.82231984277E+02  0.80419002446E+02 0.  0.
        -24    1    1    2    0    0  0.13590898764E+02 -0.10123194969E+02 -0.76607914808E+02  0.11235292685E+03  0.80419002446E+02 0.  0.
<mgrwt>
<rscale>  0 0.82185203E+02</rscale>
<asrwt>0</asrwt>
<pdfrwt beam="1">  1        1 0.21074324E-01 0.82185203E+02</pdfrwt>
<pdfrwt beam="2">  1       -1 0.88618162E-02 0.82185203E+02</pdfrwt>
<totfact> 0.15531864E+04</totfact>
</mgrwt>
</event>
<event>
 4    1  0.5124795E-001  0.1057147E+03  0.7546771E-02  0.1268718E+00
         -3   -1    0    0    0  501 -0.00000000000E+00  0.00000000000E+00  0.12596004728E+04  0.12596004728E+04  0.00000000000E+00 0.  1.
          3   -1    0    0  501    0  0.00000000000E+00 -0.00000000000E+00 -0.91555531172E+01  0.91555531172E+01  0.00000000000E+00 0. -1.
         24    1    1    2    0    0 -0.18887130192E+02  0.65967022364E+02  0.73679883214E+03  0.74434407818E+03  0.80419002446E+02 0.  0.
        -24    1    1    2    0    0  0.18887130192E+02 -0.65967022364E+02  0.51364608759E+03  0.52441194778E+03  0.80419002446E+02 0.  1.
<mgrwt>
<rscale>  0 0.10571465E+03</rscale>
<asrwt>0</asrwt>
<pdfrwt beam="1">  1        3 0.14085476E-02 0.10571465E+03</pdfrwt>
<pdfrwt beam="2">  1       -3 0.19378455E+00 0.10571465E+03</pdfrwt>
<totfact> 0.63825597E+02</totfact>
</mgrwt>
</event>
<event>
 4    1  0.5124795E-001  0.8230086E+02  0.7546771E-02  0.1322646E+00
          1   -1    0    0  501    0  0.00000000000E+00  0.00000000000E+00  0.25088486857E+03  0.25088486857E+03  0.00000000000E+00 0. -1.
         -1   -1    0    0    0  501 -0.00000000000E+00 -0.00000000000E+00 -0.91962421883E+02  0.91962421883E+02  0.00000000000E+00 0.  1.
         24    1    1    2    0    0  0.37258360175E+01 -0.17097782656E+02 -0.64618461977E+02  0.10463736239E+03  0.80419002446E+02 0.  1.
        -24    1    1    2    0    0 -0.37258360175E+01  0.17097782656E+02  0.22354090866E+03  0.23820992806E+03  0.80419002446E+02 0. -1.
<mgrwt>
<rscale>  0 0.82300863E+02</rscale>
<asrwt>0</asrwt>
<pdfrwt beam="1">  1        1 0.38597672E-01 0.82300863E+02</pdfrwt>
<pdfrwt beam="2">  1       -1 0.14148065E-01 0.82300863E+02</pdfrwt>
<totfact> 0.36336824E+03</totfact>
</mgrwt>
</event>
<event>
 4    1  0.5124795E-001  0.1056090E+03  0.7546771E-02  0.1268924E+00
          1   -1    0    0  501    0  0.00000000000E+00  0.00000000000E+00  0.28632055485E+02  0.28632055485E+02  0.00000000000E+00 0. -1.
         -1   -1    0    0    0  501 -0.00000000000E+00 -0.00000000000E+00 -0.46354628680E+03  0.46354628680E+03  0.00000000000E+00 0.  1.
         24    1    1    2    0    0 -0.34991751043E+02  0.58835475198E+02 -0.31578764319E+03  0.33297910945E+03  0.80419002446E+02 0.  1.
        -24    1    1    2    0    0  0.34991751043E+02 -0.58835475198E+02 -0.11912658812E+03  0.15919923283E+03  0.80419002446E+02 0. -1.
<mgrwt>
<rscale>  0 0.10560896E+03</rscale>
<asrwt>0</asrwt>
<pdfrwt beam="1">  1        1 0.44049317E-02 0.10560896E+03</pdfrwt>
<pdfrwt beam="2">  1       -1 0.71314811E-01 0.10560896E+03</pdfrwt>
<totfact> 0.38681666E+03</totfact>
</mgrwt>
</event>
<event>
 4    1  0.5124795E-001  0.8680763E+02  0.7546771E-02  0.1310772E+00
          1   -1    0    0  501    0  0.00000000000E+00  0.00000000000E+00  0.10513145738E+03  0.10513145738E+03  0.00000000000E+00 0. -1.
         -1   -1    0    0    0  501 -0.00000000000E+00 -0.00000000000E+00 -0.81526014532E+02  0.81526014532E+02  0.00000000000E+00 0.  1.
         24    1    1    2    0    0 -0.81902865420E+01 -0.31642813848E+02 -0.20635103412E+02  0.89226520211E+02  0.80419002446E+02 0. -1.
        -24    1    1    2    0    0  0.81902865420E+01  0.31642813848E+02  0.44240546262E+02  0.97430951703E+02  0.80419002446E+02 0.  0.
<mgrwt>
<rscale>  0 0.86807629E+02</rscale>
<asrwt>0</asrwt>
<pdfrwt beam="1">  1        1 0.16174070E-01 0.86807629E+02</pdfrwt>
<pdfrwt beam="2">  1       -1 0.12542464E-01 0.86807629E+02</pdfrwt>
<totfact> 0.12894401E+04</totfact>
</mgrwt>
</event>
<event>
 4    1  0.5124795E-001  0.8171594E+02  0.7546771E-02  0.1324251E+00
         -1   -1    0    0    0  501 -0.00000000000E+00  0.00000000000E+00  0.94397027837E+02  0.94397027837E+02  0.00000000000E+00 0.  1.
          1   -1    0    0  501    0  0.00000000000E+00 -0.00000000000E+00 -0.30790417899E+03  0.30790417899E+03  0.00000000000E+00 0. -1.
         24    1    1    2    0    0  0.59320768693E+01  0.13232116550E+02  0.69784977678E+02  0.10745900385E+03  0.80419002446E+02 0.  0.
        -24    1    1    2    0    0 -0.59320768693E+01 -0.13232116550E+02 -0.28329212883E+03  0.29484220298E+03  0.80419002446E+02 0. -1.
<mgrwt>
<rscale>  0 0.81715937E+02</rscale>
<asrwt>0</asrwt>
<pdfrwt beam="1">  1        1 0.47369874E-01 0.81715937E+02</pdfrwt>
<pdfrwt beam="2">  1       -1 0.14522620E-01 0.81715937E+02</pdfrwt>
<totfact> 0.27201063E+03</totfact>
</mgrwt>
</event>
<event>
 4    1  0.5124795E-001  0.8300587E+02  0.7546771E-02  0.1320731E+00
          1   -1    0    0  501    0  0.00000000000E+00  0.00000000000E+00  0.45048322664E+03  0.45048322664E+03  0.00000000000E+00 0. -1.
         -1   -1    0    0    0  501 -0.00000000000E+00 -0.00000000000E+00 -0.38240075228E+02  0.38240075228E+02  0.00000000000E+00 0.  1.
         24    1    1    2    0    0  0.74416445606E+01  0.19167159984E+02  0.16834077678E+02  0.84695691870E+02  0.80419002446E+02 0.  1.
        -24    1    1    2    0    0 -0.74416445606E+01 -0.19167159984E+02  0.39540907374E+03  0.40402761000E+03  0.80419002446E+02 0. -1.
<mgrwt>
<rscale>  0 0.83005868E+02</rscale>
<asrwt>0</asrwt>
<pdfrwt beam="1">  1        1 0.69305108E-01 0.83005868E+02</pdfrwt>
<pdfrwt beam="2">  1       -1 0.58830888E-02 0.83005868E+02</pdfrwt>
<totfact> 0.66127455E+03</totfact>
</mgrwt>
</event>
<event>
 4    1  0.5124795E-001  0.8615408E+02  0.7546771E-02  0.1312442E+00
         -3   -1    0    0    0  501 -0.00000000000E+00  0.00000000000E+00  0.39278542559E+02  0.39278542559E+02  0.00000000000E+00 0.  1.
          3   -1    0    0  501    0  0.00000000000E+00 -0.00000000000E+00 -0.20374952655E+03  0.20374952655E+03  0.00000000000E+00 0. -1.
         24    1    1    2    0    0 -0.26024459502E+02 -0.16674351192E+02 -0.11496107235E+03  0.14366130512E+03  0.80419002446E+02 0. -1.
        -24    1    1    2    0    0  0.26024459502E+02  0.16674351192E+02 -0.49509911646E+02  0.99366763989E+02  0.80419002446E+02 0.  1.
<mgrwt>
<rscale>  0 0.86154073E+02</rscale>
<asrwt>0</asrwt>
<pdfrwt beam="1">  1        3 0.31346081E-01 0.86154084E+02</pdfrwt>
<pdfrwt beam="2">  1       -3 0.60428527E-02 0.86154084E+02</pdfrwt>
<totfact> 0.34614629E+03</totfact>
</mgrwt>
</event>
<event>
 4    1  0.5124795E-001  0.8177103E+02  0.7546771E-02  0.1324099E+00
         -2   -1    0    0    0  501 -0.00000000000E+00  0.00000000000E+00  0.20821373026E+02  0.20821373026E+02  0.00000000000E+00 0.  1.
          2   -1    0    0  501    0  0.00000000000E+00 -0.00000000000E+00 -0.99872694892E+03  0.99872694892E+03  0.00000000000E+00 0. -1.
         24    1    1    2    0    0  0.14686731425E+02  0.18936895727E+01 -0.90884525537E+03  0.91251641098E+03  0.80419002446E+02 0. -1.
        -24    1    1    2    0    0 -0.14686731425E+02 -0.18936895727E+01 -0.69060320519E+02  0.10703191096E+03  0.80419002446E+02 0.  1.
<mgrwt>
<rscale>  0 0.81771035E+02</rscale>
<asrwt>0</asrwt>
<pdfrwt beam="1">  1        2 0.15365028E+00 0.81771035E+02</pdfrwt>
<pdfrwt beam="2">  1       -2 0.32032886E-02 0.81771035E+02</pdfrwt>
<totfact> 0.94501130E+03</totfact>
</mgrwt>
</event>
<event>
 4    1  0.5124795E-001  0.8108278E+02  0.7546771E-02  0.1326006E+00
         -2   -1    0    0    0  501 -0.00000000000E+00  0.00000000000E+00  0.46768592978E+02  0.46768592978E+02  0.00000000000E+00 0.  1.
          2   -1    0    0  501    0  0.00000000000E+00 -0.00000000000E+00 -0.40083085977E+03  0.40083085977E+03  0.00000000000E+00 0. -1.
         24    1    1    2    0    0 -0.89097095772E+01 -0.52743371543E+01 -0.35736637915E+03  0.36644937776E+03  0.80419002446E+02 0. -1.
        -24    1    1    2    0    0  0.89097095772E+01  0.52743371543E+01  0.33041123641E+01  0.81150074985E+02  0.80419002446E+02 0.  1.
<mgrwt>
<rscale>  0 0.81082782E+02</rscale>
<asrwt>0</asrwt>
<pdfrwt beam="1">  1        2 0.61666287E-01 0.81082782E+02</pdfrwt>
<pdfrwt beam="2">  1       -2 0.71951681E-02 0.81082782E+02</pdfrwt>
<totfact> 0.81505387E+03</totfact>
</mgrwt>
</event>
<event>
 4    1  0.5124795E-001  0.8053848E+02  0.7546771E-02  0.1327530E+00
          3   -1    0    0  501    0  0.00000000000E+00  0.00000000000E+00  0.50340498851E+02  0.50340498851E+02  0.00000000000E+00 0. -1.
         -3   -1    0    0    0  501 -0.00000000000E+00 -0.00000000000E+00 -0.51716077893E+03  0.51716077893E+03  0.00000000000E+00 0.  1.
         24    1    1    2    0    0 -0.16464886453E+01  0.40645336678E+01 -0.47928433910E+03  0.48600403807E+03  0.80419002446E+02 0.  0.
        -24    1    1    2    0    0  0.16464886453E+01 -0.40645336678E+01  0.12464059021E+02  0.81497239711E+02  0.80419002446E+02 0. -1.
<mgrwt>
<rscale>  0 0.80538483E+02</rscale>
<asrwt>0</asrwt>
<pdfrwt beam="1">  1        3 0.77446920E-02 0.80538483E+02</pdfrwt>
<pdfrwt beam="2">  1       -3 0.79563198E-01 0.80538483E+02</pdfrwt>
<totfact> 0.36404418E+02</totfact>
</mgrwt>
</event>
<event>
 4    1  0.5124795E-001  0.1096195E+03  0.7546771E-02  0.1261276E+00
          1   -1    0    0  501    0  0.00000000000E+00  0.00000000000E+00  0.28088277466E+02  0.28088277466E+02  0.00000000000E+00 0. -1.
         -1   -1    0    0    0  501 -0.00000000000E+00 -0.00000000000E+00 -0.62530869457E+03  0.62530869457E+03  0.00000000000E+00 0.  1.
         24    1    1    2    0    0  0.46090244694E+02 -0.58522624227E+02 -0.48221451240E+03  0.49451719902E+03  0.80419002446E+02 0.  1.
        -24    1    1    2    0    0 -0.46090244694E+02  0.58522624227E+02 -0.11500590470E+03  0.15887977301E+03  0.80419002446E+02 0. -1.
<mgrwt>
<rscale>  0 0.10961945E+03</rscale>
<asrwt>0</asrwt>
<pdfrwt beam="1">  1        1 0.43212737E-02 0.10961945E+03</pdfrwt>
<pdfrwt beam="2">  1       -1 0.96201333E-01 0.10961945E+03</pdfrwt>
<totfact> 0.21493059E+03</totfact>
</mgrwt>
</event>
<event>
 4    1  0.5124795E-001  0.9506719E+02  0.7546771E-02  0.1291025E+00
         -1   -1    0    0    0  501 -0.00000000000E+00  0.00000000000E+00  0.37512371870E+02  0.37512371870E+02  0.00000000000E+00 0.  1.
          1   -1    0    0  501    0  0.00000000000E+00 -0.00000000000E+00 -0.31439499785E+03  0.31439499785E+03  0.00000000000E+00 0. -1.
         24    1    1    2    0    0 -0.61975135686E+01 -0.50320419525E+02 -0.53384801945E+02  0.10903076093E+03  0.80419002446E+02 0.  1.
        -24    1    1    2    0    0  0.61975135686E+01  0.50320419525E+02 -0.22349782404E+03  0.24287660879E+03  0.80419002446E+02 0. -1.
<mgrwt>
<rscale>  0 0.95067185E+02</rscale>
<asrwt>0</asrwt>
<pdfrwt beam="1">  1        1 0.48368459E-01 0.95067185E+02</pdfrwt>
<pdfrwt beam="2">  1       -1 0.57711344E-02 0.95067185E+02</pdfrwt>
<totfact> 0.10731336E+04</totfact>
</mgrwt>
</event>
<event>
 4    1  0.5124795E-001  0.8701434E+02  0.7546771E-02  0.1310247E+00
         -2   -1    0    0    0  501 -0.00000000000E+00  0.00000000000E+00  0.10148138501E+02  0.10148138501E+02  0.00000000000E+00 0.  1.
          2   -1    0    0  501    0  0.00000000000E+00 -0.00000000000E+00 -0.10441285608E+04  0.10441285608E+04  0.00000000000E+00 0. -1.
         24    1    1    2    0    0  0.31555755695E+02 -0.10416992829E+02 -0.79862011930E+03  0.80334649458E+03  0.80419002446E+02 0.  0.
        -24    1    1    2    0    0 -0.31555755695E+02  0.10416992829E+02 -0.23536030301E+03  0.25093020473E+03  0.80419002446E+02 0.  0.
<mgrwt>
<rscale>  0 0.87014340E+02</rscale>
<asrwt>0</asrwt>
<pdfrwt beam="1">  1        2 0.16063516E+00 0.87014340E+02</pdfrwt>
<pdfrwt beam="2">  1       -2 0.15612521E-02 0.87014340E+02</pdfrwt>
<totfact> 0.25133368E+04</totfact>
</mgrwt>
</event>
<event>
 4    1  0.5124795E-001  0.9133193E+02  0.7546771E-02  0.1299658E+00
          1   -1    0    0  501    0  0.00000000000E+00  0.00000000000E+00  0.12042209352E+03  0.12042209352E+03  0.00000000000E+00 0. -1.
         -1   -1    0    0    0  501 -0.00000000000E+00 -0.00000000000E+00 -0.96902792762E+02  0.96902792762E+02  0.00000000000E+00 0.  1.
         24    1    1    2    0    0  0.42801534554E+02 -0.65064849915E+01 -0.46267511213E+02  0.10238263649E+03  0.80419002446E+02 0.  1.
        -24    1    1    2    0    0 -0.42801534554E+02  0.65064849915E+01  0.69786811975E+02  0.11494224979E+03  0.80419002446E+02 0.  1.
<mgrwt>
<rscale>  0 0.91331931E+02</rscale>
<asrwt>0</asrwt>
<pdfrwt beam="1">  1        1 0.18526476E-01 0.91331931E+02</pdfrwt>
<pdfrwt beam="2">  1       -1 0.14908122E-01 0.91331931E+02</pdfrwt>
<totfact> 0.83628428E+03</totfact>
</mgrwt>
</event>
<event>
 4    1  0.5124795E-001  0.1638532E+03  0.7546771E-02  0.1184414E+00
          1   -1    0    0  501    0  0.00000000000E+00  0.00000000000E+00  0.69972821655E+02  0.69972821655E+02  0.00000000000E+00 0. -1.
         -1   -1    0    0    0  501 -0.00000000000E+00 -0.00000000000E+00 -0.41244620589E+03  0.41244620589E+03  0.00000000000E+00 0.  1.
         24    1    1    2    0    0 -0.81910184619E+02  0.11692461527E+03 -0.23492766203E+03  0.28642427680E+03  0.80419002446E+02 0.  1.
        -24    1    1    2    0    0  0.81910184619E+02 -0.11692461527E+03 -0.10754572220E+03  0.19599475074E+03  0.80419002446E+02 0. -1.
<mgrwt>
<rscale>  0 0.16385317E+03</rscale>
<asrwt>0</asrwt>
<pdfrwt beam="1">  1        1 0.10765049E-01 0.16385317E+03</pdfrwt>
<pdfrwt beam="2">  1       -1 0.63453263E-01 0.16385317E+03</pdfrwt>
<totfact> 0.14897681E+03</totfact>
</mgrwt>
</event>
<event>
 4    1  0.5124795E-001  0.9191666E+02  0.7546771E-02  0.1298276E+00
         -2   -1    0    0    0  501 -0.00000000000E+00  0.00000000000E+00  0.20350273871E+02  0.20350273871E+02  0.00000000000E+00 0.  1.
          2   -1    0    0  501    0  0.00000000000E+00 -0.00000000000E+00 -0.44515910484E+03  0.44515910484E+03  0.00000000000E+00 0. -1.
         24    1    1    2    0    0 -0.41216878272E+02 -0.16811467750E+02 -0.27282378530E+03  0.28789145573E+03  0.80419002446E+02 0.  0.
        -24    1    1    2    0    0  0.41216878272E+02  0.16811467750E+02 -0.15198504566E+03  0.17761792297E+03  0.80419002446E+02 0. -1.
<mgrwt>
<rscale>  0 0.91916660E+02</rscale>
<asrwt>0</asrwt>
<pdfrwt beam="1">  1        2 0.68486019E-01 0.91916660E+02</pdfrwt>
<pdfrwt beam="2">  1       -2 0.31308112E-02 0.91916660E+02</pdfrwt>
<totfact> 0.25325476E+04</totfact>
</mgrwt>
</event>
<event>
 4    1  0.5124795E-001  0.9561729E+02  0.7546771E-02  0.1289792E+00
         -2   -1    0    0    0  501 -0.00000000000E+00  0.00000000000E+00  0.18407109215E+03  0.18407109215E+03  0.00000000000E+00 0.  1.
          2   -1    0    0  501    0  0.00000000000E+00 -0.00000000000E+00 -0.11745285577E+03  0.11745285577E+03  0.00000000000E+00 0. -1.
         24    1    1    2    0    0  0.36861352885E+02 -0.36286233842E+02 -0.81221731045E+02  0.12545770463E+03  0.80419002446E+02 0. -1.
        -24    1    1    2    0    0 -0.36861352885E+02  0.36286233842E+02  0.14783996742E+03  0.17606624328E+03  0.80419002446E+02 0.  1.
<mgrwt>
<rscale>  0 0.95617290E+02</rscale>
<asrwt>0</asrwt>
<pdfrwt beam="1">  1        2 0.18069670E-01 0.95617290E+02</pdfrwt>
<pdfrwt beam="2">  1       -2 0.28318629E-01 0.95617290E+02</pdfrwt>
<totfact> 0.33394323E+03</totfact>
</mgrwt>
</event>
<event>
 4    1  0.5124795E-001  0.1143625E+03  0.7546771E-02  0.1252698E+00
         -2   -1    0    0    0  501 -0.00000000000E+00  0.00000000000E+00  0.33456136603E+02  0.33456136603E+02  0.00000000000E+00 0.  1.
          2   -1    0    0  501    0  0.00000000000E+00 -0.00000000000E+00 -0.51718382631E+03  0.51718382631E+03  0.00000000000E+00 0. -1.
         24    1    1    2    0    0  0.80737703961E+02 -0.96422160945E+01 -0.10582905270E+03  0.15581576788E+03  0.80419002446E+02 0.  0.
        -24    1    1    2    0    0 -0.80737703961E+02  0.96422160945E+01 -0.37789863701E+03  0.39482419503E+03  0.80419002446E+02 0.  0.
<mgrwt>
<rscale>  0 0.11436244E+03</rscale>
<asrwt>0</asrwt>
<pdfrwt beam="1">  1        2 0.79566732E-01 0.11436246E+03</pdfrwt>
<pdfrwt beam="2">  1       -2 0.51470986E-02 0.11436246E+03</pdfrwt>
<totfact> 0.10547451E+04</totfact>
</mgrwt>
</event>
<event>
 4    1  0.5124795E-001  0.8282120E+02  0.7546771E-02  0.1321231E+00
          2   -1    0    0  501    0  0.00000000000E+00  0.00000000000E+00  0.12653568103E+04  0.12653568103E+04  0.00000000000E+00 0. -1.
         -2   -1    0    0    0  501 -0.00000000000E+00 -0.00000000000E+00 -0.13450681722E+02  0.13450681722E+02  0.00000000000E+00 0.  1.
         24    1    1    2    0    0  0.16344554498E+02  0.11179961774E+02  0.11199853618E+04  0.11230434376E+04  0.80419002446E+02 0. -1.
        -24    1    1    2    0    0 -0.16344554498E+02 -0.11179961774E+02  0.13192076679E+03  0.15576405450E+03  0.80419002446E+02 0.  1.
<mgrwt>
<rscale>  0 0.82821205E+02</rscale>
<asrwt>0</asrwt>
<pdfrwt beam="1">  1        2 0.19467018E+00 0.82821205E+02</pdfrwt>
<pdfrwt beam="2">  1       -2 0.20693366E-02 0.82821205E+02</pdfrwt>
<totfact> 0.12645300E+04</totfact>
</mgrwt>
</event>
<event>
 4    1  0.5124795E-001  0.8569108E+02  0.7546771E-02  0.1313635E+00
         -3   -1    0    0    0  501 -0.00000000000E+00  0.00000000000E+00  0.23869127721E+03  0.23869127721E+03  0.00000000000E+00 0.  1.
          3   -1    0    0  501    0  0.00000000000E+00 -0.00000000000E+00 -0.45312899606E+02  0.45312899606E+02  0.00000000000E+00 0. -1.
         24    1    1    2    0    0  0.15582667305E+02  0.25158010018E+02  0.17715427418E+03  0.19679074623E+03  0.80419002446E+02 0.  1.
        -24    1    1    2    0    0 -0.15582667305E+02 -0.25158010018E+02  0.16224103428E+02  0.87213430587E+02  0.80419002446E+02 0. -1.
<mgrwt>
<rscale>  0 0.85691079E+02</rscale>
<asrwt>0</asrwt>
<pdfrwt beam="1">  1        3 0.69712155E-02 0.85691079E+02</pdfrwt>
<pdfrwt beam="2">  1       -3 0.36721734E-01 0.85691079E+02</pdfrwt>
<totfact> 0.20521196E+03</totfact>
</mgrwt>
</event>
<event>
 4    1  0.5124795E-001  0.9066365E+02  0.7546771E-02  0.1301252E+00
          2   -1    0    0  501    0  0.00000000000E+00  0.00000000000E+00  0.12934378521E+04  0.12934378521E+04  0.00000000000E+00 0. -1.
         -2   -1    0    0    0  501 -0.00000000000E+00 -0.00000000000E+00 -0.64159147261E+01  0.64159147261E+01  0.00000000000E+00 0.  1.
         24    1    1    2    0    0 -0.41846892378E+02 -0.12322526050E+01  0.70679915358E+03  0.71259030326E+03  0.80419002446E+02 0.  0.
        -24    1    1    2    0    0  0.41846892378E+02  0.12322526050E+01  0.58022278376E+03  0.58726346353E+03  0.80419002446E+02 0.  1.
<mgrwt>
<rscale>  0 0.90663647E+02</rscale>
<asrwt>0</asrwt>
<pdfrwt beam="1">  1        2 0.19899023E+00 0.90663647E+02</pdfrwt>
<pdfrwt beam="2">  1       -2 0.98706483E-03 0.90663647E+02</pdfrwt>
<totfact> 0.35307018E+04</totfact>
</mgrwt>
</event>
<event>
 4    1  0.5124795E-001  0.8715245E+02  0.7546771E-02  0.1309898E+00
         -2   -1    0    0    0  501 -0.00000000000E+00  0.00000000000E+00  0.10706214115E+03  0.10706214115E+03  0.00000000000E+00 0.  1.
          2   -1    0    0  501    0  0.00000000000E+00 -0.00000000000E+00 -0.81965880921E+02  0.81965880921E+02  0.00000000000E+00 0. -1.
         24    1    1    2    0    0 -0.23960985314E+02  0.23541570886E+02 -0.22108224208E+02  0.89912868428E+02  0.80419002446E+02 0.  1.
        -24    1    1    2    0    0  0.23960985314E+02 -0.23541570886E+02  0.47204484441E+02  0.99115153648E+02  0.80419002446E+02 0. -1.
<mgrwt>
<rscale>  0 0.87152455E+02</rscale>
<asrwt>0</asrwt>
<pdfrwt beam="1">  1        2 0.12610135E-01 0.87152455E+02</pdfrwt>
<pdfrwt beam="2">  1       -2 0.16471099E-01 0.87152455E+02</pdfrwt>
<totfact> 0.12588931E+04</totfact>
</mgrwt>
</event>
<event>
 4    1  0.5124795E-001  0.8601113E+02  0.7546771E-02  0.1312809E+00
         -1   -1    0    0    0  501 -0.00000000000E+00  0.00000000000E+00  0.10675253958E+02  0.10675253958E+02  0.00000000000E+00 0.  1.
          1   -1    0    0  501    0  0.00000000000E+00 -0.00000000000E+00 -0.69797041376E+03  0.69797041376E+03  0.00000000000E+00 0. -1.
         24    1    1    2    0    0  0.24036757487E+02 -0.18786415627E+02 -0.37355921800E+03  0.38333327592E+03  0.80419002446E+02 0.  1.
        -24    1    1    2    0    0 -0.24036757487E+02  0.18786415627E+02 -0.31373594181E+03  0.32531239180E+03  0.80419002446E+02 0. -1.
<mgrwt>
<rscale>  0 0.86011121E+02</rscale>
<asrwt>0</asrwt>
<pdfrwt beam="1">  1        1 0.10738005E+00 0.86011132E+02</pdfrwt>
<pdfrwt beam="2">  1       -1 0.16423470E-02 0.86011132E+02</pdfrwt>
<totfact> 0.23399991E+04</totfact>
</mgrwt>
</event>
<event>
 4    1  0.5124795E-001  0.1754675E+03  0.7546771E-02  0.1172263E+00
         -2   -1    0    0    0  501 -0.00000000000E+00  0.00000000000E+00  0.10424774771E+03  0.10424774771E+03  0.00000000000E+00 0.  1.
          2   -1    0    0  501    0  0.00000000000E+00 -0.00000000000E+00 -0.30557137496E+03  0.30557137496E+03  0.00000000000E+00 0. -1.
         24    1    1    2    0    0  0.15594910119E+03 -0.12228054975E+01 -0.13815143719E+03  0.22332633738E+03  0.80419002446E+02 0. -1.
        -24    1    1    2    0    0 -0.15594910119E+03  0.12228054975E+01 -0.63172190059E+02  0.18649278529E+03  0.80419002446E+02 0.  1.
<mgrwt>
<rscale>  0 0.17546747E+03</rscale>
<asrwt>0</asrwt>
<pdfrwt beam="1">  1        2 0.47010981E-01 0.17546747E+03</pdfrwt>
<pdfrwt beam="2">  1       -2 0.16038115E-01 0.17546747E+03</pdfrwt>
<totfact> 0.32104275E+03</totfact>
</mgrwt>
</event>
<event>
 4    1  0.5124795E-001  0.8834555E+02  0.7546771E-02  0.1306908E+00
          2   -1    0    0  501    0  0.00000000000E+00  0.00000000000E+00  0.16137587823E+03  0.16137587823E+03  0.00000000000E+00 0. -1.
         -2   -1    0    0    0  501 -0.00000000000E+00 -0.00000000000E+00 -0.10731714766E+03  0.10731714766E+03  0.00000000000E+00 0.  1.
         24    1    1    2    0    0  0.35749287554E+02 -0.77270947830E+01  0.12660242567E+03  0.15437975804E+03  0.80419002446E+02 0. -1.
        -24    1    1    2    0    0 -0.35749287554E+02  0.77270947830E+01 -0.72543695099E+02  0.11431326785E+03  0.80419002446E+02 0.  1.
<mgrwt>
<rscale>  0 0.88345546E+02</rscale>
<asrwt>0</asrwt>
<pdfrwt beam="1">  1        2 0.24827058E-01 0.88345546E+02</pdfrwt>
<pdfrwt beam="2">  1       -2 0.16510330E-01 0.88345546E+02</pdfrwt>
<totfact> 0.58289123E+03</totfact>
</mgrwt>
</event>
<event>
 4    1  0.5124795E-001  0.9136338E+02  0.7546771E-02  0.1299583E+00
          2   -1    0    0  501    0  0.00000000000E+00  0.00000000000E+00  0.88356307953E+03  0.88356307953E+03  0.00000000000E+00 0. -1.
         -2   -1    0    0    0  501 -0.00000000000E+00 -0.00000000000E+00 -0.14799369501E+02  0.14799369501E+02  0.00000000000E+00 0.  1.
         24    1    1    2    0    0  0.37212848768E+02  0.22254339430E+02  0.70450492515E+03  0.71040443218E+03  0.80419002446E+02 0.  0.
        -24    1    1    2    0    0 -0.37212848768E+02 -0.22254339430E+02  0.16425878488E+03  0.18795801686E+03  0.80419002446E+02 0.  0.
<mgrwt>
<rscale>  0 0.91363383E+02</rscale>
<asrwt>0</asrwt>
<pdfrwt beam="1">  1        2 0.13593274E+00 0.91363383E+02</pdfrwt>
<pdfrwt beam="2">  1       -2 0.22768268E-02 0.91363383E+02</pdfrwt>
<totfact> 0.18330592E+04</totfact>
</mgrwt>
</event>
<event>
 4    1  0.5124795E-001  0.8062813E+02  0.7546771E-02  0.1327278E+00
         -2   -1    0    0    0  501 -0.00000000000E+00  0.00000000000E+00  0.12022225639E+03  0.12022225639E+03  0.00000000000E+00 0.  1.
          2   -1    0    0  501    0  0.00000000000E+00 -0.00000000000E+00 -0.20451591069E+04  0.20451591069E+04  0.00000000000E+00 0. -1.
         24    1    1    2    0    0 -0.57966181062E+01 -0.27895626301E+00 -0.20307500644E+04  0.20323500482E+04  0.80419002446E+02 0. -1.
        -24    1    1    2    0    0  0.57966181062E+01  0.27895626301E+00  0.10581321388E+03  0.13303131505E+03  0.80419002446E+02 0.  1.
<mgrwt>
<rscale>  0 0.80628125E+02</rscale>
<asrwt>0</asrwt>
<pdfrwt beam="1">  1        2 0.31463987E+00 0.80628125E+02</pdfrwt>
<pdfrwt beam="2">  1       -2 0.18495731E-01 0.80628125E+02</pdfrwt>
<totfact> 0.18528019E+02</totfact>
</mgrwt>
</event>
<event>
 4    1  0.5124795E-001  0.8508902E+02  0.7546771E-02  0.1315200E+00
          4   -1    0    0  501    0  0.00000000000E+00  0.00000000000E+00  0.55415004776E+03  0.55415004776E+03  0.00000000000E+00 0. -1.
         -4   -1    0    0    0  501 -0.00000000000E+00 -0.00000000000E+00 -0.18363671664E+02  0.18363671664E+02  0.00000000000E+00 0.  1.
         24    1    1    2    0    0  0.22794448326E+02 -0.15916623589E+02  0.42165446407E+03  0.43015419190E+03  0.80419002446E+02 0.  0.
        -24    1    1    2    0    0 -0.22794448326E+02  0.15916623589E+02  0.11413191203E+03  0.14235952753E+03  0.80419002446E+02 0.  0.
<mgrwt>
<rscale>  0 0.85089022E+02</rscale>
<asrwt>0</asrwt>
<pdfrwt beam="1">  1        4 0.85253841E-01 0.85089022E+02</pdfrwt>
<pdfrwt beam="2">  1       -4 0.28251807E-02 0.85089022E+02</pdfrwt>
<totfact> 0.10834747E+03</totfact>
</mgrwt>
</event>
<event>
 4    1  0.5124795E-001  0.8501281E+02  0.7546771E-02  0.1315399E+00
         -2   -1    0    0    0  501 -0.00000000000E+00  0.00000000000E+00  0.24842831968E+03  0.24842831968E+03  0.00000000000E+00 0.  1.
          2   -1    0    0  501    0  0.00000000000E+00 -0.00000000000E+00 -0.54623401687E+02  0.54623401687E+02  0.00000000000E+00 0. -1.
         24    1    1    2    0    0  0.16240989889E+02  0.22275369887E+02 -0.66923758128E+01  0.85275821336E+02  0.80419002446E+02 0. -1.
        -24    1    1    2    0    0 -0.16240989889E+02 -0.22275369887E+02  0.20049729380E+03  0.21777590003E+03  0.80419002446E+02 0.  1.
<mgrwt>
<rscale>  0 0.85012810E+02</rscale>
<asrwt>0</asrwt>
<pdfrwt beam="1">  1        2 0.84036004E-02 0.85012810E+02</pdfrwt>
<pdfrwt beam="2">  1       -2 0.38219741E-01 0.85012810E+02</pdfrwt>
<totfact> 0.47573207E+03</totfact>
</mgrwt>
</event>
<event>
 4    1  0.5124795E-001  0.9392804E+02  0.7546771E-02  0.1293609E+00
          2   -1    0    0  501    0  0.00000000000E+00  0.00000000000E+00  0.11259767438E+04  0.11259767438E+04  0.00000000000E+00 0. -1.
         -2   -1    0    0    0  501 -0.00000000000E+00 -0.00000000000E+00 -0.49411114099E+02  0.49411114099E+02  0.00000000000E+00 0.  1.
         24    1    1    2    0    0 -0.19905453288E+02 -0.44260980529E+02  0.10773696714E+04  0.10814563728E+04  0.80419002446E+02 0. -1.
        -24    1    1    2    0    0  0.19905453288E+02  0.44260980529E+02 -0.80404163006E+00  0.93931485165E+02  0.80419002446E+02 0.  1.
<mgrwt>
<rscale>  0 0.93928044E+02</rscale>
<asrwt>0</asrwt>
<pdfrwt beam="1">  1        2 0.17322717E+00 0.93928044E+02</pdfrwt>
<pdfrwt beam="2">  1       -2 0.76017107E-02 0.93928044E+02</pdfrwt>
<totfact> 0.22296953E+03</totfact>
</mgrwt>
</event>
<event>
 4    1  0.5124795E-001  0.8284440E+02  0.7546771E-02  0.1321168E+00
          2   -1    0    0  501    0  0.00000000000E+00  0.00000000000E+00  0.10194825410E+04  0.10194825410E+04  0.00000000000E+00 0. -1.
         -2   -1    0    0    0  501 -0.00000000000E+00 -0.00000000000E+00 -0.10969310663E+02  0.10969310663E+02  0.00000000000E+00 0.  1.
         24    1    1    2    0    0  0.13726616121E+02 -0.14406887743E+02  0.82447870567E+03  0.82863039436E+03  0.80419002446E+02 0. -1.
        -24    1    1    2    0    0 -0.13726616121E+02  0.14406887743E+02  0.18403452471E+03  0.20182145735E+03  0.80419002446E+02 0.  1.
<mgrwt>
<rscale>  0 0.82844398E+02</rscale>
<asrwt>0</asrwt>
<pdfrwt beam="1">  1        2 0.15684339E+00 0.82844398E+02</pdfrwt>
<pdfrwt beam="2">  1       -2 0.16875871E-02 0.82844398E+02</pdfrwt>
<totfact> 0.23135769E+04</totfact>
</mgrwt>
</event>
<event>
 4    1  0.5124795E-001  0.8368523E+02  0.7546771E-02  0.1318907E+00
          4   -1    0    0  501    0  0.00000000000E+00  0.00000000000E+00  0.27732067713E+02  0.27732067713E+02  0.00000000000E+00 0. -1.
         -4   -1    0    0    0  501 -0.00000000000E+00 -0.00000000000E+00 -0.50064912151E+03  0.50064912151E+03  0.00000000000E+00 0.  1.
         24    1    1    2    0    0  0.13705399108E+02  0.18659145369E+02 -0.50472839814E+02  0.97727811721E+02  0.80419002446E+02 0. -1.
        -24    1    1    2    0    0 -0.13705399108E+02 -0.18659145369E+02 -0.42244421398E+03  0.43065337750E+03  0.80419002446E+02 0.  1.
<mgrwt>
<rscale>  0 0.83685229E+02</rscale>
<asrwt>0</asrwt>
<pdfrwt beam="1">  1        4 0.42664723E-02 0.83685229E+02</pdfrwt>
<pdfrwt beam="2">  1       -4 0.77022936E-01 0.83685229E+02</pdfrwt>
<totfact> 0.70819219E+02</totfact>
</mgrwt>
</event>
<event>
 4    1  0.5124795E-001  0.8353284E+02  0.7546771E-02  0.1319315E+00
         -1   -1    0    0    0  501 -0.00000000000E+00  0.00000000000E+00  0.40945367687E+02  0.40945367687E+02  0.00000000000E+00 0.  1.
          1   -1    0    0  501    0  0.00000000000E+00 -0.00000000000E+00 -0.17345592785E+03  0.17345592785E+03  0.00000000000E+00 0. -1.
         24    1    1    2    0    0  0.22011085519E+02 -0.51017153794E+01 -0.80447804977E+02  0.11597232715E+03  0.80419002446E+02 0.  1.
        -24    1    1    2    0    0 -0.22011085519E+02  0.51017153794E+01 -0.52062755190E+02  0.98428968388E+02  0.80419002446E+02 0. -1.
<mgrwt>
<rscale>  0 0.83532826E+02</rscale>
<asrwt>0</asrwt>
<pdfrwt beam="1">  1        1 0.26685527E-01 0.83532837E+02</pdfrwt>
<pdfrwt beam="2">  1       -1 0.62992873E-02 0.83532837E+02</pdfrwt>
<totfact> 0.19270136E+04</totfact>
</mgrwt>
</event>
<event>
 4    1  0.5124795E-001  0.8084378E+02  0.7546771E-02  0.1326674E+00
         -4   -1    0    0    0  501 -0.00000000000E+00  0.00000000000E+00  0.49054613086E+02  0.49054613086E+02  0.00000000000E+00 0.  1.
          4   -1    0    0  501    0  0.00000000000E+00 -0.00000000000E+00 -0.13357320223E+03  0.13357320223E+03  0.00000000000E+00 0. -1.
         24    1    1    2    0    0 -0.42723152658E+01  0.70883556624E+01 -0.37653723870E+02  0.89182488973E+02  0.80419002446E+02 0.  0.
        -24    1    1    2    0    0  0.42723152658E+01 -0.70883556624E+01 -0.46864865271E+02  0.93445326341E+02  0.80419002446E+02 0.  0.
<mgrwt>
<rscale>  0 0.80843769E+02</rscale>
<asrwt>0</asrwt>
<pdfrwt beam="1">  1        4 0.20549723E-01 0.80843780E+02</pdfrwt>
<pdfrwt beam="2">  1       -4 0.75468635E-02 0.80843780E+02</pdfrwt>
<totfact> 0.37257660E+03</totfact>
</mgrwt>
</event>
<event>
 4    1  0.5124795E-001  0.8285998E+02  0.7546771E-02  0.1321126E+00
         -1   -1    0    0    0  501 -0.00000000000E+00  0.00000000000E+00  0.56643521955E+01  0.56643521955E+01  0.00000000000E+00 0.  1.
          1   -1    0    0  501    0  0.00000000000E+00 -0.00000000000E+00 -0.12803666340E+04  0.12803666340E+04  0.00000000000E+00 0. -1.
         24    1    1    2    0    0 -0.36483305548E+01 -0.19627807857E+02 -0.48887740838E+03  0.49584967232E+03  0.80419002446E+02 0. -1.
        -24    1    1    2    0    0  0.36483305548E+01  0.19627807857E+02 -0.78582487339E+03  0.79018131385E+03  0.80419002446E+02 0.  0.
<mgrwt>
<rscale>  0 0.82859985E+02</rscale>
<asrwt>0</asrwt>
<pdfrwt beam="1">  1        1 0.19697953E+00 0.82859985E+02</pdfrwt>
<pdfrwt beam="2">  1       -1 0.87143858E-03 0.82859985E+02</pdfrwt>
<totfact> 0.21282721E+04</totfact>
</mgrwt>
</event>
<event>
 4    1  0.5124795E-001  0.9515728E+02  0.7546771E-02  0.1290822E+00
         -1   -1    0    0    0  501 -0.00000000000E+00  0.00000000000E+00  0.61774739121E+03  0.61774739121E+03  0.00000000000E+00 0.  1.
          1   -1    0    0  501    0  0.00000000000E+00 -0.00000000000E+00 -0.37465421555E+02  0.37465421555E+02  0.00000000000E+00 0. -1.
         24    1    1    2    0    0 -0.46366838088E+02  0.20923869564E+02  0.54574971476E+03  0.55398344660E+03  0.80419002446E+02 0.  1.
        -24    1    1    2    0    0  0.46366838088E+02 -0.20923869564E+02  0.34532254897E+02  0.10122936617E+03  0.80419002446E+02 0. -1.
<mgrwt>
<rscale>  0 0.95157280E+02</rscale>
<asrwt>0</asrwt>
<pdfrwt beam="1">  1        1 0.57639115E-02 0.95157280E+02</pdfrwt>
<pdfrwt beam="2">  1       -1 0.95038053E-01 0.95157280E+02</pdfrwt>
<totfact> 0.14824285E+03</totfact>
</mgrwt>
</event>
<event>
 4    1  0.5124795E-001  0.9836695E+02  0.7546771E-02  0.1283768E+00
          2   -1    0    0  501    0  0.00000000000E+00  0.00000000000E+00  0.61569084895E+03  0.61569084895E+03  0.00000000000E+00 0. -1.
         -2   -1    0    0    0  501 -0.00000000000E+00 -0.00000000000E+00 -0.21682977659E+02  0.21682977659E+02  0.00000000000E+00 0.  1.
         24    1    1    2    0    0  0.56633322232E+02  0.12277057970E+01  0.46418624006E+03  0.47449438549E+03  0.80419002446E+02 0. -1.
        -24    1    1    2    0    0 -0.56633322232E+02 -0.12277057970E+01  0.12982163123E+03  0.16287944111E+03  0.80419002446E+02 0.  1.
<mgrwt>
<rscale>  0 0.98366948E+02</rscale>
<asrwt>0</asrwt>
<pdfrwt beam="1">  1        2 0.94721656E-01 0.98366948E+02</pdfrwt>
<pdfrwt beam="2">  1       -2 0.33358432E-02 0.98366948E+02</pdfrwt>
<totfact> 0.16302819E+04</totfact>
</mgrwt>
</event>
<event>
 4    1  0.5124795E-001  0.8636827E+02  0.7546771E-02  0.1311893E+00
         -3   -1    0    0    0  501 -0.00000000000E+00  0.00000000000E+00  0.12859784353E+03  0.12859784353E+03  0.00000000000E+00 0.  1.
          3   -1    0    0  501    0  0.00000000000E+00 -0.00000000000E+00 -0.76704277856E+02  0.76704277856E+02  0.00000000000E+00 0. -1.
         24    1    1    2    0    0 -0.30710145266E+02  0.70105919043E+01  0.76628540255E+02  0.11546172767E+03  0.80419002446E+02 0.  1.
        -24    1    1    2    0    0  0.30710145266E+02 -0.70105919043E+01 -0.24734974579E+02  0.89840393715E+02  0.80419002446E+02 0. -1.
<mgrwt>
<rscale>  0 0.86368266E+02</rscale>
<asrwt>0</asrwt>
<pdfrwt beam="1">  1        3 0.11800658E-01 0.86368266E+02</pdfrwt>
<pdfrwt beam="2">  1       -3 0.19784284E-01 0.86368266E+02</pdfrwt>
<totfact> 0.26727385E+03</totfact>
</mgrwt>
</event>
<event>
 4    1  0.5124795E-001  0.9507887E+02  0.7546771E-02  0.1290999E+00
         -2   -1    0    0    0  501 -0.00000000000E+00  0.00000000000E+00  0.50109532409E+02  0.50109532409E+02  0.00000000000E+00 0.  1.
          2   -1    0    0  501    0  0.00000000000E+00 -0.00000000000E+00 -0.10170361368E+04  0.10170361368E+04  0.00000000000E+00 0. -1.
         24    1    1    2    0    0 -0.49641917565E+02  0.10414239517E+02 -0.96740453087E+03  0.97206559381E+03  0.80419002446E+02 0. -1.
        -24    1    1    2    0    0  0.49641917565E+02 -0.10414239517E+02  0.47792650861E+00  0.95080075370E+02  0.80419002446E+02 0.  1.
<mgrwt>
<rscale>  0 0.95078874E+02</rscale>
<asrwt>0</asrwt>
<pdfrwt beam="1">  1        2 0.15646711E+00 0.95078874E+02</pdfrwt>
<pdfrwt beam="2">  1       -2 0.77091582E-02 0.95078874E+02</pdfrwt>
<totfact> 0.25182274E+03</totfact>
</mgrwt>
</event>
<event>
 4    1  0.5124795E-001  0.9676615E+02  0.7546771E-02  0.1287247E+00
         -2   -1    0    0    0  501 -0.00000000000E+00  0.00000000000E+00  0.71224308842E+01  0.71224308842E+01  0.00000000000E+00 0.  1.
          2   -1    0    0  501    0  0.00000000000E+00 -0.00000000000E+00 -0.13312548128E+04  0.13312548128E+04  0.00000000000E+00 0. -1.
         24    1    1    2    0    0  0.53816985993E+02  0.45122818913E+00 -0.73674497635E+03  0.74307257231E+03  0.80419002446E+02 0.  0.
        -24    1    1    2    0    0 -0.53816985993E+02 -0.45122818913E+00 -0.58738740558E+03  0.59530467139E+03  0.80419002446E+02 0.  1.
<mgrwt>
<rscale>  0 0.96766149E+02</rscale>
<asrwt>0</asrwt>
<pdfrwt beam="1">  1        2 0.20480864E+00 0.96766149E+02</pdfrwt>
<pdfrwt beam="2">  1       -2 0.10957575E-02 0.96766149E+02</pdfrwt>
<totfact> 0.29246253E+04</totfact>
</mgrwt>
</event>
<event>
 4    1  0.5124795E-001  0.8961312E+02  0.7546771E-02  0.1303791E+00
         -1   -1    0    0    0  501 -0.00000000000E+00  0.00000000000E+00  0.18093099280E+02  0.18093099280E+02  0.00000000000E+00 0.  1.
          1   -1    0    0  501    0  0.00000000000E+00 -0.00000000000E+00 -0.50719466005E+03  0.50719466005E+03  0.00000000000E+00 0. -1.
         24    1    1    2    0    0  0.35514398260E+02  0.17378803080E+02 -0.15172770339E+03  0.17621522979E+03  0.80419002446E+02 0.  1.
        -24    1    1    2    0    0 -0.35514398260E+02 -0.17378803080E+02 -0.33737385738E+03  0.34907252954E+03  0.80419002446E+02 0. -1.
<mgrwt>
<rscale>  0 0.89613120E+02</rscale>
<asrwt>0</asrwt>
<pdfrwt beam="1">  1        1 0.78029961E-01 0.89613120E+02</pdfrwt>
<pdfrwt beam="2">  1       -1 0.27835533E-02 0.89613120E+02</pdfrwt>
<totfact> 0.16961275E+04</totfact>
</mgrwt>
</event>
<event>
 4    1  0.5124795E-001  0.8087845E+02  0.7546771E-02  0.1326577E+00
          1   -1    0    0  501    0  0.00000000000E+00  0.00000000000E+00  0.21215292094E+03  0.21215292094E+03  0.00000000000E+00 0. -1.
         -1   -1    0    0    0  501 -0.00000000000E+00 -0.00000000000E+00 -0.14084326441E+03  0.14084326441E+03  0.00000000000E+00 0.  1.
         24    1    1    2    0    0 -0.44572896481E+01 -0.73648510000E+01 -0.12033218943E+03  0.14498675880E+03  0.80419002446E+02 0.  1.
        -24    1    1    2    0    0  0.44572896481E+01  0.73648510000E+01  0.19164184595E+03  0.20800942655E+03  0.80419002446E+02 0. -1.
<mgrwt>
<rscale>  0 0.80878455E+02</rscale>
<asrwt>0</asrwt>
<pdfrwt beam="1">  1        1 0.32638911E-01 0.80878455E+02</pdfrwt>
<pdfrwt beam="2">  1       -1 0.21668194E-01 0.80878455E+02</pdfrwt>
<totfact> 0.22842956E+03</totfact>
</mgrwt>
</event>
<event>
 4    1  0.5124795E-001  0.8917453E+02  0.7546771E-02  0.1304863E+00
         -2   -1    0    0    0  501 -0.00000000000E+00  0.00000000000E+00  0.78983204688E+01  0.78983204688E+01  0.00000000000E+00 0.  1.
          2   -1    0    0  501    0  0.00000000000E+00 -0.00000000000E+00 -0.12505176263E+04  0.12505176263E+04  0.00000000000E+00 0. -1.
         24    1    1    2    0    0  0.36826529393E+02  0.11344023920E+02 -0.89907957329E+03  0.90349110411E+03  0.80419002446E+02 0.  1.
        -24    1    1    2    0    0 -0.36826529393E+02 -0.11344023920E+02 -0.34353973250E+03  0.35492484261E+03  0.80419002446E+02 0.  1.
<mgrwt>
<rscale>  0 0.89174526E+02</rscale>
<asrwt>0</asrwt>
<pdfrwt beam="1">  1        2 0.19238730E+00 0.89174526E+02</pdfrwt>
<pdfrwt beam="2">  1       -2 0.12151264E-02 0.89174526E+02</pdfrwt>
<totfact> 0.27675907E+04</totfact>
</mgrwt>
</event>
<event>
 4    1  0.5124795E-001  0.8251757E+02  0.7546771E-02  0.1322055E+00
          4   -1    0    0  501    0  0.00000000000E+00  0.00000000000E+00  0.25931728862E+03  0.25931728862E+03  0.00000000000E+00 0. -1.
         -4   -1    0    0    0  501 -0.00000000000E+00 -0.00000000000E+00 -0.27880945678E+02  0.27880945678E+02  0.00000000000E+00 0.  1.
         24    1    1    2    0    0  0.18486146552E+02  0.44268628926E+00  0.15036408244E+03  0.17151824051E+03  0.80419002446E+02 0.  1.
        -24    1    1    2    0    0 -0.18486146552E+02 -0.44268628926E+00  0.81072260502E+02  0.11567999379E+03  0.80419002446E+02 0.  1.
<mgrwt>
<rscale>  0 0.82517571E+02</rscale>
<asrwt>0</asrwt>
<pdfrwt beam="1">  1        4 0.39894966E-01 0.82517571E+02</pdfrwt>
<pdfrwt beam="2">  1       -4 0.42893764E-02 0.82517571E+02</pdfrwt>
<totfact> 0.26988380E+03</totfact>
</mgrwt>
</event>
<event>
 4    1  0.5124795E-001  0.9606066E+02  0.7546771E-02  0.1288805E+00
          1   -1    0    0  501    0  0.00000000000E+00  0.00000000000E+00  0.22634746149E+03  0.22634746149E+03  0.00000000000E+00 0. -1.
         -1   -1    0    0    0  501 -0.00000000000E+00 -0.00000000000E+00 -0.55430871070E+02  0.55430871070E+02  0.00000000000E+00 0.  1.
         24    1    1    2    0    0 -0.22885451050E+02  0.47293656130E+02  0.12995226228E+02  0.96935677843E+02  0.80419002446E+02 0.  1.
        -24    1    1    2    0    0  0.22885451050E+02 -0.47293656130E+02  0.15792136419E+03  0.18484265472E+03  0.80419002446E+02 0. -1.
<mgrwt>
<rscale>  0 0.96060657E+02</rscale>
<asrwt>0</asrwt>
<pdfrwt beam="1">  1        1 0.34822686E-01 0.96060657E+02</pdfrwt>
<pdfrwt beam="2">  1       -1 0.85278264E-02 0.96060657E+02</pdfrwt>
<totfact> 0.89862615E+03</totfact>
</mgrwt>
</event>
<event>
 4    1  0.5124795E-001  0.1356999E+03  0.7546771E-02  0.1219235E+00
          4   -1    0    0  501    0  0.00000000000E+00  0.00000000000E+00  0.60237015385E+03  0.60237015385E+03  0.00000000000E+00 0. -1.
         -4   -1    0    0    0  501 -0.00000000000E+00 -0.00000000000E+00 -0.13084305258E+03  0.13084305258E+03  0.00000000000E+00 0.  1.
         24    1    1    2    0    0  0.58865956817E+02 -0.92098003806E+02  0.55669853025E+03  0.57299887672E+03  0.80419002446E+02 0. -1.
        -24    1    1    2    0    0 -0.58865956817E+02  0.92098003806E+02 -0.85171428983E+02  0.16021432972E+03  0.80419002446E+02 0.  1.
<mgrwt>
<rscale>  0 0.13569989E+03</rscale>
<asrwt>0</asrwt>
<pdfrwt beam="1">  1        4 0.92672330E-01 0.13569989E+03</pdfrwt>
<pdfrwt beam="2">  1       -4 0.20129701E-01 0.13569989E+03</pdfrwt>
<totfact> 0.38423215E+01</totfact>
</mgrwt>
</event>
<event>
 4    1  0.5124795E-001  0.8878895E+02  0.7546771E-02  0.1305811E+00
         -1   -1    0    0    0  501 -0.00000000000E+00  0.00000000000E+00  0.23126852339E+02  0.23126852339E+02  0.00000000000E+00 0.  1.
          1   -1    0    0  501    0  0.00000000000E+00 -0.00000000000E+00 -0.40699567251E+03  0.40699567251E+03  0.00000000000E+00 0. -1.
         24    1    1    2    0    0 -0.37529882792E+02  0.27874324287E+01 -0.10525418814E+03  0.13770229467E+03  0.80419002446E+02 0.  1.
        -24    1    1    2    0    0  0.37529882792E+02 -0.27874324287E+01 -0.27861463203E+03  0.29242023018E+03  0.80419002446E+02 0. -1.
<mgrwt>
<rscale>  0 0.88788951E+02</rscale>
<asrwt>0</asrwt>
<pdfrwt beam="1">  1        1 0.62614722E-01 0.88788951E+02</pdfrwt>
<pdfrwt beam="2">  1       -1 0.35579771E-02 0.88788951E+02</pdfrwt>
<totfact> 0.15709996E+04</totfact>
</mgrwt>
</event>
<event>
 4    1  0.5124795E-001  0.9270984E+02  0.7546771E-02  0.1296419E+00
         -1   -1    0    0    0  501 -0.00000000000E+00  0.00000000000E+00  0.95826278797E+01  0.95826278797E+01  0.00000000000E+00 0.  1.
          1   -1    0    0  501    0  0.00000000000E+00 -0.00000000000E+00 -0.11084328837E+04  0.11084328837E+04  0.00000000000E+00 0. -1.
         24    1    1    2    0    0 -0.46064058015E+02  0.24496044645E+01 -0.30524892894E+03  0.31901727629E+03  0.80419002446E+02 0. -1.
        -24    1    1    2    0    0  0.46064058015E+02 -0.24496044645E+01 -0.79360132685E+03  0.79899823526E+03  0.80419002446E+02 0. -1.
<mgrwt>
<rscale>  0 0.92709837E+02</rscale>
<asrwt>0</asrwt>
<pdfrwt beam="1">  1        1 0.17052806E+00 0.92709837E+02</pdfrwt>
<pdfrwt beam="2">  1       -1 0.14742511E-02 0.92709837E+02</pdfrwt>
<totfact> 0.13347627E+04</totfact>
</mgrwt>
</event>
<event>
 4    1  0.5124795E-001  0.8581761E+02  0.7546771E-02  0.1313308E+00
         -2   -1    0    0    0  501 -0.00000000000E+00  0.00000000000E+00  0.80808139773E+03  0.80808139773E+03  0.00000000000E+00 0.  1.
          2   -1    0    0  501    0  0.00000000000E+00 -0.00000000000E+00 -0.15891250275E+02  0.15891250275E+02  0.00000000000E+00 0. -1.
         24    1    1    2    0    0  0.12297995494E+02 -0.27316754086E+02  0.12704188292E+03  0.15331112718E+03  0.80419002446E+02 0. -1.
        -24    1    1    2    0    0 -0.12297995494E+02  0.27316754086E+02  0.66514826453E+03  0.67066152082E+03  0.80419002446E+02 0.  1.
<mgrwt>
<rscale>  0 0.85817607E+02</rscale>
<asrwt>0</asrwt>
<pdfrwt beam="1">  1        2 0.24448084E-02 0.85817607E+02</pdfrwt>
<pdfrwt beam="2">  1       -2 0.12432018E+00 0.85817607E+02</pdfrwt>
<totfact> 0.19513172E+03</totfact>
</mgrwt>
</event>
<event>
 4    1  0.5124795E-001  0.9371494E+02  0.7546771E-02  0.1294097E+00
          1   -1    0    0  501    0  0.00000000000E+00  0.00000000000E+00  0.76241897444E+03  0.76241897444E+03  0.00000000000E+00 0. -1.
         -1   -1    0    0    0  501 -0.00000000000E+00 -0.00000000000E+00 -0.11524014273E+02  0.11524014273E+02  0.00000000000E+00 0.  1.
         24    1    1    2    0    0  0.10868369704E+02  0.46873784585E+02  0.36757313545E+03  0.37933164777E+03  0.80419002446E+02 0.  0.
        -24    1    1    2    0    0 -0.10868369704E+02 -0.46873784585E+02  0.38332182472E+03  0.39461134094E+03  0.80419002446E+02 0.  0.
<mgrwt>
<rscale>  0 0.93714935E+02</rscale>
<asrwt>0</asrwt>
<pdfrwt beam="1">  1        1 0.11729519E+00 0.93714935E+02</pdfrwt>
<pdfrwt beam="2">  1       -1 0.17729259E-02 0.93714935E+02</pdfrwt>
<totfact> 0.18656642E+04</totfact>
</mgrwt>
</event>
<event>
 4    1  0.5124795E-001  0.8064685E+02  0.7546771E-02  0.1327226E+00
         -1   -1    0    0    0  501 -0.00000000000E+00  0.00000000000E+00  0.75718116271E+02  0.75718116271E+02  0.00000000000E+00 0.  1.
          1   -1    0    0  501    0  0.00000000000E+00 -0.00000000000E+00 -0.15914003714E+03  0.15914003714E+03  0.00000000000E+00 0. -1.
         24    1    1    2    0    0 -0.23754826096E+01  0.55727528897E+01  0.37954640566E+02  0.89131751847E+02  0.80419002446E+02 0.  1.
        -24    1    1    2    0    0  0.23754826096E+01 -0.55727528897E+01 -0.12137656143E+03  0.14572640156E+03  0.80419002446E+02 0.  0.
<mgrwt>
<rscale>  0 0.80646850E+02</rscale>
<asrwt>0</asrwt>
<pdfrwt beam="1">  1        1 0.24483083E-01 0.80646850E+02</pdfrwt>
<pdfrwt beam="2">  1       -1 0.11648941E-01 0.80646850E+02</pdfrwt>
<totfact> 0.85237864E+03</totfact>
</mgrwt>
</event>
<event>
 4    1  0.5124795E-001  0.8329823E+02  0.7546771E-02  0.1319944E+00
         -3   -1    0    0    0  501 -0.00000000000E+00  0.00000000000E+00  0.31763527676E+02  0.31763527676E+02  0.00000000000E+00 0.  1.
          3   -1    0    0  501    0  0.00000000000E+00 -0.00000000000E+00 -0.21912558058E+03  0.21912558058E+03  0.00000000000E+00 0. -1.
         24    1    1    2    0    0 -0.27620886361E+01 -0.21534851448E+02 -0.86691730911E+02  0.12022500207E+03  0.80419002446E+02 0.  0.
        -24    1    1    2    0    0  0.27620886361E+01  0.21534851448E+02 -0.10067032199E+03  0.13066410618E+03  0.80419002446E+02 0.  1.
<mgrwt>
<rscale>  0 0.83298229E+02</rscale>
<asrwt>0</asrwt>
<pdfrwt beam="1">  1        3 0.33711628E-01 0.83298229E+02</pdfrwt>
<pdfrwt beam="2">  1       -3 0.48866965E-02 0.83298229E+02</pdfrwt>
<totfact> 0.41925754E+03</totfact>
</mgrwt>
</event>
<event>
 4    1  0.5124795E-001  0.9100447E+02  0.7546771E-02  0.1300437E+00
         -1   -1    0    0    0  501 -0.00000000000E+00  0.00000000000E+00  0.53483119480E+03  0.53483119480E+03  0.00000000000E+00 0.  1.
          1   -1    0    0  501    0  0.00000000000E+00 -0.00000000000E+00 -0.34364475777E+02  0.34364475777E+02  0.00000000000E+00 0. -1.
         24    1    1    2    0    0 -0.20672135994E+02  0.37245936325E+02  0.46118005728E+03  0.47007324766E+03  0.80419002446E+02 0.  1.
        -24    1    1    2    0    0  0.20672135994E+02 -0.37245936325E+02  0.39286661741E+02  0.99122422914E+02  0.80419002446E+02 0.  0.
<mgrwt>
<rscale>  0 0.91004467E+02</rscale>
<asrwt>0</asrwt>
<pdfrwt beam="1">  1        1 0.52868428E-02 0.91004467E+02</pdfrwt>
<pdfrwt beam="2">  1       -1 0.82281716E-01 0.91004467E+02</pdfrwt>
<totfact> 0.22457323E+03</totfact>
</mgrwt>
</event>
<event>
 4    1  0.5124795E-001  0.8445900E+02  0.7546771E-02  0.1316853E+00
         -2   -1    0    0    0  501 -0.00000000000E+00  0.00000000000E+00  0.83824647081E+02  0.83824647081E+02  0.00000000000E+00 0.  1.
          2   -1    0    0  501    0  0.00000000000E+00 -0.00000000000E+00 -0.86766678783E+02  0.86766678783E+02  0.00000000000E+00 0. -1.
         24    1    1    2    0    0 -0.11704873342E+02 -0.23002248295E+02 -0.13299134796E+02  0.85499651621E+02  0.80419002446E+02 0. -1.
        -24    1    1    2    0    0  0.11704873342E+02  0.23002248295E+02  0.10357103094E+02  0.85091674243E+02  0.80419002446E+02 0.  1.
<mgrwt>
<rscale>  0 0.84459004E+02</rscale>
<asrwt>0</asrwt>
<pdfrwt beam="1">  1        2 0.13348720E-01 0.84459004E+02</pdfrwt>
<pdfrwt beam="2">  1       -2 0.12896099E-01 0.84459004E+02</pdfrwt>
<totfact> 0.17402961E+04</totfact>
</mgrwt>
</event>
<event>
 4    1  0.5124795E-001  0.8310344E+02  0.7546771E-02  0.1320468E+00
          1   -1    0    0  501    0  0.00000000000E+00  0.00000000000E+00  0.12321763045E+04  0.12321763045E+04  0.00000000000E+00 0. -1.
         -1   -1    0    0    0  501 -0.00000000000E+00 -0.00000000000E+00 -0.58347248773E+01  0.58347248773E+01  0.00000000000E+00 0.  1.
         24    1    1    2    0    0 -0.14591637727E+02  0.15034832767E+02  0.73603314210E+03  0.74070977063E+03  0.80419002446E+02 0. -1.
        -24    1    1    2    0    0  0.14591637727E+02 -0.15034832767E+02  0.49030843752E+03  0.49730125874E+03  0.80419002446E+02 0.  1.
<mgrwt>
<rscale>  0 0.83103428E+02</rscale>
<asrwt>0</asrwt>
<pdfrwt beam="1">  1        1 0.18956538E+00 0.83103439E+02</pdfrwt>
<pdfrwt beam="2">  1       -1 0.89765096E-03 0.83103439E+02</pdfrwt>
<totfact> 0.21975215E+04</totfact>
</mgrwt>
</event>
<event>
 4    1  0.5124795E-001  0.1198787E+03  0.7546771E-02  0.1243297E+00
          1   -1    0    0  501    0  0.00000000000E+00  0.00000000000E+00  0.17117914472E+04  0.17117914472E+04  0.00000000000E+00 0. -1.
         -1   -1    0    0    0  501 -0.00000000000E+00 -0.00000000000E+00 -0.89761236809E+01  0.89761236809E+01  0.00000000000E+00 0.  1.
         24    1    1    2    0    0  0.78742474826E+02 -0.41271284079E+02  0.63253589871E+03  0.64379544527E+03  0.80419002446E+02 0.  1.
        -24    1    1    2    0    0 -0.78742474826E+02  0.41271284079E+02  0.10702794248E+04  0.10769721256E+04  0.80419002446E+02 0. -1.
<mgrwt>
<rscale>  0 0.11987874E+03</rscale>
<asrwt>0</asrwt>
<pdfrwt beam="1">  1        1 0.26335227E+00 0.11987874E+03</pdfrwt>
<pdfrwt beam="2">  1       -1 0.13809435E-02 0.11987874E+03</pdfrwt>
<totfact> 0.59865995E+03</totfact>
</mgrwt>
</event>
<event>
 4    1  0.5124795E-001  0.9864243E+02  0.7546771E-02  0.1283177E+00
          2   -1    0    0  501    0  0.00000000000E+00  0.00000000000E+00  0.63026061406E+03  0.63026061406E+03  0.00000000000E+00 0. -1.
         -2   -1    0    0    0  501 -0.00000000000E+00 -0.00000000000E+00 -0.15896671015E+03  0.15896671015E+03  0.00000000000E+00 0.  1.
         24    1    1    2    0    0  0.46852760458E+02  0.32679224476E+02  0.61060919417E+03  0.61852559917E+03  0.80419002446E+02 0. -1.
        -24    1    1    2    0    0 -0.46852760458E+02 -0.32679224476E+02 -0.13931529026E+03  0.17070172503E+03  0.80419002446E+02 0.  1.
<mgrwt>
<rscale>  0 0.98642429E+02</rscale>
<asrwt>0</asrwt>
<pdfrwt beam="1">  1        2 0.96963170E-01 0.98642429E+02</pdfrwt>
<pdfrwt beam="2">  1       -2 0.24456417E-01 0.98642429E+02</pdfrwt>
<totfact> 0.70694329E+02</totfact>
</mgrwt>
</event>
<event>
 4    1  0.5124795E-001  0.8786504E+02  0.7546771E-02  0.1308106E+00
         -2   -1    0    0    0  501 -0.00000000000E+00  0.00000000000E+00  0.21985134093E+02  0.21985134093E+02  0.00000000000E+00 0.  1.
          2   -1    0    0  501    0  0.00000000000E+00 -0.00000000000E+00 -0.48981554532E+03  0.48981554532E+03  0.00000000000E+00 0. -1.
         24    1    1    2    0    0  0.18896547484E+02  0.29932767056E+02 -0.37006769970E+03  0.38035558148E+03  0.80419002446E+02 0. -1.
        -24    1    1    2    0    0 -0.18896547484E+02 -0.29932767056E+02 -0.97762711532E+02  0.13144509793E+03  0.80419002446E+02 0.  1.
<mgrwt>
<rscale>  0 0.87865044E+02</rscale>
<asrwt>0</asrwt>
<pdfrwt beam="1">  1        2 0.75356236E-01 0.87865044E+02</pdfrwt>
<pdfrwt beam="2">  1       -2 0.33823284E-02 0.87865044E+02</pdfrwt>
<totfact> 0.20331290E+04</totfact>
</mgrwt>
</event>
<event>
 4    1  0.5124795E-001  0.8556179E+02  0.7546771E-02  0.1313970E+00
         -1   -1    0    0    0  501 -0.00000000000E+00  0.00000000000E+00  0.64885157921E+01  0.64885157921E+01  0.00000000000E+00 0.  1.
          1   -1    0    0  501    0  0.00000000000E+00 -0.00000000000E+00 -0.13775998335E+04  0.13775998335E+04  0.00000000000E+00 0. -1.
         24    1    1    2    0    0  0.12001454534E+02  0.26637729396E+02 -0.39114300196E+03  0.40039189237E+03  0.80419002446E+02 0.  1.
        -24    1    1    2    0    0 -0.12001454534E+02 -0.26637729396E+02 -0.97996831571E+03  0.98369645688E+03  0.80419002446E+02 0. -1.
<mgrwt>
<rscale>  0 0.85561788E+02</rscale>
<asrwt>0</asrwt>
<pdfrwt beam="1">  1        1 0.21193851E+00 0.85561788E+02</pdfrwt>
<pdfrwt beam="2">  1       -1 0.99823284E-03 0.85561788E+02</pdfrwt>
<totfact> 0.15232729E+04</totfact>
</mgrwt>
</event>
<event>
 4    1  0.5124795E-001  0.8363609E+02  0.7546771E-02  0.1319038E+00
         -2   -1    0    0    0  501 -0.00000000000E+00  0.00000000000E+00  0.75794531526E+01  0.75794531526E+01  0.00000000000E+00 0.  1.
          2   -1    0    0  501    0  0.00000000000E+00 -0.00000000000E+00 -0.16879858696E+04  0.16879858696E+04  0.00000000000E+00 0. -1.
         24    1    1    2    0    0 -0.51635422171E+01  0.22385633852E+02 -0.14109694911E+04  0.14134461078E+04  0.80419002446E+02 0. -1.
        -24    1    1    2    0    0  0.51635422171E+01 -0.22385633852E+02 -0.26943692527E+03  0.28211921491E+03  0.80419002446E+02 0.  1.
<mgrwt>
<rscale>  0 0.83636085E+02</rscale>
<asrwt>0</asrwt>
<pdfrwt beam="1">  1        2 0.25969031E+00 0.83636085E+02</pdfrwt>
<pdfrwt beam="2">  1       -2 0.11660689E-02 0.83636085E+02</pdfrwt>
<totfact> 0.17401462E+04</totfact>
</mgrwt>
</event>
<event>
 4    1  0.5124795E-001  0.8992174E+02  0.7546771E-02  0.1303041E+00
         -1   -1    0    0    0  501 -0.00000000000E+00  0.00000000000E+00  0.88869595334E+03  0.88869595334E+03  0.00000000000E+00 0.  1.
          1   -1    0    0  501    0  0.00000000000E+00 -0.00000000000E+00 -0.11056219581E+02  0.11056219581E+02  0.00000000000E+00 0. -1.
         24    1    1    2    0    0  0.97716786122E+01 -0.39028423576E+02  0.62811956601E+03  0.63452352888E+03  0.80419002446E+02 0.  1.
        -24    1    1    2    0    0 -0.97716786122E+01  0.39028423576E+02  0.24952016775E+03  0.26522864404E+03  0.80419002446E+02 0. -1.
<mgrwt>
<rscale>  0 0.89921741E+02</rscale>
<asrwt>0</asrwt>
<pdfrwt beam="1">  1        1 0.17009576E-02 0.89921741E+02</pdfrwt>
<pdfrwt beam="2">  1       -1 0.13672240E+00 0.89921741E+02</pdfrwt>
<totfact> 0.34079550E+03</totfact>
</mgrwt>
</event>
<event>
 4    1  0.5124795E-001  0.1174303E+03  0.7546771E-02  0.1247398E+00
          1   -1    0    0  501    0  0.00000000000E+00  0.00000000000E+00  0.20519777827E+04  0.20519777827E+04  0.00000000000E+00 0. -1.
         -1   -1    0    0    0  501 -0.00000000000E+00 -0.00000000000E+00 -0.68206675731E+01  0.68206675731E+01  0.00000000000E+00 0.  1.
         24    1    1    2    0    0  0.84763376055E+02  0.11739768909E+02  0.89769437759E+03  0.90534251176E+03  0.80419002446E+02 0.  1.
        -24    1    1    2    0    0 -0.84763376055E+02 -0.11739768909E+02  0.11474627375E+04  0.11534559385E+04  0.80419002446E+02 0. -1.
<mgrwt>
<rscale>  0 0.11743027E+03</rscale>
<asrwt>0</asrwt>
<pdfrwt beam="1">  1        1 0.31568840E+00 0.11743027E+03</pdfrwt>
<pdfrwt beam="2">  1       -1 0.10493351E-02 0.11743027E+03</pdfrwt>
<totfact> 0.53890194E+03</totfact>
</mgrwt>
</event>
<event>
 4    1  0.5124795E-001  0.8529112E+02  0.7546771E-02  0.1314673E+00
          2   -1    0    0  501    0  0.00000000000E+00  0.00000000000E+00  0.13289731111E+04  0.13289731111E+04  0.00000000000E+00 0. -1.
         -2   -1    0    0    0  501 -0.00000000000E+00 -0.00000000000E+00 -0.55067313846E+01  0.55067313846E+01  0.00000000000E+00 0.  1.
         24    1    1    2    0    0  0.28265182256E+02  0.29050348745E+01  0.71330687120E+03  0.71838796497E+03  0.80419002446E+02 0. -1.
        -24    1    1    2    0    0 -0.28265182256E+02 -0.29050348745E+01  0.61015950851E+03  0.61609187751E+03  0.80419002446E+02 0.  1.
<mgrwt>
<rscale>  0 0.85291123E+02</rscale>
<asrwt>0</asrwt>
<pdfrwt beam="1">  1        2 0.20445715E+00 0.85291123E+02</pdfrwt>
<pdfrwt beam="2">  1       -2 0.84719050E-03 0.85291123E+02</pdfrwt>
<totfact> 0.41716684E+04</totfact>
</mgrwt>
</event>
<event>
 4    1  0.5124795E-001  0.1042032E+03  0.7546771E-02  0.1271697E+00
          1   -1    0    0  501    0  0.00000000000E+00  0.00000000000E+00  0.11417346708E+03  0.11417346708E+03  0.00000000000E+00 0. -1.
         -1   -1    0    0    0  501 -0.00000000000E+00 -0.00000000000E+00 -0.98368919385E+02  0.98368919385E+02  0.00000000000E+00 0.  1.
         24    1    1    2    0    0 -0.36797753888E+02  0.55109217461E+02 -0.11459464333E+02  0.10483146387E+03  0.80419002446E+02 0.  1.
        -24    1    1    2    0    0  0.36797753888E+02 -0.55109217461E+02  0.27264012033E+02  0.10771092260E+03  0.80419002446E+02 0. -1.
<mgrwt>
<rscale>  0 0.10420325E+03</rscale>
<asrwt>0</asrwt>
<pdfrwt beam="1">  1        1 0.17565149E-01 0.10420325E+03</pdfrwt>
<pdfrwt beam="2">  1       -1 0.15133680E-01 0.10420325E+03</pdfrwt>
<totfact> 0.88401703E+03</totfact>
</mgrwt>
</event>
<event>
 4    1  0.5124795E-001  0.1131462E+03  0.7546771E-02  0.1254852E+00
         -2   -1    0    0    0  501 -0.00000000000E+00  0.00000000000E+00  0.13278525043E+03  0.13278525043E+03  0.00000000000E+00 0.  1.
          2   -1    0    0  501    0  0.00000000000E+00 -0.00000000000E+00 -0.99377826087E+02  0.99377826087E+02  0.00000000000E+00 0. -1.
         24    1    1    2    0    0 -0.45986477228E+02 -0.64962256414E+02  0.36757891892E+02  0.11896726195E+03  0.80419002446E+02 0.  1.
        -24    1    1    2    0    0  0.45986477228E+02  0.64962256414E+02 -0.33504675531E+01  0.11319581456E+03  0.80419002446E+02 0. -1.
<mgrwt>
<rscale>  0 0.11314623E+03</rscale>
<asrwt>0</asrwt>
<pdfrwt beam="1">  1        2 0.15288896E-01 0.11314625E+03</pdfrwt>
<pdfrwt beam="2">  1       -2 0.20428500E-01 0.11314625E+03</pdfrwt>
<totfact> 0.71964465E+03</totfact>
</mgrwt>
</event>
<event>
 4    1  0.5124795E-001  0.8715631E+02  0.7546771E-02  0.1309888E+00
         -2   -1    0    0    0  501 -0.00000000000E+00  0.00000000000E+00  0.36564415815E+01  0.36564415815E+01  0.00000000000E+00 0.  1.
          2   -1    0    0  501    0  0.00000000000E+00 -0.00000000000E+00 -0.25987510321E+04  0.25987510321E+04  0.00000000000E+00 0. -1.
         24    1    1    2    0    0 -0.30310722128E+02 -0.14500566612E+02 -0.18803082284E+04  0.18823270853E+04  0.80419002446E+02 0.  0.
        -24    1    1    2    0    0  0.30310722128E+02  0.14500566612E+02 -0.71478636214E+03  0.72008038841E+03  0.80419002446E+02 0.  0.
<mgrwt>
<rscale>  0 0.87156309E+02</rscale>
<asrwt>0</asrwt>
<pdfrwt beam="1">  1        2 0.39980677E+00 0.87156309E+02</pdfrwt>
<pdfrwt beam="2">  1       -2 0.56253099E-03 0.87156309E+02</pdfrwt>
<totfact> 0.16755312E+04</totfact>
</mgrwt>
</event>
<event>
 4    1  0.5124795E-001  0.8102505E+02  0.7546771E-02  0.1326167E+00
          2   -1    0    0  501    0  0.00000000000E+00  0.00000000000E+00  0.21229930841E+04  0.21229930841E+04  0.00000000000E+00 0. -1.
         -2   -1    0    0    0  501 -0.00000000000E+00 -0.00000000000E+00 -0.38392474257E+01  0.38392474257E+01  0.00000000000E+00 0.  1.
         24    1    1    2    0    0  0.97894487641E+01  0.14175475781E+01  0.15286146785E+04  0.15307605606E+04  0.80419002446E+02 0. -1.
        -24    1    1    2    0    0 -0.97894487641E+01 -0.14175475781E+01  0.59053915816E+03  0.59607177087E+03  0.80419002446E+02 0.  0.
<mgrwt>
<rscale>  0 0.81025050E+02</rscale>
<asrwt>0</asrwt>
<pdfrwt beam="1">  1        2 0.32661338E+00 0.81025050E+02</pdfrwt>
<pdfrwt beam="2">  1       -2 0.59065514E-03 0.81025050E+02</pdfrwt>
<totfact> 0.27410284E+04</totfact>
</mgrwt>
</event>
<event>
 4    1  0.5124795E-001  0.9710290E+02  0.7546771E-02  0.1286509E+00
          1   -1    0    0  501    0  0.00000000000E+00  0.00000000000E+00  0.13503571719E+03  0.13503571719E+03  0.00000000000E+00 0. -1.
         -1   -1    0    0    0  501 -0.00000000000E+00 -0.00000000000E+00 -0.70558255653E+02  0.70558255653E+02  0.00000000000E+00 0.  1.
         24    1    1    2    0    0  0.12677065208E+02 -0.52924898893E+02  0.42712788520E+02  0.10608181353E+03  0.80419002446E+02 0. -1.
        -24    1    1    2    0    0 -0.12677065208E+02  0.52924898893E+02  0.21764673021E+02  0.99512159313E+02  0.80419002446E+02 0.  1.
<mgrwt>
<rscale>  0 0.97102890E+02</rscale>
<asrwt>0</asrwt>
<pdfrwt beam="1">  1        1 0.20774726E-01 0.97102902E+02</pdfrwt>
<pdfrwt beam="2">  1       -1 0.10855116E-01 0.97102902E+02</pdfrwt>
<totfact> 0.11844840E+04</totfact>
</mgrwt>
</event>
<event>
 4    1  0.5124795E-001  0.9216073E+02  0.7546771E-02  0.1297702E+00
          2   -1    0    0  501    0  0.00000000000E+00  0.00000000000E+00  0.38242320214E+03  0.38242320214E+03  0.00000000000E+00 0. -1.
         -2   -1    0    0    0  501 -0.00000000000E+00 -0.00000000000E+00 -0.35508132361E+02  0.35508132361E+02  0.00000000000E+00 0.  1.
         24    1    1    2    0    0 -0.41658098764E+02 -0.17058341973E+02  0.30133887125E+03  0.31511698701E+03  0.80419002446E+02 0. -1.
        -24    1    1    2    0    0  0.41658098764E+02  0.17058341973E+02  0.45576198538E+02  0.10281434750E+03  0.80419002446E+02 0.  1.
<mgrwt>
<rscale>  0 0.92160730E+02</rscale>
<asrwt>0</asrwt>
<pdfrwt beam="1">  1        2 0.58834336E-01 0.92160730E+02</pdfrwt>
<pdfrwt beam="2">  1       -2 0.54627899E-02 0.92160730E+02</pdfrwt>
<totfact> 0.13095453E+04</totfact>
</mgrwt>
</event>
<event>
 4    1  0.5124795E-001  0.8821154E+02  0.7546771E-02  0.1307241E+00
         -1   -1    0    0    0  501 -0.00000000000E+00  0.00000000000E+00  0.29048786552E+02  0.29048786552E+02  0.00000000000E+00 0.  1.
          1   -1    0    0  501    0  0.00000000000E+00 -0.00000000000E+00 -0.90173877804E+03  0.90173877804E+03  0.00000000000E+00 0. -1.
         24    1    1    2    0    0  0.38368525989E+01  0.36046331642E+02 -0.46151383323E+02  0.99555138489E+02  0.80419002446E+02 0.  1.
        -24    1    1    2    0    0 -0.38368525989E+01 -0.36046331642E+02 -0.82653860816E+03  0.83123242610E+03  0.80419002446E+02 0. -1.
<mgrwt>
<rscale>  0 0.88211538E+02</rscale>
<asrwt>0</asrwt>
<pdfrwt beam="1">  1        1 0.13872903E+00 0.88211538E+02</pdfrwt>
<pdfrwt beam="2">  1       -1 0.44690444E-02 0.88211538E+02</pdfrwt>
<totfact> 0.38146132E+03</totfact>
</mgrwt>
</event>
<event>
 4    1  0.5124795E-001  0.9321387E+02  0.7546771E-02  0.1295250E+00
          2   -1    0    0  501    0  0.00000000000E+00  0.00000000000E+00  0.19020934553E+03  0.19020934553E+03  0.00000000000E+00 0. -1.
         -2   -1    0    0    0  501 -0.00000000000E+00 -0.00000000000E+00 -0.51701670807E+02  0.51701670807E+02  0.00000000000E+00 0.  1.
         24    1    1    2    0    0  0.10265922874E+02  0.46002403593E+02  0.11053195209E+03  0.14458955252E+03  0.80419002446E+02 0. -1.
        -24    1    1    2    0    0 -0.10265922874E+02 -0.46002403593E+02  0.27975722624E+02  0.97321463817E+02  0.80419002446E+02 0.  1.
<mgrwt>
<rscale>  0 0.93213874E+02</rscale>
<asrwt>0</asrwt>
<pdfrwt beam="1">  1        2 0.29262976E-01 0.93213874E+02</pdfrwt>
<pdfrwt beam="2">  1       -2 0.79541033E-02 0.93213874E+02</pdfrwt>
<totfact> 0.15506798E+04</totfact>
</mgrwt>
</event>
<event>
 4    1  0.5124795E-001  0.8861959E+02  0.7546771E-02  0.1306229E+00
         -2   -1    0    0    0  501 -0.00000000000E+00  0.00000000000E+00  0.24090367629E+02  0.24090367629E+02  0.00000000000E+00 0.  1.
          2   -1    0    0  501    0  0.00000000000E+00 -0.00000000000E+00 -0.38283591999E+03  0.38283591999E+03  0.00000000000E+00 0. -1.
         24    1    1    2    0    0  0.36740957967E+02  0.60264862807E+01 -0.25776900970E+03  0.27257713558E+03  0.80419002446E+02 0. -1.
        -24    1    1    2    0    0 -0.36740957967E+02 -0.60264862807E+01 -0.10097654266E+03  0.13434915203E+03  0.80419002446E+02 0.  1.
<mgrwt>
<rscale>  0 0.88619594E+02</rscale>
<asrwt>0</asrwt>
<pdfrwt beam="1">  1        2 0.58897832E-01 0.88619594E+02</pdfrwt>
<pdfrwt beam="2">  1       -2 0.37062105E-02 0.88619594E+02</pdfrwt>
<totfact> 0.23119342E+04</totfact>
</mgrwt>
</event>
<event>
 4    1  0.5124795E-001  0.9534164E+02  0.7546771E-02  0.1290408E+00
         -1   -1    0    0    0  501 -0.00000000000E+00  0.00000000000E+00  0.55016266168E+02  0.55016266168E+02  0.00000000000E+00 0.  1.
          1   -1    0    0  501    0  0.00000000000E+00 -0.00000000000E+00 -0.26274994299E+04  0.26274994299E+04  0.00000000000E+00 0. -1.
         24    1    1    2    0    0 -0.17369761522E+02 -0.48177841116E+02  0.12160617175E+02  0.96114044522E+02  0.80419002446E+02 0.  1.
        -24    1    1    2    0    0  0.17369761522E+02  0.48177841116E+02 -0.25846437809E+04  0.25864016515E+04  0.80419002446E+02 0. -1.
<mgrwt>
<rscale>  0 0.95341643E+02</rscale>
<asrwt>0</asrwt>
<pdfrwt beam="1">  1        1 0.40423069E+00 0.95341643E+02</pdfrwt>
<pdfrwt beam="2">  1       -1 0.84640409E-02 0.95341643E+02</pdfrwt>
<totfact> 0.11218849E+02</totfact>
</mgrwt>
</event>
<event>
 4    1  0.5124795E-001  0.1235427E+03  0.7546771E-02  0.1237364E+00
         -2   -1    0    0    0  501 -0.00000000000E+00  0.00000000000E+00  0.50224190541E+03  0.50224190541E+03  0.00000000000E+00 0.  1.
          2   -1    0    0  501    0  0.00000000000E+00 -0.00000000000E+00 -0.36017471605E+02  0.36017471605E+02  0.00000000000E+00 0. -1.
         24    1    1    2    0    0  0.90011469077E+02  0.26334961606E+02  0.12672577164E+03  0.17698088010E+03  0.80419002446E+02 0.  0.
        -24    1    1    2    0    0 -0.90011469077E+02 -0.26334961606E+02  0.33949866217E+03  0.36127849692E+03  0.80419002446E+02 0.  1.
<mgrwt>
<rscale>  0 0.12354275E+03</rscale>
<asrwt>0</asrwt>
<pdfrwt beam="1">  1        2 0.55411498E-02 0.12354275E+03</pdfrwt>
<pdfrwt beam="2">  1       -2 0.77267980E-01 0.12354275E+03</pdfrwt>
<totfact> 0.20174655E+03</totfact>
</mgrwt>
</event>
<event>
 4    1  0.5124795E-001  0.1166880E+03  0.7546771E-02  0.1248663E+00
         -1   -1    0    0    0  501 -0.00000000000E+00  0.00000000000E+00  0.70696605525E+02  0.70696605525E+02  0.00000000000E+00 0.  1.
          1   -1    0    0  501    0  0.00000000000E+00 -0.00000000000E+00 -0.38725470129E+03  0.38725470129E+03  0.00000000000E+00 0. -1.
         24    1    1    2    0    0 -0.34285768339E+02  0.77287447560E+02  0.40606659221E+01  0.11675859036E+03  0.80419002446E+02 0.  1.
        -24    1    1    2    0    0  0.34285768339E+02 -0.77287447560E+02 -0.32061876168E+03  0.34119271645E+03  0.80419002446E+02 0. -1.
<mgrwt>
<rscale>  0 0.11668796E+03</rscale>
<asrwt>0</asrwt>
<pdfrwt beam="1">  1        1 0.59577648E-01 0.11668796E+03</pdfrwt>
<pdfrwt beam="2">  1       -1 0.10876401E-01 0.11668796E+03</pdfrwt>
<totfact> 0.32525165E+03</totfact>
</mgrwt>
</event>
<event>
 4    1  0.5124795E-001  0.9386772E+02  0.7546771E-02  0.1293747E+00
         -2   -1    0    0    0  501 -0.00000000000E+00  0.00000000000E+00  0.24155783485E+02  0.24155783485E+02  0.00000000000E+00 0.  1.
          2   -1    0    0  501    0  0.00000000000E+00 -0.00000000000E+00 -0.36629985294E+03  0.36629985294E+03  0.00000000000E+00 0. -1.
         24    1    1    2    0    0  0.45874245437E+02  0.15475326150E+02 -0.18371558918E+03  0.20630696977E+03  0.80419002446E+02 0. -1.
        -24    1    1    2    0    0 -0.45874245437E+02 -0.15475326150E+02 -0.15842848028E+03  0.18414866666E+03  0.80419002446E+02 0.  1.
<mgrwt>
<rscale>  0 0.93867716E+02</rscale>
<asrwt>0</asrwt>
<pdfrwt beam="1">  1        2 0.56353822E-01 0.93867716E+02</pdfrwt>
<pdfrwt beam="2">  1       -2 0.37162745E-02 0.93867716E+02</pdfrwt>
<totfact> 0.24268988E+04</totfact>
</mgrwt>
</event>
<event>
 4    1  0.5124795E-001  0.8897853E+02  0.7546771E-02  0.1305344E+00
         -3   -1    0    0    0  501 -0.00000000000E+00  0.00000000000E+00  0.22432162694E+02  0.22432162694E+02  0.00000000000E+00 0.  1.
          3   -1    0    0  501    0  0.00000000000E+00 -0.00000000000E+00 -0.37024884906E+03  0.37024884906E+03  0.00000000000E+00 0. -1.
         24    1    1    2    0    0 -0.21391071699E+02  0.31502148537E+02 -0.13145489866E+03  0.15873742359E+03  0.80419002446E+02 0.  1.
        -24    1    1    2    0    0  0.21391071699E+02 -0.31502148537E+02 -0.21636178771E+03  0.23394358817E+03  0.80419002446E+02 0. -1.
<mgrwt>
<rscale>  0 0.88978533E+02</rscale>
<asrwt>0</asrwt>
<pdfrwt beam="1">  1        3 0.56961361E-01 0.88978533E+02</pdfrwt>
<pdfrwt beam="2">  1       -3 0.34511020E-02 0.88978533E+02</pdfrwt>
<totfact> 0.26446455E+03</totfact>
</mgrwt>
</event>
<event>
 4    1  0.5124795E-001  0.9884294E+02  0.7546771E-02  0.1282748E+00
         -2   -1    0    0    0  501 -0.00000000000E+00  0.00000000000E+00  0.10633431275E+03  0.10633431275E+03  0.00000000000E+00 0.  1.
          2   -1    0    0  501    0  0.00000000000E+00 -0.00000000000E+00 -0.96720949758E+02  0.96720949758E+02  0.00000000000E+00 0. -1.
         24    1    1    2    0    0 -0.51103532937E+02  0.26289442721E+02  0.27522104409E+02  0.10260306069E+03  0.80419002446E+02 0.  0.
        -24    1    1    2    0    0  0.51103532937E+02 -0.26289442721E+02 -0.17908741416E+02  0.10045220182E+03  0.80419002446E+02 0.  0.
<mgrwt>
<rscale>  0 0.98842927E+02</rscale>
<asrwt>0</asrwt>
<pdfrwt beam="1">  1        2 0.14880146E-01 0.98842940E+02</pdfrwt>
<pdfrwt beam="2">  1       -2 0.16359125E-01 0.98842940E+02</pdfrwt>
<totfact> 0.10619525E+04</totfact>
</mgrwt>
</event>
<event>
 4    1  0.5124795E-001  0.1488502E+03  0.7546771E-02  0.1201893E+00
          1   -1    0    0  501    0  0.00000000000E+00  0.00000000000E+00  0.24271981947E+02  0.24271981947E+02  0.00000000000E+00 0. -1.
         -1   -1    0    0    0  501 -0.00000000000E+00 -0.00000000000E+00 -0.99375587002E+03  0.99375587002E+03  0.00000000000E+00 0.  1.
         24    1    1    2    0    0  0.10198552125E+03  0.72719390536E+02 -0.62999113171E+03  0.64733700519E+03  0.80419002446E+02 0.  1.
        -24    1    1    2    0    0 -0.10198552125E+03 -0.72719390536E+02 -0.33949275636E+03  0.37069084677E+03  0.80419002446E+02 0. -1.
<mgrwt>
<rscale>  0 0.14885017E+03</rscale>
<asrwt>0</asrwt>
<pdfrwt beam="1">  1        1 0.37341508E-02 0.14885017E+03</pdfrwt>
<pdfrwt beam="2">  1       -1 0.15288553E+00 0.14885017E+03</pdfrwt>
<totfact> 0.88826262E+02</totfact>
</mgrwt>
</event>
<event>
 4    1  0.5124795E-001  0.8206728E+02  0.7546771E-02  0.1323285E+00
          1   -1    0    0  501    0  0.00000000000E+00  0.00000000000E+00  0.13684293721E+03  0.13684293721E+03  0.00000000000E+00 0. -1.
         -1   -1    0    0    0  501 -0.00000000000E+00 -0.00000000000E+00 -0.92266116612E+02  0.92266116612E+02  0.00000000000E+00 0.  1.
         24    1    1    2    0    0 -0.16214415543E+02 -0.22170884766E+01 -0.55959326951E+02  0.99330181616E+02  0.80419002446E+02 0.  1.
        -24    1    1    2    0    0  0.16214415543E+02  0.22170884766E+01  0.10053614755E+03  0.12977887221E+03  0.80419002446E+02 0.  0.
<mgrwt>
<rscale>  0 0.82067282E+02</rscale>
<asrwt>0</asrwt>
<pdfrwt beam="1">  1        1 0.21052760E-01 0.82067282E+02</pdfrwt>
<pdfrwt beam="2">  1       -1 0.14194787E-01 0.82067282E+02</pdfrwt>
<totfact> 0.76116278E+03</totfact>
</mgrwt>
</event>
<event>
 4    1  0.5124795E-001  0.8524730E+02  0.7546771E-02  0.1314787E+00
         -2   -1    0    0    0  501 -0.00000000000E+00  0.00000000000E+00  0.14502784956E+02  0.14502784956E+02  0.00000000000E+00 0.  1.
          2   -1    0    0  501    0  0.00000000000E+00 -0.00000000000E+00 -0.61597548363E+03  0.61597548363E+03  0.00000000000E+00 0. -1.
         24    1    1    2    0    0 -0.21992230264E+02  0.17782795682E+02 -0.43688201942E+03  0.44512133274E+03  0.80419002446E+02 0.  0.
        -24    1    1    2    0    0  0.21992230264E+02 -0.17782795682E+02 -0.16459067926E+03  0.18535693585E+03  0.80419002446E+02 0.  0.
<mgrwt>
<rscale>  0 0.85247299E+02</rscale>
<asrwt>0</asrwt>
<pdfrwt beam="1">  1        2 0.94765456E-01 0.85247299E+02</pdfrwt>
<pdfrwt beam="2">  1       -2 0.22311978E-02 0.85247299E+02</pdfrwt>
<totfact> 0.28787896E+04</totfact>
</mgrwt>
</event>
<event>
 4    1  0.5124795E-001  0.9078125E+02  0.7546771E-02  0.1300971E+00
         -2   -1    0    0    0  501 -0.00000000000E+00  0.00000000000E+00  0.64726627625E+01  0.64726627625E+01  0.00000000000E+00 0.  1.
          2   -1    0    0  501    0  0.00000000000E+00 -0.00000000000E+00 -0.19576828879E+04  0.19576828879E+04  0.00000000000E+00 0. -1.
         24    1    1    2    0    0  0.39151721565E+02 -0.15529403276E+02 -0.15562948845E+04  0.15589403462E+04  0.80419002446E+02 0. -1.
        -24    1    1    2    0    0 -0.39151721565E+02  0.15529403276E+02 -0.39491534062E+03  0.40521520441E+03  0.80419002446E+02 0.  1.
<mgrwt>
<rscale>  0 0.90781251E+02</rscale>
<asrwt>0</asrwt>
<pdfrwt beam="1">  1        2 0.30118217E+00 0.90781251E+02</pdfrwt>
<pdfrwt beam="2">  1       -2 0.99579366E-03 0.90781251E+02</pdfrwt>
<totfact> 0.16022793E+04</totfact>
</mgrwt>
</event>
<event>
 4    1  0.5124795E-001  0.1145469E+03  0.7546771E-02  0.1252374E+00
          3   -1    0    0  501    0  0.00000000000E+00  0.00000000000E+00  0.16042801725E+03  0.16042801725E+03  0.00000000000E+00 0. -1.
         -3   -1    0    0    0  501 -0.00000000000E+00 -0.00000000000E+00 -0.85764666146E+02  0.85764666146E+02  0.00000000000E+00 0.  1.
         24    1    1    2    0    0  0.37375306267E+02  0.72504254740E+02  0.63839935875E+02  0.13113555521E+03  0.80419002446E+02 0. -1.
        -24    1    1    2    0    0 -0.37375306267E+02 -0.72504254740E+02  0.10823415227E+02  0.11505712818E+03  0.80419002446E+02 0.  1.
<mgrwt>
<rscale>  0 0.11454693E+03</rscale>
<asrwt>0</asrwt>
<pdfrwt beam="1">  1        3 0.24681233E-01 0.11454695E+03</pdfrwt>
<pdfrwt beam="2">  1       -3 0.13194564E-01 0.11454695E+03</pdfrwt>
<totfact> 0.15857991E+03</totfact>
</mgrwt>
</event>
<event>
 4    1  0.5124795E-001  0.8429879E+02  0.7546771E-02  0.1317277E+00
          2   -1    0    0  501    0  0.00000000000E+00  0.00000000000E+00  0.32703235994E+03  0.32703235994E+03  0.00000000000E+00 0. -1.
         -2   -1    0    0    0  501 -0.00000000000E+00 -0.00000000000E+00 -0.42970889144E+02  0.42970889144E+02  0.00000000000E+00 0.  1.
         24    1    1    2    0    0 -0.24421699320E+02 -0.65307596040E+01  0.27210119908E+03  0.28486022663E+03  0.80419002446E+02 0.  0.
        -24    1    1    2    0    0  0.24421699320E+02  0.65307596040E+01  0.11960271712E+02  0.85143022453E+02  0.80419002446E+02 0.  0.
<mgrwt>
<rscale>  0 0.84298791E+02</rscale>
<asrwt>0</asrwt>
<pdfrwt beam="1">  1        2 0.50312669E-01 0.84298791E+02</pdfrwt>
<pdfrwt beam="2">  1       -2 0.66109062E-02 0.84298791E+02</pdfrwt>
<totfact> 0.11493746E+04</totfact>
</mgrwt>
</event>
<event>
 4    1  0.5124795E-001  0.1071945E+03  0.7546771E-02  0.1265855E+00
         -2   -1    0    0    0  501 -0.00000000000E+00  0.00000000000E+00  0.15405857164E+02  0.15405857164E+02  0.00000000000E+00 0.  1.
          2   -1    0    0  501    0  0.00000000000E+00 -0.00000000000E+00 -0.11279206755E+04  0.11279206755E+04  0.00000000000E+00 0. -1.
         24    1    1    2    0    0  0.46372855005E+01 -0.70724357291E+02 -0.88896722256E+03  0.89540682255E+03  0.80419002446E+02 0. -1.
        -24    1    1    2    0    0 -0.46372855005E+01  0.70724357291E+02 -0.22354759579E+03  0.24791971012E+03  0.80419002446E+02 0.  1.
<mgrwt>
<rscale>  0 0.10719447E+03</rscale>
<asrwt>0</asrwt>
<pdfrwt beam="1">  1        2 0.17352622E+00 0.10719447E+03</pdfrwt>
<pdfrwt beam="2">  1       -2 0.23701324E-02 0.10719447E+03</pdfrwt>
<totfact> 0.12565661E+04</totfact>
</mgrwt>
</event>
<event>
 4    1  0.5124795E-001  0.8378184E+02  0.7546771E-02  0.1318649E+00
          1   -1    0    0  501    0  0.00000000000E+00  0.00000000000E+00  0.29697319638E+03  0.29697319638E+03  0.00000000000E+00 0. -1.
         -1   -1    0    0    0  501 -0.00000000000E+00 -0.00000000000E+00 -0.24249289990E+02  0.24249289990E+02  0.00000000000E+00 0.  1.
         24    1    1    2    0    0  0.18780141044E+02  0.14123975979E+02  0.11082936048E+03  0.13893359383E+03  0.80419002446E+02 0.  1.
        -24    1    1    2    0    0 -0.18780141044E+02 -0.14123975979E+02  0.16189454591E+03  0.18228889255E+03  0.80419002446E+02 0. -1.
<mgrwt>
<rscale>  0 0.83781838E+02</rscale>
<asrwt>0</asrwt>
<pdfrwt beam="1">  1        1 0.45688181E-01 0.83781838E+02</pdfrwt>
<pdfrwt beam="2">  1       -1 0.37306602E-02 0.83781838E+02</pdfrwt>
<totfact> 0.21470746E+04</totfact>
</mgrwt>
</event>
<event>
 4    1  0.5124795E-001  0.1297675E+03  0.7546771E-02  0.1227801E+00
          2   -1    0    0  501    0  0.00000000000E+00  0.00000000000E+00  0.57505021301E+03  0.57505021301E+03  0.00000000000E+00 0. -1.
         -2   -1    0    0    0  501 -0.00000000000E+00 -0.00000000000E+00 -0.30986066076E+02  0.30986066076E+02  0.00000000000E+00 0.  1.
         24    1    1    2    0    0 -0.73734174052E+02 -0.70254240467E+02  0.34305700582E+03  0.36678019566E+03  0.80419002446E+02 0.  1.
        -24    1    1    2    0    0  0.73734174052E+02  0.70254240467E+02  0.20100714112E+03  0.23925608343E+03  0.80419002446E+02 0. -1.
<mgrwt>
<rscale>  0 0.12976749E+03</rscale>
<asrwt>0</asrwt>
<pdfrwt beam="1">  1        2 0.88469255E-01 0.12976749E+03</pdfrwt>
<pdfrwt beam="2">  1       -2 0.47670875E-02 0.12976749E+03</pdfrwt>
<totfact> 0.10612390E+04</totfact>
</mgrwt>
</event>
<event>
 4    1  0.5124795E-001  0.8067600E+02  0.7546771E-02  0.1327144E+00
          1   -1    0    0  501    0  0.00000000000E+00  0.00000000000E+00  0.32742512874E+03  0.32742512874E+03  0.00000000000E+00 0. -1.
         -1   -1    0    0    0  501 -0.00000000000E+00 -0.00000000000E+00 -0.33165154748E+03  0.33165154748E+03  0.00000000000E+00 0.  1.
         24    1    1    2    0    0  0.14001804442E+01  0.62801387833E+01 -0.32162319674E+03  0.33158723932E+03  0.80419002446E+02 0.  1.
        -24    1    1    2    0    0 -0.14001804442E+01 -0.62801387833E+01  0.31739677799E+03  0.32748943690E+03  0.80419002446E+02 0. -1.
<mgrwt>
<rscale>  0 0.80675998E+02</rscale>
<asrwt>0</asrwt>
<pdfrwt beam="1">  1        1 0.50373097E-01 0.80675998E+02</pdfrwt>
<pdfrwt beam="2">  1       -1 0.51023315E-01 0.80675998E+02</pdfrwt>
<totfact> 0.31768822E+02</totfact>
</mgrwt>
</event>
<event>
 4    1  0.5124795E-001  0.8767588E+02  0.7546771E-02  0.1308580E+00
          2   -1    0    0  501    0  0.00000000000E+00  0.00000000000E+00  0.14930213787E+04  0.14930213787E+04  0.00000000000E+00 0. -1.
         -2   -1    0    0    0  501 -0.00000000000E+00 -0.00000000000E+00 -0.12848764063E+02  0.12848764063E+02  0.00000000000E+00 0.  1.
         24    1    1    2    0    0 -0.18951384012E+01 -0.34874819738E+02  0.13229609015E+04  0.13258629671E+04  0.80419002446E+02 0. -1.
        -24    1    1    2    0    0  0.18951384012E+01  0.34874819738E+02  0.15721171321E+03  0.18000717576E+03  0.80419002446E+02 0.  1.
<mgrwt>
<rscale>  0 0.87675884E+02</rscale>
<asrwt>0</asrwt>
<pdfrwt beam="1">  1        2 0.22969546E+00 0.87675884E+02</pdfrwt>
<pdfrwt beam="2">  1       -2 0.19767341E-02 0.87675884E+02</pdfrwt>
<totfact> 0.10320622E+04</totfact>
</mgrwt>
</event>
<event>
 4    1  0.5124795E-001  0.1316780E+03  0.7546771E-02  0.1224987E+00
         -2   -1    0    0    0  501 -0.00000000000E+00  0.00000000000E+00  0.77256233400E+01  0.77256233400E+01  0.00000000000E+00 0.  1.
          2   -1    0    0  501    0  0.00000000000E+00 -0.00000000000E+00 -0.23034134836E+04  0.23034134836E+04  0.00000000000E+00 0. -1.
         24    1    1    2    0    0 -0.10365602273E+03  0.11283300175E+02 -0.13328659610E+04  0.13393546094E+04  0.80419002446E+02 0. -1.
        -24    1    1    2    0    0  0.10365602273E+03 -0.11283300175E+02 -0.96282189924E+03  0.97178449747E+03  0.80419002446E+02 0.  1.
<mgrwt>
<rscale>  0 0.13167802E+03</rscale>
<asrwt>0</asrwt>
<pdfrwt beam="1">  1        2 0.35437113E+00 0.13167802E+03</pdfrwt>
<pdfrwt beam="2">  1       -2 0.11885580E-02 0.13167802E+03</pdfrwt>
<totfact> 0.84075267E+03</totfact>
</mgrwt>
</event>
<event>
 4    1  0.5124795E-001  0.8180856E+02  0.7546771E-02  0.1323996E+00
          4   -1    0    0  501    0  0.00000000000E+00  0.00000000000E+00  0.75091438492E+01  0.75091438492E+01  0.00000000000E+00 0. -1.
         -4   -1    0    0    0  501 -0.00000000000E+00 -0.00000000000E+00 -0.89220820653E+03  0.89220820653E+03  0.00000000000E+00 0.  1.
         24    1    1    2    0    0  0.13747339451E+02  0.60361377905E+01 -0.42772609641E+03  0.43547933798E+03  0.80419002446E+02 0.  0.
        -24    1    1    2    0    0 -0.13747339451E+02 -0.60361377905E+01 -0.45697296627E+03  0.46423801240E+03  0.80419002446E+02 0. -1.
<mgrwt>
<rscale>  0 0.81808559E+02</rscale>
<asrwt>0</asrwt>
<pdfrwt beam="1">  1        4 0.11552539E-02 0.81808559E+02</pdfrwt>
<pdfrwt beam="2">  1       -4 0.13726268E+00 0.81808559E+02</pdfrwt>
<totfact> 0.13815665E+03</totfact>
</mgrwt>
</event>
<event>
 4    1  0.5124795E-001  0.8953529E+02  0.7546771E-02  0.1303981E+00
         -1   -1    0    0    0  501 -0.00000000000E+00  0.00000000000E+00  0.44193505453E+02  0.44193505453E+02  0.00000000000E+00 0.  1.
          1   -1    0    0  501    0  0.00000000000E+00 -0.00000000000E+00 -0.27975689463E+03  0.27975689463E+03  0.00000000000E+00 0. -1.
         24    1    1    2    0    0 -0.23087869552E+02 -0.31879487185E+02 -0.21738355716E+02  0.92136439519E+02  0.80419002446E+02 0.  1.
        -24    1    1    2    0    0  0.23087869552E+02  0.31879487185E+02 -0.21382503346E+03  0.23181396057E+03  0.80419002446E+02 0. -1.
<mgrwt>
<rscale>  0 0.89535286E+02</rscale>
<asrwt>0</asrwt>
<pdfrwt beam="1">  1        1 0.43039522E-01 0.89535286E+02</pdfrwt>
<pdfrwt beam="2">  1       -1 0.67990008E-02 0.89535286E+02</pdfrwt>
<totfact> 0.96650318E+03</totfact>
</mgrwt>
</event>
<event>
 4    1  0.5124795E-001  0.8430112E+02  0.7546771E-02  0.1317270E+00
         -2   -1    0    0    0  501 -0.00000000000E+00  0.00000000000E+00  0.12064034368E+03  0.12064034368E+03  0.00000000000E+00 0.  1.
          2   -1    0    0  501    0  0.00000000000E+00 -0.00000000000E+00 -0.16452560958E+03  0.16452560958E+03  0.00000000000E+00 0. -1.
         24    1    1    2    0    0 -0.11334587233E+02 -0.22605073832E+02 -0.13618288271E+03  0.16016384026E+03  0.80419002446E+02 0. -1.
        -24    1    1    2    0    0  0.11334587233E+02  0.22605073832E+02  0.92297616811E+02  0.12500211300E+03  0.80419002446E+02 0.  1.
<mgrwt>
<rscale>  0 0.84301116E+02</rscale>
<asrwt>0</asrwt>
<pdfrwt beam="1">  1        2 0.25311632E-01 0.84301116E+02</pdfrwt>
<pdfrwt beam="2">  1       -2 0.18560053E-01 0.84301116E+02</pdfrwt>
<totfact> 0.46913569E+03</totfact>
</mgrwt>
</event>
<event>
 4    1  0.5124795E-001  0.8918127E+02  0.7546771E-02  0.1304847E+00
         -2   -1    0    0    0  501 -0.00000000000E+00  0.00000000000E+00  0.16347355051E+02  0.16347355051E+02  0.00000000000E+00 0.  1.
          2   -1    0    0  501    0  0.00000000000E+00 -0.00000000000E+00 -0.48740676294E+03  0.48740676294E+03  0.00000000000E+00 0. -1.
         24    1    1    2    0    0  0.78680259785E+01 -0.37738278032E+02 -0.24627906387E+03  0.26192876268E+03  0.80419002446E+02 0. -1.
        -24    1    1    2    0    0 -0.78680259785E+01  0.37738278032E+02 -0.22478034401E+03  0.24182535531E+03  0.80419002446E+02 0.  0.
<mgrwt>
<rscale>  0 0.89181273E+02</rscale>
<asrwt>0</asrwt>
<pdfrwt beam="1">  1        2 0.74985658E-01 0.89181273E+02</pdfrwt>
<pdfrwt beam="2">  1       -2 0.25149776E-02 0.89181273E+02</pdfrwt>
<totfact> 0.31475494E+04</totfact>
</mgrwt>
</event>
<event>
 4    1  0.5124795E-001  0.8774177E+02  0.7546771E-02  0.1308414E+00
          2   -1    0    0  501    0  0.00000000000E+00  0.00000000000E+00  0.11868885596E+03  0.11868885596E+03  0.00000000000E+00 0. -1.
         -2   -1    0    0    0  501 -0.00000000000E+00 -0.00000000000E+00 -0.66258335994E+02  0.66258335994E+02  0.00000000000E+00 0.  1.
         24    1    1    2    0    0  0.33331229496E+02 -0.10974153526E+02  0.39630579045E+02  0.96276693208E+02  0.80419002446E+02 0. -1.
        -24    1    1    2    0    0 -0.33331229496E+02  0.10974153526E+02  0.12799940918E+02  0.88670498742E+02  0.80419002446E+02 0.  1.
<mgrwt>
<rscale>  0 0.87741774E+02</rscale>
<asrwt>0</asrwt>
<pdfrwt beam="1">  1        2 0.18259824E-01 0.87741774E+02</pdfrwt>
<pdfrwt beam="2">  1       -2 0.10193590E-01 0.87741774E+02</pdfrwt>
<totfact> 0.17648197E+04</totfact>
</mgrwt>
</event>
<event>
 4    1  0.5124795E-001  0.1020688E+03  0.7546771E-02  0.1276005E+00
          1   -1    0    0  501    0  0.00000000000E+00  0.00000000000E+00  0.25828811751E+03  0.25828811751E+03  0.00000000000E+00 0. -1.
         -1   -1    0    0    0  501 -0.00000000000E+00 -0.00000000000E+00 -0.58540619761E+02  0.58540619761E+02  0.00000000000E+00 0.  1.
         24    1    1    2    0    0 -0.38553325943E+02 -0.49643293002E+02  0.18821622349E+03  0.21411066816E+03  0.80419002446E+02 0.  1.
        -24    1    1    2    0    0  0.38553325943E+02  0.49643293002E+02  0.11531274260E+02  0.10271806911E+03  0.80419002446E+02 0.  0.
<mgrwt>
<rscale>  0 0.10206877E+03</rscale>
<asrwt>0</asrwt>
<pdfrwt beam="1">  1        1 0.39736633E-01 0.10206878E+03</pdfrwt>
<pdfrwt beam="2">  1       -1 0.90062494E-02 0.10206878E+03</pdfrwt>
<totfact> 0.70768995E+03</totfact>
</mgrwt>
</event>
<event>
 4    1  0.5124795E-001  0.2995080E+03  0.7546771E-02  0.1085487E+00
          2   -1    0    0  501    0  0.00000000000E+00  0.00000000000E+00  0.24125645463E+03  0.24125645463E+03  0.00000000000E+00 0. -1.
         -2   -1    0    0    0  501 -0.00000000000E+00 -0.00000000000E+00 -0.12417639813E+04  0.12417639813E+04  0.00000000000E+00 0.  1.
         24    1    1    2    0    0  0.27903654239E+03 -0.73324077536E+02  0.12038967008E+03  0.32279823567E+03  0.80419002446E+02 0. -1.
        -24    1    1    2    0    0 -0.27903654239E+03  0.73324077536E+02 -0.11208971967E+04  0.11602222002E+04  0.80419002446E+02 0.  1.
<mgrwt>
<rscale>  0 0.29950798E+03</rscale>
<asrwt>0</asrwt>
<pdfrwt beam="1">  1        2 0.37116378E-01 0.29950798E+03</pdfrwt>
<pdfrwt beam="2">  1       -2 0.19104061E+00 0.29950798E+03</pdfrwt>
<totfact> 0.22872637E+01</totfact>
</mgrwt>
</event>
<event>
 4    1  0.5124795E-001  0.8547494E+02  0.7546771E-02  0.1314195E+00
          1   -1    0    0  501    0  0.00000000000E+00  0.00000000000E+00  0.38934668599E+02  0.38934668599E+02  0.00000000000E+00 0. -1.
         -1   -1    0    0    0  501 -0.00000000000E+00 -0.00000000000E+00 -0.34354552831E+03  0.34354552831E+03  0.00000000000E+00 0.  1.
         24    1    1    2    0    0  0.28310509147E+02 -0.61044712022E+01 -0.28113279176E+03  0.29383943244E+03  0.80419002446E+02 0.  1.
        -24    1    1    2    0    0 -0.28310509147E+02  0.61044712022E+01 -0.23478067947E+02  0.88640764469E+02  0.80419002446E+02 0. -1.
<mgrwt>
<rscale>  0 0.85474940E+02</rscale>
<asrwt>0</asrwt>
<pdfrwt beam="1">  1        1 0.59899494E-02 0.85474940E+02</pdfrwt>
<pdfrwt beam="2">  1       -1 0.52853155E-01 0.85474940E+02</pdfrwt>
<totfact> 0.44333380E+03</totfact>
</mgrwt>
</event>
<event>
 4    1  0.5124795E-001  0.1239429E+03  0.7546771E-02  0.1236731E+00
          2   -1    0    0  501    0  0.00000000000E+00  0.00000000000E+00  0.99568005914E+02  0.99568005914E+02  0.00000000000E+00 0. -1.
         -2   -1    0    0    0  501 -0.00000000000E+00 -0.00000000000E+00 -0.15708519279E+04  0.15708519279E+04  0.00000000000E+00 0.  1.
         24    1    1    2    0    0  0.78690731548E+02  0.51984604000E+02  0.57492094965E+02  0.13662791524E+03  0.80419002446E+02 0. -1.
        -24    1    1    2    0    0 -0.78690731548E+02 -0.51984604000E+02 -0.15287760170E+04  0.15337920186E+04  0.80419002446E+02 0.  1.
<mgrwt>
<rscale>  0 0.12394292E+03</rscale>
<asrwt>0</asrwt>
<pdfrwt beam="1">  1        2 0.15318156E-01 0.12394292E+03</pdfrwt>
<pdfrwt beam="2">  1       -2 0.24166952E+00 0.12394292E+03</pdfrwt>
<totfact> 0.31710569E+01</totfact>
</mgrwt>
</event>
<event>
 4    1  0.5124795E-001  0.9132458E+02  0.7546771E-02  0.1299675E+00
         -2   -1    0    0    0  501 -0.00000000000E+00  0.00000000000E+00  0.78325980561E+01  0.78325980561E+01  0.00000000000E+00 0.  1.
          2   -1    0    0  501    0  0.00000000000E+00 -0.00000000000E+00 -0.26366975359E+04  0.26366975359E+04  0.00000000000E+00 0. -1.
         24    1    1    2    0    0 -0.12552096851E+02  0.41417472793E+02 -0.23353719414E+04  0.23371568802E+04  0.80419002446E+02 0. -1.
        -24    1    1    2    0    0  0.12552096851E+02 -0.41417472793E+02 -0.29349299643E+03  0.30737325371E+03  0.80419002446E+02 0.  1.
<mgrwt>
<rscale>  0 0.91324576E+02</rscale>
<asrwt>0</asrwt>
<pdfrwt beam="1">  1        2 0.40564613E+00 0.91324576E+02</pdfrwt>
<pdfrwt beam="2">  1       -2 0.12050140E-02 0.91324576E+02</pdfrwt>
<totfact> 0.54670796E+03</totfact>
</mgrwt>
</event>
<event>
 4    1  0.5124795E-001  0.8525162E+02  0.7546771E-02  0.1314776E+00
         -2   -1    0    0    0  501 -0.00000000000E+00  0.00000000000E+00  0.42206368250E+02  0.42206368250E+02  0.00000000000E+00 0.  1.
          2   -1    0    0  501    0  0.00000000000E+00 -0.00000000000E+00 -0.23352226684E+03  0.23352226684E+03  0.00000000000E+00 0. -1.
         24    1    1    2    0    0 -0.23502590901E+02  0.15755963774E+02 -0.16630679807E+03  0.18688442742E+03  0.80419002446E+02 0.  0.
        -24    1    1    2    0    0  0.23502590901E+02 -0.15755963774E+02 -0.25009100522E+02  0.88844207672E+02  0.80419002446E+02 0.  0.
<mgrwt>
<rscale>  0 0.85251617E+02</rscale>
<asrwt>0</asrwt>
<pdfrwt beam="1">  1        2 0.35926502E-01 0.85251617E+02</pdfrwt>
<pdfrwt beam="2">  1       -2 0.64932875E-02 0.85251617E+02</pdfrwt>
<totfact> 0.16808316E+04</totfact>
</mgrwt>
</event>
<event>
 4    1  0.5124795E-001  0.8479572E+02  0.7546771E-02  0.1315968E+00
         -2   -1    0    0    0  501 -0.00000000000E+00  0.00000000000E+00  0.28879361172E+03  0.28879361172E+03  0.00000000000E+00 0.  1.
          2   -1    0    0  501    0  0.00000000000E+00 -0.00000000000E+00 -0.25130262363E+02  0.25130262363E+02  0.00000000000E+00 0. -1.
         24    1    1    2    0    0  0.19548179579E+02  0.18465288090E+02  0.11673403103E+03  0.14428148926E+03  0.80419002446E+02 0. -1.
        -24    1    1    2    0    0 -0.19548179579E+02 -0.18465288090E+02  0.14692931833E+03  0.16964238482E+03  0.80419002446E+02 0.  1.
<mgrwt>
<rscale>  0 0.84795720E+02</rscale>
<asrwt>0</asrwt>
<pdfrwt beam="1">  1        2 0.38661944E-02 0.84795720E+02</pdfrwt>
<pdfrwt beam="2">  1       -2 0.44429784E-01 0.84795720E+02</pdfrwt>
<totfact> 0.96197136E+03</totfact>
</mgrwt>
</event>
<event>
 4    1  0.5124795E-001  0.8051555E+02  0.7546771E-02  0.1327595E+00
         -1   -1    0    0    0  501 -0.00000000000E+00  0.00000000000E+00  0.22268318509E+01  0.22268318509E+01  0.00000000000E+00 0.  1.
          1   -1    0    0  501    0  0.00000000000E+00 -0.00000000000E+00 -0.29240814629E+04  0.29240814629E+04  0.00000000000E+00 0. -1.
         24    1    1    2    0    0  0.28014073002E+01  0.27729853446E+01 -0.13638148655E+04  0.13661894966E+04  0.80419002446E+02 0.  1.
        -24    1    1    2    0    0 -0.28014073002E+01 -0.27729853446E+01 -0.15580397655E+04  0.15601187981E+04  0.80419002446E+02 0. -1.
<mgrwt>
<rscale>  0 0.80515547E+02</rscale>
<asrwt>0</asrwt>
<pdfrwt beam="1">  1        1 0.44985823E+00 0.80515547E+02</pdfrwt>
<pdfrwt beam="2">  1       -1 0.34258986E-03 0.80515547E+02</pdfrwt>
<totfact> 0.69989114E+03</totfact>
</mgrwt>
</event>
<event>
 4    1  0.5124795E-001  0.8308772E+02  0.7546771E-02  0.1320510E+00
          2   -1    0    0  501    0  0.00000000000E+00  0.00000000000E+00  0.51107349373E+03  0.51107349373E+03  0.00000000000E+00 0. -1.
         -2   -1    0    0    0  501 -0.00000000000E+00 -0.00000000000E+00 -0.39508708813E+02  0.39508708813E+02  0.00000000000E+00 0.  1.
         24    1    1    2    0    0 -0.57917893168E+00  0.20881027177E+02  0.45910801102E+03  0.46656589511E+03  0.80419002446E+02 0. -1.
        -24    1    1    2    0    0  0.57917893168E+00 -0.20881027177E+02  0.12456773897E+02  0.84016307432E+02  0.80419002446E+02 0.  1.
<mgrwt>
<rscale>  0 0.83087717E+02</rscale>
<asrwt>0</asrwt>
<pdfrwt beam="1">  1        2 0.78626686E-01 0.83087717E+02</pdfrwt>
<pdfrwt beam="2">  1       -2 0.60782633E-02 0.83087717E+02</pdfrwt>
<totfact> 0.81314532E+03</totfact>
</mgrwt>
</event>
<event>
 4    1  0.5124795E-001  0.8509239E+02  0.7546771E-02  0.1315191E+00
         -2   -1    0    0    0  501 -0.00000000000E+00  0.00000000000E+00  0.10805477141E+03  0.10805477141E+03  0.00000000000E+00 0.  1.
          2   -1    0    0  501    0  0.00000000000E+00 -0.00000000000E+00 -0.20055828244E+03  0.20055828244E+03  0.00000000000E+00 0. -1.
         24    1    1    2    0    0 -0.27388172454E+02  0.48359577992E+01 -0.17216855829E+03  0.19204876177E+03  0.80419002446E+02 0. -1.
        -24    1    1    2    0    0  0.27388172454E+02 -0.48359577992E+01  0.79665047260E+02  0.11656429208E+03  0.80419002446E+02 0.  1.
<mgrwt>
<rscale>  0 0.85092388E+02</rscale>
<asrwt>0</asrwt>
<pdfrwt beam="1">  1        2 0.30855121E-01 0.85092388E+02</pdfrwt>
<pdfrwt beam="2">  1       -2 0.16623811E-01 0.85092388E+02</pdfrwt>
<totfact> 0.45489498E+03</totfact>
</mgrwt>
</event>
<event>
 4    1  0.5124795E-001  0.8531693E+02  0.7546771E-02  0.1314606E+00
          2   -1    0    0  501    0  0.00000000000E+00  0.00000000000E+00  0.23381390891E+04  0.23381390891E+04  0.00000000000E+00 0. -1.
         -2   -1    0    0    0  501 -0.00000000000E+00 -0.00000000000E+00 -0.11543571808E+02  0.11543571808E+02  0.00000000000E+00 0.  1.
         24    1    1    2    0    0  0.12231329350E+02  0.25732401470E+02  0.21672978739E+04  0.21689764988E+04  0.80419002446E+02 0. -1.
        -24    1    1    2    0    0 -0.12231329350E+02 -0.25732401470E+02  0.15929764340E+03  0.18070616218E+03  0.80419002446E+02 0.  1.
<mgrwt>
<rscale>  0 0.85316926E+02</rscale>
<asrwt>0</asrwt>
<pdfrwt beam="1">  1        2 0.35971333E+00 0.85316926E+02</pdfrwt>
<pdfrwt beam="2">  1       -2 0.17759360E-02 0.85316926E+02</pdfrwt>
<totfact> 0.45067282E+03</totfact>
</mgrwt>
</event>
<event>
 4    1  0.5124795E-001  0.8921264E+02  0.7546771E-02  0.1304770E+00
          2   -1    0    0  501    0  0.00000000000E+00  0.00000000000E+00  0.35792905673E+04  0.35792905673E+04  0.00000000000E+00 0. -1.
         -2   -1    0    0    0  501 -0.00000000000E+00 -0.00000000000E+00 -0.61131767255E+01  0.61131767255E+01  0.00000000000E+00 0.  1.
         24    1    1    2    0    0  0.29184885477E+02 -0.25296678520E+02  0.32165556549E+04  0.32177925937E+04  0.80419002446E+02 0. -1.
        -24    1    1    2    0    0 -0.29184885477E+02  0.25296678520E+02  0.35662173570E+03  0.36761115029E+03  0.80419002446E+02 0.  1.
<mgrwt>
<rscale>  0 0.89212642E+02</rscale>
<asrwt>0</asrwt>
<pdfrwt beam="1">  1        2 0.55065841E+00 0.89212642E+02</pdfrwt>
<pdfrwt beam="2">  1       -2 0.94049159E-03 0.89212642E+02</pdfrwt>
<totfact> 0.21803080E+03</totfact>
</mgrwt>
</event>
<event>
 4    1  0.5124795E-001  0.1682586E+03  0.7546771E-02  0.1179676E+00
          2   -1    0    0  501    0  0.00000000000E+00  0.00000000000E+00  0.13562630422E+03  0.13562630422E+03  0.00000000000E+00 0. -1.
         -2   -1    0    0    0  501 -0.00000000000E+00 -0.00000000000E+00 -0.21477319576E+03  0.21477319576E+03  0.00000000000E+00 0.  1.
         24    1    1    2    0    0  0.71731123595E+02 -0.12922221579E+03 -0.68931899698E+02  0.18183112466E+03  0.80419002446E+02 0. -1.
        -24    1    1    2    0    0 -0.71731123595E+02  0.12922221579E+03 -0.10214991841E+02  0.16856837532E+03  0.80419002446E+02 0.  0.
<mgrwt>
<rscale>  0 0.16825861E+03</rscale>
<asrwt>0</asrwt>
<pdfrwt beam="1">  1        2 0.20865585E-01 0.16825863E+03</pdfrwt>
<pdfrwt beam="2">  1       -2 0.33042030E-01 0.16825863E+03</pdfrwt>
<totfact> 0.22142191E+03</totfact>
</mgrwt>
</event>
<event>
 4    1  0.5124795E-001  0.8320533E+02  0.7546771E-02  0.1320194E+00
          4   -1    0    0  501    0  0.00000000000E+00  0.00000000000E+00  0.26922738959E+02  0.26922738959E+02  0.00000000000E+00 0. -1.
         -4   -1    0    0    0  501 -0.00000000000E+00 -0.00000000000E+00 -0.26491400854E+03  0.26491400854E+03  0.00000000000E+00 0.  1.
         24    1    1    2    0    0 -0.20405260487E+02  0.62877382060E+01 -0.94011819975E+02  0.12554420957E+03  0.80419002446E+02 0.  0.
        -24    1    1    2    0    0  0.20405260487E+02 -0.62877382060E+01 -0.14397944960E+03  0.16629253793E+03  0.80419002446E+02 0. -1.
<mgrwt>
<rscale>  0 0.83205326E+02</rscale>
<asrwt>0</asrwt>
<pdfrwt beam="1">  1        4 0.41419599E-02 0.83205326E+02</pdfrwt>
<pdfrwt beam="2">  1       -4 0.40756001E-01 0.83205326E+02</pdfrwt>
<totfact> 0.27418431E+03</totfact>
</mgrwt>
</event>
<event>
 4    1  0.5124795E-001  0.8254969E+02  0.7546771E-02  0.1321968E+00
         -2   -1    0    0    0  501 -0.00000000000E+00  0.00000000000E+00  0.79847825582E+02  0.79847825582E+02  0.00000000000E+00 0.  1.
          2   -1    0    0  501    0  0.00000000000E+00 -0.00000000000E+00 -0.11258536834E+03  0.11258536834E+03  0.00000000000E+00 0. -1.
         24    1    1    2    0    0 -0.64336945029E+01 -0.17488349859E+02 -0.63698244269E+02  0.10426848557E+03  0.80419002446E+02 0.  0.
        -24    1    1    2    0    0  0.64336945029E+01  0.17488349859E+02  0.30960701513E+02  0.88164708349E+02  0.80419002446E+02 0.  1.
<mgrwt>
<rscale>  0 0.82549687E+02</rscale>
<asrwt>0</asrwt>
<pdfrwt beam="1">  1        2 0.17320826E-01 0.82549687E+02</pdfrwt>
<pdfrwt beam="2">  1       -2 0.12284281E-01 0.82549687E+02</pdfrwt>
<totfact> 0.13890879E+04</totfact>
</mgrwt>
</event>
<event>
 4    1  0.5124795E-001  0.1168393E+03  0.7546771E-02  0.1248404E+00
          1   -1    0    0  501    0  0.00000000000E+00  0.00000000000E+00  0.63384572855E+01  0.63384572855E+01  0.00000000000E+00 0. -1.
         -1   -1    0    0    0  501 -0.00000000000E+00 -0.00000000000E+00 -0.28704091321E+04  0.28704091321E+04  0.00000000000E+00 0.  1.
         24    1    1    2    0    0 -0.48348617286E+02  0.69617698827E+02 -0.21507513328E+04  0.21539226365E+04  0.80419002446E+02 0.  1.
        -24    1    1    2    0    0  0.48348617286E+02 -0.69617698827E+02 -0.71331934203E+03  0.72282495285E+03  0.80419002446E+02 0. -1.
<mgrwt>
<rscale>  0 0.11683933E+03</rscale>
<asrwt>0</asrwt>
<pdfrwt beam="1">  1        1 0.97514742E-03 0.11683933E+03</pdfrwt>
<pdfrwt beam="2">  1       -1 0.44160134E+00 0.11683933E+03</pdfrwt>
<totfact> 0.78826719E+01</totfact>
</mgrwt>
</event>
<event>
 4    1  0.5124795E-001  0.8168806E+02  0.7546771E-02  0.1324328E+00
         -1   -1    0    0    0  501 -0.00000000000E+00  0.00000000000E+00  0.56542836983E+02  0.56542836983E+02  0.00000000000E+00 0.  1.
          1   -1    0    0  501    0  0.00000000000E+00 -0.00000000000E+00 -0.21656961218E+03  0.21656961218E+03  0.00000000000E+00 0. -1.
         24    1    1    2    0    0 -0.49823617742E+01 -0.13449904621E+02  0.12105732300E+02  0.82580194793E+02  0.80419002446E+02 0.  1.
        -24    1    1    2    0    0  0.49823617742E+01  0.13449904621E+02 -0.17213250750E+03  0.19053225437E+03  0.80419002446E+02 0. -1.
<mgrwt>
<rscale>  0 0.81688064E+02</rscale>
<asrwt>0</asrwt>
<pdfrwt beam="1">  1        1 0.33318401E-01 0.81688064E+02</pdfrwt>
<pdfrwt beam="2">  1       -1 0.86988981E-02 0.81688064E+02</pdfrwt>
<totfact> 0.90771111E+03</totfact>
</mgrwt>
</event>
<event>
 4    1  0.5124795E-001  0.1163919E+03  0.7546771E-02  0.1249171E+00
          1   -1    0    0  501    0  0.00000000000E+00  0.00000000000E+00  0.12459861094E+04  0.12459861094E+04  0.00000000000E+00 0. -1.
         -1   -1    0    0    0  501 -0.00000000000E+00 -0.00000000000E+00 -0.11007332218E+02  0.11007332218E+02  0.00000000000E+00 0.  1.
         24    1    1    2    0    0  0.17784834772E+02  0.82240840683E+02  0.54794777225E+03  0.56017303871E+03  0.80419002446E+02 0.  1.
        -24    1    1    2    0    0 -0.17784834772E+02 -0.82240840683E+02  0.68703100494E+03  0.69682040292E+03  0.80419002446E+02 0. -1.
<mgrwt>
<rscale>  0 0.11639189E+03</rscale>
<asrwt>0</asrwt>
<pdfrwt beam="1">  1        1 0.19169006E+00 0.11639189E+03</pdfrwt>
<pdfrwt beam="2">  1       -1 0.16934367E-02 0.11639189E+03</pdfrwt>
<totfact> 0.89560796E+03</totfact>
</mgrwt>
</event>
<event>
 4    1  0.5124795E-001  0.1181545E+03  0.7546771E-02  0.1246173E+00
         -1   -1    0    0    0  501 -0.00000000000E+00  0.00000000000E+00  0.10987150608E+03  0.10987150608E+03  0.00000000000E+00 0.  1.
          1   -1    0    0  501    0  0.00000000000E+00 -0.00000000000E+00 -0.25195158784E+03  0.25195158784E+03  0.00000000000E+00 0. -1.
         24    1    1    2    0    0  0.36516528055E+02  0.78484527843E+02  0.56331042965E+02  0.13089568476E+03  0.80419002446E+02 0.  1.
        -24    1    1    2    0    0 -0.36516528055E+02 -0.78484527843E+02 -0.19841112473E+03  0.23092740916E+03  0.80419002446E+02 0. -1.
<mgrwt>
<rscale>  0 0.11815453E+03</rscale>
<asrwt>0</asrwt>
<pdfrwt beam="1">  1        1 0.38761783E-01 0.11815453E+03</pdfrwt>
<pdfrwt beam="2">  1       -1 0.16903309E-01 0.11815453E+03</pdfrwt>
<totfact> 0.27945346E+03</totfact>
</mgrwt>
</event>
