<event>
 4    1  0.2665544E-007  0.1443051E+04  0.7818608E-02  0.8950933E-01
          2   -1    0    0  501    0  0.00000000000E+00  0.00000000000E+00  0.40196062179E+04  0.40196062179E+04  0.25500000000E-02 0. -1.
         -2   -1    0    0    0  501 -0.00000000000E+00 -0.00000000000E+00 -0.89693283077E+03  0.89693283078E+03  0.25500000000E-02 0.  1.
    8880023    1    1    2    0    0 -0.87065962703E+03 -0.94368337025E+03  0.33091549856E+04  0.36101112745E+04  0.65864270000E+03 0.  0.
    8880022    1    1    2    0    0  0.87065962703E+03  0.94368337025E+03 -0.18648159849E+03  0.13064277741E+04  0.15294330000E+03 0.  0.
<mgrwt>
<rscale>  0 0.14039936E+04</rscale>
<asrwt>0</asrwt>
<pdfrwt beam="1">  1        2 0.61840096E+00 0.14430512E+04</pdfrwt>
<pdfrwt beam="2">  1       -2 0.13798967E+00 0.14430512E+04</pdfrwt>
<totfact> 0.11943313E-01</totfact>
</mgrwt>
</event>
<event>
 4    1  0.2665544E-007  0.8093553E+03  0.7818608E-02  0.9690921E-01
          2   -1    0    0  501    0  0.00000000000E+00  0.00000000000E+00  0.17030046174E+04  0.17030046174E+04  0.25500000000E-02 0. -1.
         -2   -1    0    0    0  501 -0.00000000000E+00 -0.00000000000E+00 -0.34783179817E+03  0.34783179818E+03  0.25500000000E-02 0.  1.
    8880023    1    1    2    0    0 -0.46191310320E+03 -0.88780872994E+02  0.13283558727E+04  0.15555016198E+04  0.65864270000E+03 0. -1.
    8880022    1    1    2    0    0  0.46191310320E+03  0.88780872994E+02  0.26816946552E+02  0.49533479583E+03  0.15294330000E+03 0.  0.
<mgrwt>
<rscale>  0 0.71559906E+03</rscale>
<asrwt>0</asrwt>
<pdfrwt beam="1">  1        2 0.26200071E+00 0.80935528E+03</pdfrwt>
<pdfrwt beam="2">  1       -2 0.53512585E-01 0.80935528E+03</pdfrwt>
<totfact> 0.32779954E+01</totfact>
</mgrwt>
</event>
<event>
 4    1  0.2665544E-007  0.6669861E+03  0.7818608E-02  0.1017922E+00
         -2   -1    0    0    0  501 -0.00000000000E+00  0.00000000000E+00  0.54356946033E+03  0.54356946034E+03  0.25500000000E-02 0.  1.
          2   -1    0    0  501    0  0.00000000000E+00 -0.00000000000E+00 -0.11158739322E+04  0.11158739322E+04  0.25500000000E-02 0. -1.
    8880023    1    1    2    0    0  0.56172226692E+02  0.88909680652E+02 -0.99495376347E+03  0.11978328131E+04  0.65864270000E+03 0. -1.
    8880022    1    1    2    0    0 -0.56172226692E+02 -0.88909680652E+02  0.42264929160E+03  0.46161057946E+03  0.15294330000E+03 0.  0.
<mgrwt>
<rscale>  0 0.48443916E+03</rscale>
<asrwt>0</asrwt>
<pdfrwt beam="1">  1        2 0.17167291E+00 0.66698610E+03</pdfrwt>
<pdfrwt beam="2">  1       -2 0.83626071E-01 0.66698610E+03</pdfrwt>
<totfact> 0.27352332E+01</totfact>
</mgrwt>
</event>
<event>
 4    1  0.2665544E-007  0.7469988E+03  0.7818608E-02  0.9840010E-01
          2   -1    0    0  501    0  0.00000000000E+00  0.00000000000E+00  0.13750295484E+04  0.13750295484E+04  0.25500000000E-02 0. -1.
         -2   -1    0    0    0  501 -0.00000000000E+00 -0.00000000000E+00 -0.74619012379E+03  0.74619012379E+03  0.25500000000E-02 0.  1.
    8880023    1    1    2    0    0 -0.28493709587E+01 -0.35240447878E+03  0.12115132208E+04  0.14232960079E+04  0.65864270000E+03 0. -1.
    8880022    1    1    2    0    0  0.28493709587E+01  0.35240447878E+03 -0.58267379613E+03  0.69792366438E+03  0.15294330000E+03 0.  0.
<mgrwt>
<rscale>  0 0.63258891E+03</rscale>
<asrwt>0</asrwt>
<pdfrwt beam="1">  1        2 0.21154301E+00 0.74699882E+03</pdfrwt>
<pdfrwt beam="2">  1       -2 0.11479848E+00 0.74699882E+03</pdfrwt>
<totfact> 0.90607058E+00</totfact>
</mgrwt>
</event>
<event>
 4    1  0.2665544E-007  0.9105847E+03  0.7818608E-02  0.9509249E-01
         -2   -1    0    0    0  501 -0.00000000000E+00  0.00000000000E+00  0.37495548047E+03  0.37495548048E+03  0.25500000000E-02 0.  1.
          2   -1    0    0  501    0  0.00000000000E+00 -0.00000000000E+00 -0.17432493677E+04  0.17432493677E+04  0.25500000000E-02 0. -1.
    8880023    1    1    2    0    0 -0.95670511190E+02 -0.62145108721E+03 -0.51121457629E+03  0.10442724021E+04  0.65864270000E+03 0.  0.
    8880022    1    1    2    0    0  0.95670511190E+02  0.62145108721E+03 -0.85707931093E+03  0.10739324461E+04  0.15294330000E+03 0.  0.
<mgrwt>
<rscale>  0 0.83605354E+03</rscale>
<asrwt>0</asrwt>
<pdfrwt beam="1">  1        2 0.26819221E+00 0.91058471E+03</pdfrwt>
<pdfrwt beam="2">  1       -2 0.57685459E-01 0.91058471E+03</pdfrwt>
<totfact> 0.26356847E+01</totfact>
</mgrwt>
</event>
<event>
 4    1  0.2665544E-007  0.1523276E+04  0.7818608E-02  0.8893373E-01
          2   -1    0    0  501    0  0.00000000000E+00  0.00000000000E+00  0.29928391552E+04  0.29928391552E+04  0.25500000000E-02 0. -1.
         -2   -1    0    0    0  501 -0.00000000000E+00 -0.00000000000E+00 -0.81628542270E+03  0.81628542270E+03  0.25500000000E-02 0.  1.
    8880023    1    1    2    0    0  0.13052616780E+04 -0.42761042158E+03  0.43170973446E+03  0.15832694723E+04  0.65864270000E+03 0.  1.
    8880022    1    1    2    0    0 -0.13052616780E+04  0.42761042158E+03  0.17448439980E+04  0.22258551056E+04  0.15294330000E+03 0.  0.
<mgrwt>
<rscale>  0 0.14866600E+04</rscale>
<asrwt>0</asrwt>
<pdfrwt beam="1">  1        2 0.46043681E+00 0.15232757E+04</pdfrwt>
<pdfrwt beam="2">  1       -2 0.12558237E+00 0.15232757E+04</pdfrwt>
<totfact> 0.79134401E-01</totfact>
</mgrwt>
</event>
<event>
 4    1  0.2665544E-007  0.1011634E+04  0.7818608E-02  0.9366493E-01
         -2   -1    0    0    0  501 -0.00000000000E+00  0.00000000000E+00  0.74391791710E+03  0.74391791710E+03  0.25500000000E-02 0.  1.
          2   -1    0    0  501    0  0.00000000000E+00 -0.00000000000E+00 -0.10958484497E+04  0.10958484497E+04  0.25500000000E-02 0. -1.
    8880023    1    1    2    0    0 -0.60812729259E+03 -0.46880090980E+03 -0.96531010847E+02  0.10162290782E+04  0.65864270000E+03 0.  1.
    8880022    1    1    2    0    0  0.60812729259E+03  0.46880090980E+03 -0.25539952176E+03  0.82353728862E+03  0.15294330000E+03 0. -1.
<mgrwt>
<rscale>  0 0.94885263E+03</rscale>
<asrwt>0</asrwt>
<pdfrwt beam="1">  1        2 0.16859207E+00 0.10116340E+04</pdfrwt>
<pdfrwt beam="2">  1       -2 0.11444891E+00 0.10116340E+04</pdfrwt>
<totfact> 0.12969459E+01</totfact>
</mgrwt>
</event>
<event>
 4    1  0.2665544E-007  0.8004898E+03  0.7818608E-02  0.9709738E-01
          2   -1    0    0  501    0  0.00000000000E+00  0.00000000000E+00  0.75137407682E+03  0.75137407682E+03  0.25500000000E-02 0. -1.
         -2   -1    0    0    0  501 -0.00000000000E+00 -0.00000000000E+00 -0.67641608688E+03  0.67641608689E+03  0.25500000000E-02 0.  1.
    8880023    1    1    2    0    0  0.11629015449E+03 -0.43982995977E+03  0.35105000483E+03  0.87408243644E+03  0.65864270000E+03 0.  0.
    8880022    1    1    2    0    0 -0.11629015449E+03  0.43982995977E+03 -0.27609201489E+03  0.55370772727E+03  0.15294330000E+03 0.  0.
<mgrwt>
<rscale>  0 0.70439950E+03</rscale>
<asrwt>0</asrwt>
<pdfrwt beam="1">  1        2 0.11559601E+00 0.80048985E+03</pdfrwt>
<pdfrwt beam="2">  1       -2 0.10406401E+00 0.80048985E+03</pdfrwt>
<totfact> 0.28363764E+01</totfact>
</mgrwt>
</event>
<event>
 4    1  0.2665544E-007  0.1147777E+04  0.7818608E-02  0.9209638E-01
         -2   -1    0    0    0  501 -0.00000000000E+00  0.00000000000E+00  0.82385921036E+03  0.82385921037E+03  0.25500000000E-02 0.  1.
          2   -1    0    0  501    0  0.00000000000E+00 -0.00000000000E+00 -0.18312504816E+04  0.18312504816E+04  0.25500000000E-02 0. -1.
    8880023    1    1    2    0    0  0.88695104587E+03 -0.31128718173E+03 -0.12244937719E+04  0.16783256749E+04  0.65864270000E+03 0.  0.
    8880022    1    1    2    0    0 -0.88695104587E+03  0.31128718173E+03  0.21710250064E+03  0.97678401711E+03  0.15294330000E+03 0.  0.
<mgrwt>
<rscale>  0 0.10954498E+04</rscale>
<asrwt>0</asrwt>
<pdfrwt beam="1">  1        2 0.28173084E+00 0.11477770E+04</pdfrwt>
<pdfrwt beam="2">  1       -2 0.12674757E+00 0.11477770E+04</pdfrwt>
<totfact> 0.37621498E+00</totfact>
</mgrwt>
</event>
<event>
 4    1  0.2665544E-007  0.2019712E+04  0.7818608E-02  0.8609845E-01
         -2   -1    0    0    0  501 -0.00000000000E+00  0.00000000000E+00  0.20617829283E+04  0.20617829283E+04  0.25500000000E-02 0.  1.
          2   -1    0    0  501    0  0.00000000000E+00 -0.00000000000E+00 -0.23925114384E+04  0.23925114384E+04  0.25500000000E-02 0. -1.
    8880023    1    1    2    0    0 -0.19064636559E+04 -0.10403852598E+03  0.86406891080E+03  0.21967824141E+04  0.65864270000E+03 0.  0.
    8880022    1    1    2    0    0  0.19064636559E+04  0.10403852598E+03 -0.11947974209E+04  0.22575119526E+04  0.15294330000E+03 0.  0.
<mgrwt>
<rscale>  0 0.19931176E+04</rscale>
<asrwt>0</asrwt>
<pdfrwt beam="1">  1        2 0.36807868E+00 0.20197123E+04</pdfrwt>
<pdfrwt beam="2">  1       -2 0.31719737E+00 0.20197123E+04</pdfrwt>
<totfact> 0.88509169E-02</totfact>
</mgrwt>
</event>
<event>
 4    1  0.2665544E-007  0.1185773E+04  0.7818608E-02  0.9171077E-01
          2   -1    0    0  501    0  0.00000000000E+00  0.00000000000E+00  0.37824258185E+04  0.37824258185E+04  0.25500000000E-02 0. -1.
         -2   -1    0    0    0  501 -0.00000000000E+00 -0.00000000000E+00 -0.47965902718E+03  0.47965902719E+03  0.25500000000E-02 0.  1.
    8880023    1    1    2    0    0 -0.15408089386E+03  0.97391333754E+03  0.49978549317E+03  0.12867959653E+04  0.65864270000E+03 0.  0.
    8880022    1    1    2    0    0  0.15408089386E+03 -0.97391333754E+03  0.28029812981E+04  0.29752888803E+04  0.15294330000E+03 0.  0.
<mgrwt>
<rscale>  0 0.11357011E+04</rscale>
<asrwt>0</asrwt>
<pdfrwt beam="1">  1        2 0.58191165E+00 0.11857733E+04</pdfrwt>
<pdfrwt beam="2">  1       -2 0.73793698E-01 0.11857733E+04</pdfrwt>
<totfact> 0.84968893E-01</totfact>
</mgrwt>
</event>
<event>
 4    1  0.2665544E-007  0.6613034E+03  0.7818608E-02  0.1022859E+00
         -2   -1    0    0    0  501 -0.00000000000E+00  0.00000000000E+00  0.63561531522E+03  0.63561531522E+03  0.25500000000E-02 0.  1.
          2   -1    0    0  501    0  0.00000000000E+00 -0.00000000000E+00 -0.23277244015E+04  0.23277244015E+04  0.25500000000E-02 0. -1.
    8880023    1    1    2    0    0  0.41859942520E+02 -0.41948540537E+02 -0.22690932301E+04  0.23634944950E+04  0.65864270000E+03 0. -1.
    8880022    1    1    2    0    0 -0.41859942520E+02  0.41948540537E+02  0.57698414379E+03  0.59984522173E+03  0.15294330000E+03 0.  0.
<mgrwt>
<rscale>  0 0.46668821E+03</rscale>
<asrwt>0</asrwt>
<pdfrwt beam="1">  1        2 0.35811144E+00 0.66130337E+03</pdfrwt>
<pdfrwt beam="2">  1       -2 0.97786973E-01 0.66130337E+03</pdfrwt>
<totfact> 0.40469554E+00</totfact>
</mgrwt>
</event>
<event>
 4    1  0.2665544E-007  0.7023299E+03  0.7818608E-02  0.9987670E-01
         -2   -1    0    0    0  501 -0.00000000000E+00  0.00000000000E+00  0.10370607738E+04  0.10370607738E+04  0.25500000000E-02 0.  1.
          2   -1    0    0  501    0  0.00000000000E+00 -0.00000000000E+00 -0.65303467485E+03  0.65303467485E+03  0.25500000000E-02 0. -1.
    8880023    1    1    2    0    0  0.24334560727E+03 -0.15489731909E+02 -0.43216253544E+03  0.82464033353E+03  0.65864270000E+03 0. -1.
    8880022    1    1    2    0    0 -0.24334560727E+03  0.15489731909E+02  0.81618863435E+03  0.86545511509E+03  0.15294330000E+03 0.  0.
<mgrwt>
<rscale>  0 0.56194206E+03</rscale>
<asrwt>0</asrwt>
<pdfrwt beam="1">  1        2 0.10046687E+00 0.70232985E+03</pdfrwt>
<pdfrwt beam="2">  1       -2 0.15954781E+00 0.70232985E+03</pdfrwt>
<totfact> 0.11584701E+01</totfact>
</mgrwt>
</event>
<event>
 4    1  0.2665544E-007  0.9180230E+03  0.7818608E-02  0.9497697E-01
          2   -1    0    0  501    0  0.00000000000E+00  0.00000000000E+00  0.10185313911E+04  0.10185313911E+04  0.25500000000E-02 0. -1.
         -2   -1    0    0    0  501 -0.00000000000E+00 -0.00000000000E+00 -0.70826357151E+03  0.70826357152E+03  0.25500000000E-02 0.  1.
    8880023    1    1    2    0    0  0.48171860109E+03 -0.42059860308E+03  0.49611748104E+03  0.10435031178E+04  0.65864270000E+03 0. -1.
    8880022    1    1    2    0    0 -0.48171860109E+03  0.42059860308E+03 -0.18584966146E+03  0.68329184484E+03  0.15294330000E+03 0.  0.
<mgrwt>
<rscale>  0 0.84453821E+03</rscale>
<asrwt>0</asrwt>
<pdfrwt beam="1">  1        2 0.15669714E+00 0.91802299E+03</pdfrwt>
<pdfrwt beam="2">  1       -2 0.10896363E+00 0.91802299E+03</pdfrwt>
<totfact> 0.16481132E+01</totfact>
</mgrwt>
</event>
<event>
 4    1  0.2665544E-007  0.1095714E+04  0.7818608E-02  0.9265843E-01
          2   -1    0    0  501    0  0.00000000000E+00  0.00000000000E+00  0.20823419261E+04  0.20823419261E+04  0.25500000000E-02 0. -1.
         -2   -1    0    0    0  501 -0.00000000000E+00 -0.00000000000E+00 -0.67489415217E+03  0.67489415217E+03  0.25500000000E-02 0.  1.
    8880023    1    1    2    0    0  0.81224144938E+03 -0.32717304394E+03  0.37150507116E+01  0.10957200284E+04  0.65864270000E+03 0.  0.
    8880022    1    1    2    0    0 -0.81224144938E+03  0.32717304394E+03  0.14037327233E+04  0.16615160499E+04  0.15294330000E+03 0.  0.
<mgrwt>
<rscale>  0 0.10398912E+04</rscale>
<asrwt>0</asrwt>
<pdfrwt beam="1">  1        2 0.32036030E+00 0.10957137E+04</pdfrwt>
<pdfrwt beam="2">  1       -2 0.10382987E+00 0.10957137E+04</pdfrwt>
<totfact> 0.44936563E+00</totfact>
</mgrwt>
</event>
<event>
 4    1  0.2665544E-007  0.7349127E+03  0.7818608E-02  0.9875021E-01
         -2   -1    0    0    0  501 -0.00000000000E+00  0.00000000000E+00  0.18146141436E+03  0.18146141438E+03  0.25500000000E-02 0.  1.
          2   -1    0    0  501    0  0.00000000000E+00 -0.00000000000E+00 -0.27609955044E+04  0.27609955044E+04  0.25500000000E-02 0. -1.
    8880023    1    1    2    0    0  0.83839356898E+02  0.31505159182E+03 -0.24530652238E+04  0.25607861569E+04  0.65864270000E+03 0. -1.
    8880022    1    1    2    0    0 -0.83839356898E+02 -0.31505159182E+03 -0.12646886625E+03  0.38167076181E+03  0.15294330000E+03 0.  0.
<mgrwt>
<rscale>  0 0.61487269E+03</rscale>
<asrwt>0</asrwt>
<pdfrwt beam="1">  1        2 0.42476851E+00 0.73491275E+03</pdfrwt>
<pdfrwt beam="2">  1       -2 0.27917143E-01 0.73491275E+03</pdfrwt>
<totfact> 0.30104531E+01</totfact>
</mgrwt>
</event>
<event>
 4    1  0.2665544E-007  0.7599788E+03  0.7818608E-02  0.9805162E-01
         -2   -1    0    0    0  501 -0.00000000000E+00  0.00000000000E+00  0.56368482523E+03  0.56368482524E+03  0.25500000000E-02 0.  1.
          2   -1    0    0  501    0  0.00000000000E+00 -0.00000000000E+00 -0.62717375321E+03  0.62717375321E+03  0.25500000000E-02 0. -1.
    8880023    1    1    2    0    0  0.42468600280E+02  0.37676783144E+03 -0.14574317702E+03  0.77382741017E+03  0.65864270000E+03 0. -1.
    8880022    1    1    2    0    0 -0.42468600280E+02 -0.37676783144E+03  0.82254249041E+02  0.41703116828E+03  0.15294330000E+03 0.  1.
<mgrwt>
<rscale>  0 0.65086237E+03</rscale>
<asrwt>0</asrwt>
<pdfrwt beam="1">  1        2 0.96488270E-01 0.75997881E+03</pdfrwt>
<pdfrwt beam="2">  1       -2 0.86720742E-01 0.75997881E+03</pdfrwt>
<totfact> 0.54713472E+01</totfact>
</mgrwt>
</event>
<event>
 4    1  0.2665544E-007  0.7446793E+03  0.7818608E-02  0.9846520E-01
          2   -1    0    0  501    0  0.00000000000E+00  0.00000000000E+00  0.70599147387E+03  0.70599147387E+03  0.25500000000E-02 0. -1.
         -2   -1    0    0    0  501 -0.00000000000E+00 -0.00000000000E+00 -0.73448577926E+03  0.73448577926E+03  0.25500000000E-02 0.  1.
    8880023    1    1    2    0    0  0.24809075162E+03  0.24328589633E+03  0.41834099006E+03  0.85414076043E+03  0.65864270000E+03 0. -1.
    8880022    1    1    2    0    0 -0.24809075162E+03 -0.24328589633E+03 -0.44683529545E+03  0.58633649270E+03  0.15294330000E+03 0.  0.
<mgrwt>
<rscale>  0 0.62924644E+03</rscale>
<asrwt>0</asrwt>
<pdfrwt beam="1">  1        2 0.10861407E+00 0.74467930E+03</pdfrwt>
<pdfrwt beam="2">  1       -2 0.11299781E+00 0.74467930E+03</pdfrwt>
<totfact> 0.25297978E+01</totfact>
</mgrwt>
</event>
<event>
 4    1  0.2665544E-007  0.8632407E+03  0.7818608E-02  0.9587825E-01
          2   -1    0    0  501    0  0.00000000000E+00  0.00000000000E+00  0.18962024572E+04  0.18962024572E+04  0.25500000000E-02 0. -1.
         -2   -1    0    0    0  501 -0.00000000000E+00 -0.00000000000E+00 -0.61761651533E+03  0.61761651533E+03  0.25500000000E-02 0.  1.
    8880023    1    1    2    0    0 -0.97199223001E+02  0.54947847267E+03  0.16245680014E+04  0.18396754274E+04  0.65864270000E+03 0.  0.
    8880022    1    1    2    0    0  0.97199223001E+02 -0.54947847267E+03 -0.34598205952E+03  0.67414354510E+03  0.15294330000E+03 0.  0.
<mgrwt>
<rscale>  0 0.78107293E+03</rscale>
<asrwt>0</asrwt>
<pdfrwt beam="1">  1        2 0.29172345E+00 0.86324069E+03</pdfrwt>
<pdfrwt beam="2">  1       -2 0.95017928E-01 0.86324069E+03</pdfrwt>
<totfact> 0.72262132E+00</totfact>
</mgrwt>
</event>
<event>
 4    1  0.2665544E-007  0.1396968E+04  0.7818608E-02  0.8986042E-01
          2   -1    0    0  501    0  0.00000000000E+00  0.00000000000E+00  0.34860248913E+04  0.34860248913E+04  0.25500000000E-02 0. -1.
         -2   -1    0    0    0  501 -0.00000000000E+00 -0.00000000000E+00 -0.11681991328E+04  0.11681991328E+04  0.25500000000E-02 0.  1.
    8880023    1    1    2    0    0  0.66172435506E+03  0.10391486945E+04  0.29478393569E+04  0.32620969041E+04  0.65864270000E+03 0.  0.
    8880022    1    1    2    0    0 -0.66172435506E+03 -0.10391486945E+04 -0.63001359836E+03  0.13921271201E+04  0.15294330000E+03 0.  0.
<mgrwt>
<rscale>  0 0.13563404E+04</rscale>
<asrwt>0</asrwt>
<pdfrwt beam="1">  1        2 0.53631153E+00 0.13969679E+04</pdfrwt>
<pdfrwt beam="2">  1       -2 0.17972294E+00 0.13969679E+04</pdfrwt>
<totfact> 0.14583725E-01</totfact>
</mgrwt>
</event>
<event>
 4    1  0.2665544E-007  0.9580831E+03  0.7818608E-02  0.9438578E-01
          2   -1    0    0  501    0  0.00000000000E+00  0.00000000000E+00  0.26976094353E+04  0.26976094353E+04  0.25500000000E-02 0. -1.
         -2   -1    0    0    0  501 -0.00000000000E+00 -0.00000000000E+00 -0.76677180296E+03  0.76677180296E+03  0.25500000000E-02 0.  1.
    8880023    1    1    2    0    0  0.69549644472E+03  0.19942563254E+02  0.24183020122E+04  0.26011743192E+04  0.65864270000E+03 0. -1.
    8880022    1    1    2    0    0 -0.69549644472E+03 -0.19942563254E+02 -0.48746437986E+03  0.86320691905E+03  0.15294330000E+03 0.  0.
<mgrwt>
<rscale>  0 0.88967705E+03</rscale>
<asrwt>0</asrwt>
<pdfrwt beam="1">  1        2 0.41501684E+00 0.95808309E+03</pdfrwt>
<pdfrwt beam="2">  1       -2 0.11796489E+00 0.95808309E+03</pdfrwt>
<totfact> 0.15024635E+00</totfact>
</mgrwt>
</event>
<event>
 4    1  0.2665544E-007  0.7226317E+03  0.7818608E-02  0.9913780E-01
          2   -1    0    0  501    0  0.00000000000E+00  0.00000000000E+00  0.87577320509E+02  0.87577320546E+02  0.25500000000E-02 0. -1.
         -2   -1    0    0    0  501 -0.00000000000E+00 -0.00000000000E+00 -0.46190159326E+04  0.46190159326E+04  0.25500000000E-02 0.  1.
    8880023    1    1    2    0    0 -0.38031734956E+02 -0.29485576258E+03 -0.15935499355E+04  0.17497422487E+04  0.65864270000E+03 0. -1.
    8880022    1    1    2    0    0  0.38031734956E+02  0.29485576258E+03 -0.29378886766E+04  0.29568510045E+04  0.15294330000E+03 0.  0.
<mgrwt>
<rscale>  0 0.59598082E+03</rscale>
<asrwt>0</asrwt>
<pdfrwt beam="1">  1        2 0.13473438E-01 0.72263168E+03</pdfrwt>
<pdfrwt beam="2">  1       -2 0.71061765E+00 0.72263168E+03</pdfrwt>
<totfact> 0.10220178E-01</totfact>
</mgrwt>
</event>
<event>
 4    1  0.2665544E-007  0.8148213E+03  0.7818608E-02  0.9679620E-01
         -2   -1    0    0    0  501 -0.00000000000E+00  0.00000000000E+00  0.31623681801E+04  0.31623681801E+04  0.25500000000E-02 0.  1.
          2   -1    0    0  501    0  0.00000000000E+00 -0.00000000000E+00 -0.13706685590E+04  0.13706685590E+04  0.25500000000E-02 0. -1.
    8880023    1    1    2    0    0 -0.40627470871E+03 -0.25507726230E+03 -0.12268487179E+04  0.14727835997E+04  0.65864270000E+03 0.  0.
    8880022    1    1    2    0    0  0.40627470871E+03  0.25507726230E+03  0.30185483390E+04  0.30602531393E+04  0.15294330000E+03 0.  1.
<mgrwt>
<rscale>  0 0.72243251E+03</rscale>
<asrwt>0</asrwt>
<pdfrwt beam="1">  1        2 0.21087209E+00 0.81482130E+03</pdfrwt>
<pdfrwt beam="2">  1       -2 0.48651818E+00 0.81482130E+03</pdfrwt>
<totfact> 0.31836458E-02</totfact>
</mgrwt>
</event>
<event>
 4    1  0.2665544E-007  0.8916060E+03  0.7818608E-02  0.9539643E-01
         -2   -1    0    0    0  501 -0.00000000000E+00  0.00000000000E+00  0.76784442551E+03  0.76784442551E+03  0.25500000000E-02 0.  1.
          2   -1    0    0  501    0  0.00000000000E+00 -0.00000000000E+00 -0.14801969802E+04  0.14801969802E+04  0.25500000000E-02 0. -1.
    8880023    1    1    2    0    0 -0.16381747897E+03  0.57819968404E+03 -0.11745492990E+04  0.14746278524E+04  0.65864270000E+03 0.  0.
    8880022    1    1    2    0    0  0.16381747897E+03 -0.57819968404E+03  0.46219674428E+03  0.77341355333E+03  0.15294330000E+03 0.  0.
<mgrwt>
<rscale>  0 0.81423132E+03</rscale>
<asrwt>0</asrwt>
<pdfrwt beam="1">  1        2 0.22772261E+00 0.89160599E+03</pdfrwt>
<pdfrwt beam="2">  1       -2 0.11812991E+00 0.89160599E+03</pdfrwt>
<totfact> 0.72349631E+00</totfact>
</mgrwt>
</event>
<event>
 4    1  0.2665544E-007  0.7124682E+03  0.7818608E-02  0.9948947E-01
          2   -1    0    0  501    0  0.00000000000E+00  0.00000000000E+00  0.31892064875E+04  0.31892064876E+04  0.25500000000E-02 0. -1.
         -2   -1    0    0    0  501 -0.00000000000E+00 -0.00000000000E+00 -0.50487226232E+03  0.50487226232E+03  0.25500000000E-02 0.  1.
    8880023    1    1    2    0    0  0.47886127932E+02 -0.26740917896E+03  0.30964319483E+04  0.31773419342E+04  0.65864270000E+03 0. -1.
    8880022    1    1    2    0    0 -0.47886127932E+02  0.26740917896E+03 -0.41209772309E+03  0.51673681563E+03  0.15294330000E+03 0.  0.
<mgrwt>
<rscale>  0 0.57946627E+03</rscale>
<asrwt>0</asrwt>
<pdfrwt beam="1">  1        2 0.49064715E+00 0.71246821E+03</pdfrwt>
<pdfrwt beam="2">  1       -2 0.77672656E-01 0.71246821E+03</pdfrwt>
<totfact> 0.21092429E+00</totfact>
</mgrwt>
</event>
<event>
 4    1  0.2665544E-007  0.7117230E+03  0.7818608E-02  0.9951658E-01
          2   -1    0    0  501    0  0.00000000000E+00  0.00000000000E+00  0.18550148873E+04  0.18550148873E+04  0.25500000000E-02 0. -1.
         -2   -1    0    0    0  501 -0.00000000000E+00 -0.00000000000E+00 -0.68029449370E+03  0.68029449371E+03  0.25500000000E-02 0.  1.
    8880023    1    1    2    0    0 -0.23300513917E+03 -0.13582334950E+03  0.17459046079E+04  0.18853998205E+04  0.65864270000E+03 0. -1.
    8880022    1    1    2    0    0  0.23300513917E+03  0.13582334950E+03 -0.57118421428E+03  0.64990956049E+03  0.15294330000E+03 0.  0.
<mgrwt>
<rscale>  0 0.57821744E+03</rscale>
<asrwt>0</asrwt>
<pdfrwt beam="1">  1        2 0.28538691E+00 0.71172297E+03</pdfrwt>
<pdfrwt beam="2">  1       -2 0.10466069E+00 0.71172297E+03</pdfrwt>
<totfact> 0.61896820E+00</totfact>
</mgrwt>
</event>
<event>
 4    1  0.2665544E-007  0.7896937E+03  0.7818608E-02  0.9733540E-01
         -2   -1    0    0    0  501 -0.00000000000E+00  0.00000000000E+00  0.47890217740E+03  0.47890217740E+03  0.25500000000E-02 0.  1.
          2   -1    0    0  501    0  0.00000000000E+00 -0.00000000000E+00 -0.23133026408E+04  0.23133026408E+04  0.25500000000E-02 0. -1.
    8880023    1    1    2    0    0 -0.43345479846E+03  0.43850756900E+02 -0.21110625973E+04  0.22539302224E+04  0.65864270000E+03 0. -1.
    8880022    1    1    2    0    0  0.43345479846E+03 -0.43850756900E+02  0.27666213391E+03  0.53827459586E+03  0.15294330000E+03 0.  0.
<mgrwt>
<rscale>  0 0.69054471E+03</rscale>
<asrwt>0</asrwt>
<pdfrwt beam="1">  1        2 0.35589270E+00 0.78969371E+03</pdfrwt>
<pdfrwt beam="2">  1       -2 0.73677260E-01 0.78969371E+03</pdfrwt>
<totfact> 0.76758676E+00</totfact>
</mgrwt>
</event>
<event>
 4    1  0.2665544E-007  0.6936810E+03  0.7818608E-02  0.1002450E+00
         -2   -1    0    0    0  501 -0.00000000000E+00  0.00000000000E+00  0.34992446263E+03  0.34992446264E+03  0.25500000000E-02 0.  1.
          2   -1    0    0  501    0  0.00000000000E+00 -0.00000000000E+00 -0.96892631886E+03  0.96892631886E+03  0.25500000000E-02 0. -1.
    8880023    1    1    2    0    0 -0.66688456917E+02  0.20720938562E+03 -0.75059390399E+03  0.10220491645E+04  0.65864270000E+03 0.  0.
    8880022    1    1    2    0    0  0.66688456917E+02 -0.20720938562E+03  0.13159204777E+03  0.29680161695E+03  0.15294330000E+03 0.  0.
<mgrwt>
<rscale>  0 0.54588934E+03</rscale>
<asrwt>0</asrwt>
<pdfrwt beam="1">  1        2 0.14906559E+00 0.69368097E+03</pdfrwt>
<pdfrwt beam="2">  1       -2 0.53834533E-01 0.69368097E+03</pdfrwt>
<totfact> 0.87327451E+01</totfact>
</mgrwt>
</event>
<event>
 4    1  0.2665544E-007  0.1309891E+04  0.7818608E-02  0.9057065E-01
         -2   -1    0    0    0  501 -0.00000000000E+00  0.00000000000E+00  0.18665540246E+04  0.18665540246E+04  0.25500000000E-02 0.  1.
          2   -1    0    0  501    0  0.00000000000E+00 -0.00000000000E+00 -0.21851074748E+04  0.21851074748E+04  0.25500000000E-02 0. -1.
    8880023    1    1    2    0    0  0.11193116583E+04 -0.17072379537E+03 -0.17715700666E+04  0.22032421360E+04  0.65864270000E+03 0.  0.
    8880022    1    1    2    0    0 -0.11193116583E+04  0.17072379537E+03  0.14530166163E+04  0.18484193634E+04  0.15294330000E+03 0.  0.
<mgrwt>
<rscale>  0 0.12658851E+04</rscale>
<asrwt>0</asrwt>
<pdfrwt beam="1">  1        2 0.33617038E+00 0.13098914E+04</pdfrwt>
<pdfrwt beam="2">  1       -2 0.28716216E+00 0.13098914E+04</pdfrwt>
<totfact> 0.19270375E-01</totfact>
</mgrwt>
</event>
<event>
 4    1  0.2665544E-007  0.6711989E+03  0.7818608E-02  0.1014818E+00
         -2   -1    0    0    0  501 -0.00000000000E+00  0.00000000000E+00  0.55811656397E+03  0.55811656397E+03  0.25500000000E-02 0.  1.
          2   -1    0    0  501    0  0.00000000000E+00 -0.00000000000E+00 -0.31438610563E+04  0.31438610563E+04  0.25500000000E-02 0. -1.
    8880023    1    1    2    0    0 -0.81236796534E+02  0.10049051876E+03 -0.30886192796E+04  0.31607083102E+04  0.65864270000E+03 0. -1.
    8880022    1    1    2    0    0  0.81236796534E+02 -0.10049051876E+03  0.50287478722E+03  0.54126931014E+03  0.15294330000E+03 0.  0.
<mgrwt>
<rscale>  0 0.49604051E+03</rscale>
<asrwt>0</asrwt>
<pdfrwt beam="1">  1        2 0.48367092E+00 0.67119890E+03</pdfrwt>
<pdfrwt beam="2">  1       -2 0.85864088E-01 0.67119890E+03</pdfrwt>
<totfact> 0.18145657E+00</totfact>
</mgrwt>
</event>
<event>
 4    1  0.2665544E-007  0.9018773E+03  0.7818608E-02  0.9523025E-01
         -2   -1    0    0    0  501 -0.00000000000E+00  0.00000000000E+00  0.64387567400E+03  0.64387567400E+03  0.25500000000E-02 0.  1.
          2   -1    0    0  501    0  0.00000000000E+00 -0.00000000000E+00 -0.25035933836E+04  0.25035933836E+04  0.25500000000E-02 0. -1.
    8880023    1    1    2    0    0 -0.38614744976E+03 -0.48006529075E+03 -0.22349548034E+04  0.24100634257E+04  0.65864270000E+03 0. -1.
    8880022    1    1    2    0    0  0.38614744976E+03  0.48006529075E+03  0.37523709383E+03  0.73740563189E+03  0.15294330000E+03 0.  0.
<mgrwt>
<rscale>  0 0.82607393E+03</rscale>
<asrwt>0</asrwt>
<pdfrwt beam="1">  1        2 0.38516821E+00 0.90187734E+03</pdfrwt>
<pdfrwt beam="2">  1       -2 0.99057797E-01 0.90187734E+03</pdfrwt>
<totfact> 0.29950787E+00</totfact>
</mgrwt>
</event>
<event>
 4    1  0.2665544E-007  0.1035362E+04  0.7818608E-02  0.9336688E-01
         -2   -1    0    0    0  501 -0.00000000000E+00  0.00000000000E+00  0.22323986247E+04  0.22323986247E+04  0.25500000000E-02 0.  1.
          2   -1    0    0  501    0  0.00000000000E+00 -0.00000000000E+00 -0.18255344884E+04  0.18255344884E+04  0.25500000000E-02 0. -1.
    8880023    1    1    2    0    0 -0.37081015577E+03  0.70757674681E+03 -0.15924866134E+04  0.18994706748E+04  0.65864270000E+03 0.  0.
    8880022    1    1    2    0    0  0.37081015577E+03 -0.70757674681E+03  0.19993507497E+04  0.21584624383E+04  0.15294330000E+03 0.  0.
<mgrwt>
<rscale>  0 0.97474309E+03</rscale>
<asrwt>0</asrwt>
<pdfrwt beam="1">  1        2 0.28085146E+00 0.10353624E+04</pdfrwt>
<pdfrwt beam="2">  1       -2 0.34344594E+00 0.10353624E+04</pdfrwt>
<totfact> 0.14402792E-01</totfact>
</mgrwt>
</event>
<event>
 4    1  0.2665544E-007  0.1078303E+04  0.7818608E-02  0.9285606E-01
          2   -1    0    0  501    0  0.00000000000E+00  0.00000000000E+00  0.10471497254E+04  0.10471497255E+04  0.25500000000E-02 0. -1.
         -2   -1    0    0    0  501 -0.00000000000E+00 -0.00000000000E+00 -0.21769235837E+04  0.21769235837E+04  0.25500000000E-02 0.  1.
    8880023    1    1    2    0    0 -0.65172771183E+03 -0.55152383479E+03  0.63946846472E+03  0.12536577182E+04  0.65864270000E+03 0.  0.
    8880022    1    1    2    0    0  0.65172771183E+03  0.55152383479E+03 -0.17692423229E+04  0.19704155909E+04  0.15294330000E+03 0.  0.
<mgrwt>
<rscale>  0 0.10211885E+04</rscale>
<asrwt>0</asrwt>
<pdfrwt beam="1">  1        2 0.16109996E+00 0.10783032E+04</pdfrwt>
<pdfrwt beam="2">  1       -2 0.33491132E+00 0.10783032E+04</pdfrwt>
<totfact> 0.45354809E-01</totfact>
</mgrwt>
</event>
<event>
 4    1  0.2665544E-007  0.1044490E+04  0.7818608E-02  0.9325534E-01
         -2   -1    0    0    0  501 -0.00000000000E+00  0.00000000000E+00  0.54602633887E+03  0.54602633888E+03  0.25500000000E-02 0.  1.
          2   -1    0    0  501    0  0.00000000000E+00 -0.00000000000E+00 -0.36581558603E+04  0.36581558603E+04  0.25500000000E-02 0. -1.
    8880023    1    1    2    0    0  0.58053724618E+03 -0.56579709536E+03 -0.32079301947E+04  0.33736888101E+04  0.65864270000E+03 0. -1.
    8880022    1    1    2    0    0 -0.58053724618E+03  0.56579709536E+03  0.95800673226E+02  0.83049338909E+03  0.15294330000E+03 0.  0.
<mgrwt>
<rscale>  0 0.98465739E+03</rscale>
<asrwt>0</asrwt>
<pdfrwt beam="1">  1        2 0.56279320E+00 0.10444903E+04</pdfrwt>
<pdfrwt beam="2">  1       -2 0.84004054E-01 0.10444903E+04</pdfrwt>
<totfact> 0.80009414E-01</totfact>
</mgrwt>
</event>
<event>
 4    1  0.2665544E-007  0.9327792E+03  0.7818608E-02  0.9475336E-01
         -2   -1    0    0    0  501 -0.00000000000E+00  0.00000000000E+00  0.75992837389E+03  0.75992837389E+03  0.25500000000E-02 0.  1.
          2   -1    0    0  501    0  0.00000000000E+00 -0.00000000000E+00 -0.18099785336E+04  0.18099785336E+04  0.25500000000E-02 0. -1.
    8880023    1    1    2    0    0 -0.34327773756E+03 -0.56429357823E+03 -0.14927273594E+04  0.17602022677E+04  0.65864270000E+03 0.  0.
    8880022    1    1    2    0    0  0.34327773756E+03  0.56429357823E+03  0.44267719968E+03  0.80970463977E+03  0.15294330000E+03 0.  0.
<mgrwt>
<rscale>  0 0.86126848E+03</rscale>
<asrwt>0</asrwt>
<pdfrwt beam="1">  1        2 0.27845823E+00 0.93277921E+03</pdfrwt>
<pdfrwt beam="2">  1       -2 0.11691206E+00 0.93277921E+03</pdfrwt>
<totfact> 0.48498827E+00</totfact>
</mgrwt>
</event>
<event>
 4    1  0.2665544E-007  0.1267095E+04  0.7818608E-02  0.9094509E-01
          2   -1    0    0  501    0  0.00000000000E+00  0.00000000000E+00  0.14796851737E+04  0.14796851737E+04  0.25500000000E-02 0. -1.
         -2   -1    0    0    0  501 -0.00000000000E+00 -0.00000000000E+00 -0.13368166739E+04  0.13368166739E+04  0.25500000000E-02 0.  1.
    8880023    1    1    2    0    0  0.10100223968E+04  0.38932563596E+03  0.83971373169E+03  0.15200819222E+04  0.65864270000E+03 0.  0.
    8880022    1    1    2    0    0 -0.10100223968E+04 -0.38932563596E+03 -0.69684523182E+03  0.12964199254E+04  0.15294330000E+03 0.  0.
<mgrwt>
<rscale>  0 0.12211892E+04</rscale>
<asrwt>0</asrwt>
<pdfrwt beam="1">  1        2 0.22764387E+00 0.12670951E+04</pdfrwt>
<pdfrwt beam="2">  1       -2 0.20566410E+00 0.12670951E+04</pdfrwt>
<totfact> 0.15333600E+00</totfact>
</mgrwt>
</event>
<event>
 4    1  0.2665544E-007  0.6605932E+03  0.7818608E-02  0.1023557E+00
          2   -1    0    0  501    0  0.00000000000E+00  0.00000000000E+00  0.12783909233E+04  0.12783909233E+04  0.25500000000E-02 0. -1.
         -2   -1    0    0    0  501 -0.00000000000E+00 -0.00000000000E+00 -0.28475317263E+03  0.28475317264E+03  0.25500000000E-02 0.  1.
    8880023    1    1    2    0    0  0.22024064860E+02 -0.45695302681E+02  0.11578729560E+04  0.13330615547E+04  0.65864270000E+03 0. -1.
    8880022    1    1    2    0    0 -0.22024064860E+02  0.45695302681E+02 -0.16423520530E+03  0.23008254127E+03  0.15294330000E+03 0.  0.
<mgrwt>
<rscale>  0 0.46424648E+03</rscale>
<asrwt>0</asrwt>
<pdfrwt beam="1">  1        2 0.19667553E+00 0.66059316E+03</pdfrwt>
<pdfrwt beam="2">  1       -2 0.43808180E-01 0.66059316E+03</pdfrwt>
<totfact> 0.86203486E+01</totfact>
</mgrwt>
</event>
<event>
 4    1  0.2665544E-007  0.1131780E+04  0.7818608E-02  0.9226471E-01
          2   -1    0    0  501    0  0.00000000000E+00  0.00000000000E+00  0.33853476728E+04  0.33853476728E+04  0.25500000000E-02 0. -1.
         -2   -1    0    0    0  501 -0.00000000000E+00 -0.00000000000E+00 -0.55480893045E+03  0.55480893045E+03  0.25500000000E-02 0.  1.
    8880023    1    1    2    0    0 -0.34135095159E+03 -0.85474903372E+03  0.27848292705E+04  0.30060273876E+04  0.65864270000E+03 0.  0.
    8880022    1    1    2    0    0  0.34135095159E+03  0.85474903372E+03  0.45709471891E+02  0.93412921571E+03  0.15294330000E+03 0.  0.
<mgrwt>
<rscale>  0 0.10784330E+04</rscale>
<asrwt>0</asrwt>
<pdfrwt beam="1">  1        2 0.52082272E+00 0.11317803E+04</pdfrwt>
<pdfrwt beam="2">  1       -2 0.85355221E-01 0.11317803E+04</pdfrwt>
<totfact> 0.11760152E+00</totfact>
</mgrwt>
</event>
<event>
 4    1  0.2665544E-007  0.1357226E+04  0.7818608E-02  0.9017653E-01
         -2   -1    0    0    0  501 -0.00000000000E+00  0.00000000000E+00  0.11713559960E+04  0.11713559960E+04  0.25500000000E-02 0.  1.
          2   -1    0    0  501    0  0.00000000000E+00 -0.00000000000E+00 -0.27672692298E+04  0.27672692298E+04  0.25500000000E-02 0. -1.
    8880023    1    1    2    0    0  0.99986971282E+03  0.63915015888E+03 -0.22101865007E+04  0.25936435650E+04  0.65864270000E+03 0.  0.
    8880022    1    1    2    0    0 -0.99986971282E+03 -0.63915015888E+03  0.61427326690E+03  0.13449816607E+04  0.15294330000E+03 0.  0.
<mgrwt>
<rscale>  0 0.13151295E+04</rscale>
<asrwt>0</asrwt>
<pdfrwt beam="1">  1        2 0.42573373E+00 0.13572261E+04</pdfrwt>
<pdfrwt beam="2">  1       -2 0.18020862E+00 0.13572261E+04</pdfrwt>
<totfact> 0.41942393E-01</totfact>
</mgrwt>
</event>
<event>
 4    1  0.2665544E-007  0.7949487E+03  0.7818608E-02  0.9721826E-01
         -2   -1    0    0    0  501 -0.00000000000E+00  0.00000000000E+00  0.78164146153E+03  0.78164146154E+03  0.25500000000E-02 0.  1.
          2   -1    0    0  501    0  0.00000000000E+00 -0.00000000000E+00 -0.98563591869E+03  0.98563591869E+03  0.25500000000E-02 0. -1.
    8880023    1    1    2    0    0 -0.19014136616E+03 -0.40246681824E+03 -0.71738710087E+03  0.10707883720E+04  0.65864270000E+03 0. -1.
    8880022    1    1    2    0    0  0.19014136616E+03  0.40246681824E+03  0.51339264372E+03  0.69648900820E+03  0.15294330000E+03 0.  0.
<mgrwt>
<rscale>  0 0.69732007E+03</rscale>
<asrwt>0</asrwt>
<pdfrwt beam="1">  1        2 0.15163629E+00 0.79494873E+03</pdfrwt>
<pdfrwt beam="2">  1       -2 0.12025253E+00 0.79494873E+03</pdfrwt>
<totfact> 0.13753274E+01</totfact>
</mgrwt>
</event>
<event>
 4    1  0.2665544E-007  0.8117932E+03  0.7818608E-02  0.9685854E-01
          2   -1    0    0  501    0  0.00000000000E+00  0.00000000000E+00  0.15579573828E+04  0.15579573828E+04  0.25500000000E-02 0. -1.
         -2   -1    0    0    0  501 -0.00000000000E+00 -0.00000000000E+00 -0.10610818348E+04  0.10610818348E+04  0.25500000000E-02 0.  1.
    8880023    1    1    2    0    0  0.42952356571E+03 -0.20176099816E+03  0.13822071622E+04  0.16029675104E+04  0.65864270000E+03 0. -1.
    8880022    1    1    2    0    0 -0.42952356571E+03  0.20176099816E+03 -0.88533161423E+03  0.10160717071E+04  0.15294330000E+03 0.  0.
<mgrwt>
<rscale>  0 0.71865332E+03</rscale>
<asrwt>0</asrwt>
<pdfrwt beam="1">  1        2 0.23968575E+00 0.81179320E+03</pdfrwt>
<pdfrwt beam="2">  1       -2 0.16324336E+00 0.81179320E+03</pdfrwt>
<totfact> 0.28602619E+00</totfact>
</mgrwt>
</event>
<event>
 4    1  0.2665544E-007  0.6704830E+03  0.7818608E-02  0.1015319E+00
          2   -1    0    0  501    0  0.00000000000E+00  0.00000000000E+00  0.95494100112E+03  0.95494100112E+03  0.25500000000E-02 0. -1.
         -2   -1    0    0    0  501 -0.00000000000E+00 -0.00000000000E+00 -0.13508596351E+04  0.13508596352E+04  0.25500000000E-02 0.  1.
    8880023    1    1    2    0    0 -0.36703475617E+00  0.12544739283E+03  0.82832562394E+03  0.10656785297E+04  0.65864270000E+03 0. -1.
    8880022    1    1    2    0    0  0.36703475617E+00 -0.12544739283E+03 -0.12242442580E+04  0.12401221066E+04  0.15294330000E+03 0.  0.
<mgrwt>
<rscale>  0 0.49414331E+03</rscale>
<asrwt>0</asrwt>
<pdfrwt beam="1">  1        2 0.14691400E+00 0.67048295E+03</pdfrwt>
<pdfrwt beam="2">  1       -2 0.20782456E+00 0.67048295E+03</pdfrwt>
<totfact> 0.33075742E+00</totfact>
</mgrwt>
</event>
<event>
 4    1  0.2665544E-007  0.1127325E+04  0.7818608E-02  0.9231226E-01
          2   -1    0    0  501    0  0.00000000000E+00  0.00000000000E+00  0.14431146027E+04  0.14431146027E+04  0.25500000000E-02 0. -1.
         -2   -1    0    0    0  501 -0.00000000000E+00 -0.00000000000E+00 -0.13308801084E+04  0.13308801084E+04  0.25500000000E-02 0.  1.
    8880023    1    1    2    0    0  0.73775655162E+03 -0.54107986152E+03  0.98747487710E+03  0.14986557260E+04  0.65864270000E+03 0. -1.
    8880022    1    1    2    0    0 -0.73775655162E+03  0.54107986152E+03 -0.87524038288E+03  0.12753389851E+04  0.15294330000E+03 0.  0.
<mgrwt>
<rscale>  0 0.10736859E+04</rscale>
<asrwt>0</asrwt>
<pdfrwt beam="1">  1        2 0.22201763E+00 0.11273253E+04</pdfrwt>
<pdfrwt beam="2">  1       -2 0.20475079E+00 0.11273253E+04</pdfrwt>
<totfact> 0.16559244E+00</totfact>
</mgrwt>
</event>
<event>
 4    1  0.2665544E-007  0.8340263E+03  0.7818608E-02  0.9641549E-01
          2   -1    0    0  501    0  0.00000000000E+00  0.00000000000E+00  0.32689877950E+04  0.32689877950E+04  0.25500000000E-02 0. -1.
         -2   -1    0    0    0  501 -0.00000000000E+00 -0.00000000000E+00 -0.45593342596E+03  0.45593342597E+03  0.25500000000E-02 0.  1.
    8880023    1    1    2    0    0 -0.66969596046E+02 -0.50725217123E+03  0.30343331506E+04  0.31468678980E+04  0.65864270000E+03 0. -1.
    8880022    1    1    2    0    0  0.66969596046E+02  0.50725217123E+03 -0.22127878160E+03  0.57805332298E+03  0.15294330000E+03 0.  0.
<mgrwt>
<rscale>  0 0.74606206E+03</rscale>
<asrwt>0</asrwt>
<pdfrwt beam="1">  1        2 0.50292122E+00 0.83402632E+03</pdfrwt>
<pdfrwt beam="2">  1       -2 0.70143601E-01 0.83402632E+03</pdfrwt>
<totfact> 0.22899528E+00</totfact>
</mgrwt>
</event>
<event>
 4    1  0.2665544E-007  0.8300246E+03  0.7818608E-02  0.9649285E-01
         -2   -1    0    0    0  501 -0.00000000000E+00  0.00000000000E+00  0.37018935290E+03  0.37018935291E+03  0.25500000000E-02 0.  1.
          2   -1    0    0  501    0  0.00000000000E+00 -0.00000000000E+00 -0.18793054039E+04  0.18793054039E+04  0.25500000000E-02 0. -1.
    8880023    1    1    2    0    0 -0.45851701129E+03 -0.21187909878E+03 -0.15084613510E+04  0.17217422733E+04  0.65864270000E+03 0.  0.
    8880022    1    1    2    0    0  0.45851701129E+03  0.21187909878E+03 -0.65470001289E+00  0.52775248345E+03  0.15294330000E+03 0.  0.
<mgrwt>
<rscale>  0 0.74118343E+03</rscale>
<asrwt>0</asrwt>
<pdfrwt beam="1">  1        2 0.28912390E+00 0.83002458E+03</pdfrwt>
<pdfrwt beam="2">  1       -2 0.56952209E-01 0.83002458E+03</pdfrwt>
<totfact> 0.23005209E+01</totfact>
</mgrwt>
</event>
<event>
 4    1  0.2665544E-007  0.8512676E+03  0.7818608E-02  0.9609289E-01
          2   -1    0    0  501    0  0.00000000000E+00  0.00000000000E+00  0.15688294265E+04  0.15688294265E+04  0.25500000000E-02 0. -1.
         -2   -1    0    0    0  501 -0.00000000000E+00 -0.00000000000E+00 -0.15439248761E+04  0.15439248761E+04  0.25500000000E-02 0.  1.
    8880023    1    1    2    0    0  0.52143209728E+03  0.13767702504E+03  0.13939851814E+04  0.16333558362E+04  0.65864270000E+03 0. -1.
    8880022    1    1    2    0    0 -0.52143209728E+03 -0.13767702504E+03 -0.13690806310E+04  0.14793984664E+04  0.15294330000E+03 0.  0.
<mgrwt>
<rscale>  0 0.76684385E+03</rscale>
<asrwt>0</asrwt>
<pdfrwt beam="1">  1        2 0.24135837E+00 0.85126764E+03</pdfrwt>
<pdfrwt beam="2">  1       -2 0.23752690E+00 0.85126764E+03</pdfrwt>
<totfact> 0.90995716E-01</totfact>
</mgrwt>
</event>
<event>
 4    1  0.2665544E-007  0.8467207E+03  0.7818608E-02  0.9617636E-01
          2   -1    0    0  501    0  0.00000000000E+00  0.00000000000E+00  0.11991597947E+04  0.11991597947E+04  0.25500000000E-02 0. -1.
         -2   -1    0    0    0  501 -0.00000000000E+00 -0.00000000000E+00 -0.63218683011E+03  0.63218683011E+03  0.25500000000E-02 0.  1.
    8880023    1    1    2    0    0  0.19163532713E+03 -0.49638864575E+03  0.85836478931E+03  0.12057056457E+04  0.65864270000E+03 0.  0.
    8880022    1    1    2    0    0 -0.19163532713E+03  0.49638864575E+03 -0.29139182472E+03  0.62564097913E+03  0.15294330000E+03 0.  0.
<mgrwt>
<rscale>  0 0.76139854E+03</rscale>
<asrwt>0</asrwt>
<pdfrwt beam="1">  1        2 0.18448612E+00 0.84672073E+03</pdfrwt>
<pdfrwt beam="2">  1       -2 0.97259513E-01 0.84672073E+03</pdfrwt>
<totfact> 0.16869955E+01</totfact>
</mgrwt>
</event>
<event>
 4    1  0.2665544E-007  0.1730034E+04  0.7818608E-02  0.8762260E-01
          2   -1    0    0  501    0  0.00000000000E+00  0.00000000000E+00  0.17480242726E+04  0.17480242726E+04  0.25500000000E-02 0. -1.
         -2   -1    0    0    0  501 -0.00000000000E+00 -0.00000000000E+00 -0.17738458784E+04  0.17738458784E+04  0.25500000000E-02 0.  1.
    8880023    1    1    2    0    0  0.88694344058E+03  0.13313666792E+04 -0.57577119390E+03  0.18233289816E+04  0.65864270000E+03 0.  0.
    8880022    1    1    2    0    0 -0.88694344058E+03 -0.13313666792E+04  0.54994958812E+03  0.16985411693E+04  0.15294330000E+03 0.  0.
<mgrwt>
<rscale>  0 0.16984313E+04</rscale>
<asrwt>0</asrwt>
<pdfrwt beam="1">  1        2 0.26892681E+00 0.17300336E+04</pdfrwt>
<pdfrwt beam="2">  1       -2 0.27289937E+00 0.17300336E+04</pdfrwt>
<totfact> 0.39358712E-01</totfact>
</mgrwt>
</event>
<event>
 4    1  0.2665544E-007  0.1353652E+04  0.7818608E-02  0.9020560E-01
          2   -1    0    0  501    0  0.00000000000E+00  0.00000000000E+00  0.29494585468E+04  0.29494585468E+04  0.25500000000E-02 0. -1.
         -2   -1    0    0    0  501 -0.00000000000E+00 -0.00000000000E+00 -0.12662768448E+04  0.12662768448E+04  0.25500000000E-02 0.  1.
    8880023    1    1    2    0    0  0.11213012620E+04  0.37582851281E+03  0.24492361243E+04  0.27984158715E+04  0.65864270000E+03 0.  0.
    8880022    1    1    2    0    0 -0.11213012620E+04 -0.37582851281E+03 -0.76605442222E+03  0.14173195201E+04  0.15294330000E+03 0.  0.
<mgrwt>
<rscale>  0 0.13114176E+04</rscale>
<asrwt>0</asrwt>
<pdfrwt beam="1">  1        2 0.45376286E+00 0.13536520E+04</pdfrwt>
<pdfrwt beam="2">  1       -2 0.19481182E+00 0.13536520E+04</pdfrwt>
<totfact> 0.25885144E-01</totfact>
</mgrwt>
</event>
<event>
 4    1  0.2665544E-007  0.1000458E+04  0.7818608E-02  0.9380959E-01
         -2   -1    0    0    0  501 -0.00000000000E+00  0.00000000000E+00  0.10908460544E+04  0.10908460544E+04  0.25500000000E-02 0.  1.
          2   -1    0    0  501    0  0.00000000000E+00 -0.00000000000E+00 -0.26702603886E+04  0.26702603886E+04  0.25500000000E-02 0. -1.
    8880023    1    1    2    0    0  0.40503237774E+03 -0.63486580047E+03 -0.24221433445E+04  0.26206286267E+04  0.65864270000E+03 0. -1.
    8880022    1    1    2    0    0 -0.40503237774E+03  0.63486580047E+03  0.84272901035E+03  0.11404778163E+04  0.15294330000E+03 0.  0.
<mgrwt>
<rscale>  0 0.93659400E+03</rscale>
<asrwt>0</asrwt>
<pdfrwt beam="1">  1        2 0.41080929E+00 0.10004579E+04</pdfrwt>
<pdfrwt beam="2">  1       -2 0.16782247E+00 0.10004579E+04</pdfrwt>
<totfact> 0.61651651E-01</totfact>
</mgrwt>
</event>
<event>
 4    1  0.2665544E-007  0.6831236E+03  0.7818608E-02  0.1007609E+00
          2   -1    0    0  501    0  0.00000000000E+00  0.00000000000E+00  0.35899283729E+04  0.35899283730E+04  0.25500000000E-02 0. -1.
         -2   -1    0    0    0  501 -0.00000000000E+00 -0.00000000000E+00 -0.69301197866E+03  0.69301197866E+03  0.25500000000E-02 0.  1.
    8880023    1    1    2    0    0 -0.11097536649E+03 -0.14329039493E+03  0.35359443206E+04  0.36013275488E+04  0.65864270000E+03 0. -1.
    8880022    1    1    2    0    0  0.11097536649E+03  0.14329039493E+03 -0.63902792633E+03  0.68161280277E+03  0.15294330000E+03 0.  0.
<mgrwt>
<rscale>  0 0.52435992E+03</rscale>
<asrwt>0</asrwt>
<pdfrwt beam="1">  1        2 0.55229667E+00 0.68312362E+03</pdfrwt>
<pdfrwt beam="2">  1       -2 0.10661723E+00 0.68312362E+03</pdfrwt>
<totfact> 0.55346745E-01</totfact>
</mgrwt>
</event>
<event>
 4    1  0.2665544E-007  0.7879327E+03  0.7818608E-02  0.9737522E-01
          2   -1    0    0  501    0  0.00000000000E+00  0.00000000000E+00  0.37383186520E+04  0.37383186520E+04  0.25500000000E-02 0. -1.
         -2   -1    0    0    0  501 -0.00000000000E+00 -0.00000000000E+00 -0.18600113314E+03  0.18600113316E+03  0.25500000000E-02 0.  1.
    8880023    1    1    2    0    0 -0.91482802305E+02 -0.42268021187E+03  0.33159682455E+04  0.34082962424E+04  0.65864270000E+03 0. -1.
    8880022    1    1    2    0    0  0.91482802305E+02  0.42268021187E+03  0.23634927332E+03  0.51602354271E+03  0.15294330000E+03 0.  0.
<mgrwt>
<rscale>  0 0.68825999E+03</rscale>
<asrwt>0</asrwt>
<pdfrwt beam="1">  1        2 0.57512589E+00 0.78793266E+03</pdfrwt>
<pdfrwt beam="2">  1       -2 0.28615562E-01 0.78793266E+03</pdfrwt>
<totfact> 0.66270196E+00</totfact>
</mgrwt>
</event>
<event>
 4    1  0.2665544E-007  0.1059663E+04  0.7818608E-02  0.9307354E-01
         -2   -1    0    0    0  501 -0.00000000000E+00  0.00000000000E+00  0.91687467509E+03  0.91687467510E+03  0.25500000000E-02 0.  1.
          2   -1    0    0  501    0  0.00000000000E+00 -0.00000000000E+00 -0.13297225799E+04  0.13297225799E+04  0.25500000000E-02 0. -1.
    8880023    1    1    2    0    0 -0.29990831770E+03 -0.77403510158E+03 -0.79035371490E+03  0.13219472525E+04  0.65864270000E+03 0.  0.
    8880022    1    1    2    0    0  0.29990831770E+03  0.77403510158E+03  0.37750581007E+03  0.92465000252E+03  0.15294330000E+03 0.  0.
<mgrwt>
<rscale>  0 0.10010860E+04</rscale>
<asrwt>0</asrwt>
<pdfrwt beam="1">  1        2 0.20457271E+00 0.10596629E+04</pdfrwt>
<pdfrwt beam="2">  1       -2 0.14105764E+00 0.10596629E+04</pdfrwt>
<totfact> 0.55163038E+00</totfact>
</mgrwt>
</event>
<event>
 4    1  0.2665544E-007  0.1017425E+04  0.7818608E-02  0.9359107E-01
          2   -1    0    0  501    0  0.00000000000E+00  0.00000000000E+00  0.27644864043E+04  0.27644864043E+04  0.25500000000E-02 0. -1.
         -2   -1    0    0    0  501 -0.00000000000E+00 -0.00000000000E+00 -0.72717316097E+03  0.72717316098E+03  0.25500000000E-02 0.  1.
    8880023    1    1    2    0    0 -0.41366713962E+03  0.65591410141E+03  0.24113633723E+04  0.26172174786E+04  0.65864270000E+03 0. -1.
    8880022    1    1    2    0    0  0.41366713962E+03 -0.65591410141E+03 -0.37405012901E+03  0.87444208663E+03  0.15294330000E+03 0.  0.
<mgrwt>
<rscale>  0 0.95518806E+03</rscale>
<asrwt>0</asrwt>
<pdfrwt beam="1">  1        2 0.42530559E+00 0.10174252E+04</pdfrwt>
<pdfrwt beam="2">  1       -2 0.11187280E+00 0.10174252E+04</pdfrwt>
<totfact> 0.15480849E+00</totfact>
</mgrwt>
</event>
<event>
 4    1  0.2665544E-007  0.6663370E+03  0.7818608E-02  0.1018437E+00
         -2   -1    0    0    0  501 -0.00000000000E+00  0.00000000000E+00  0.88392318614E+02  0.88392318651E+02  0.25500000000E-02 0.  1.
          2   -1    0    0  501    0  0.00000000000E+00 -0.00000000000E+00 -0.26867453434E+04  0.26867453434E+04  0.25500000000E-02 0. -1.
    8880023    1    1    2    0    0 -0.37888595979E+02 -0.93590893875E+02 -0.24510522210E+04  0.25400122042E+04  0.65864270000E+03 0.  0.
    8880022    1    1    2    0    0  0.37888595979E+02  0.93590893875E+02 -0.14730080378E+03  0.23512545785E+03  0.15294330000E+03 0.  0.
<mgrwt>
<rscale>  0 0.48254850E+03</rscale>
<asrwt>0</asrwt>
<pdfrwt beam="1">  1        2 0.41334538E+00 0.66633701E+03</pdfrwt>
<pdfrwt beam="2">  1       -2 0.13598820E-01 0.66633701E+03</pdfrwt>
<totfact> 0.11789491E+02</totfact>
</mgrwt>
</event>
<event>
 4    1  0.2665544E-007  0.7140637E+03  0.7818608E-02  0.9943209E-01
         -2   -1    0    0    0  501 -0.00000000000E+00  0.00000000000E+00  0.14082392655E+03  0.14082392657E+03  0.25500000000E-02 0.  1.
          2   -1    0    0  501    0  0.00000000000E+00 -0.00000000000E+00 -0.21251094963E+04  0.21251094963E+04  0.25500000000E-02 0. -1.
    8880023    1    1    2    0    0  0.27486008275E+03  0.22994784227E+02 -0.97498464678E+03  0.12085040724E+04  0.65864270000E+03 0.  0.
    8880022    1    1    2    0    0 -0.27486008275E+03 -0.22994784227E+02 -0.10093009229E+04  0.10574293505E+04  0.15294330000E+03 0.  0.
<mgrwt>
<rscale>  0 0.58212121E+03</rscale>
<asrwt>0</asrwt>
<pdfrwt beam="1">  1        2 0.32693990E+00 0.71406374E+03</pdfrwt>
<pdfrwt beam="2">  1       -2 0.21665221E-01 0.71406374E+03</pdfrwt>
<totfact> 0.10884670E+02</totfact>
</mgrwt>
</event>
<event>
 4    1  0.2665544E-007  0.8266315E+03  0.7818608E-02  0.9655922E-01
          2   -1    0    0  501    0  0.00000000000E+00  0.00000000000E+00  0.10049696640E+04  0.10049696640E+04  0.25500000000E-02 0. -1.
         -2   -1    0    0    0  501 -0.00000000000E+00 -0.00000000000E+00 -0.85007822165E+03  0.85007822166E+03  0.25500000000E-02 0.  1.
    8880023    1    1    2    0    0 -0.37578707174E+01  0.49949509933E+03  0.71224161569E+03  0.10911497611E+04  0.65864270000E+03 0. -1.
    8880022    1    1    2    0    0  0.37578707174E+01 -0.49949509933E+03 -0.55735017337E+03  0.76389812450E+03  0.15294330000E+03 0.  0.
<mgrwt>
<rscale>  0 0.73702911E+03</rscale>
<asrwt>0</asrwt>
<pdfrwt beam="1">  1        2 0.15461072E+00 0.82663153E+03</pdfrwt>
<pdfrwt beam="2">  1       -2 0.13078127E+00 0.82663153E+03</pdfrwt>
<totfact> 0.10788744E+01</totfact>
</mgrwt>
</event>
<event>
 4    1  0.2665544E-007  0.1601056E+04  0.7818608E-02  0.8841387E-01
          2   -1    0    0  501    0  0.00000000000E+00  0.00000000000E+00  0.32534705945E+04  0.32534705945E+04  0.25500000000E-02 0. -1.
         -2   -1    0    0    0  501 -0.00000000000E+00 -0.00000000000E+00 -0.10495409094E+04  0.10495409094E+04  0.25500000000E-02 0.  1.
    8880023    1    1    2    0    0  0.14241435459E+04 -0.31841291404E+03 -0.63407287499E+02  0.16023115532E+04  0.65864270000E+03 0.  0.
    8880022    1    1    2    0    0 -0.14241435459E+04  0.31841291404E+03  0.22673369726E+04  0.27006999507E+04  0.15294330000E+03 0.  0.
<mgrwt>
<rscale>  0 0.15665150E+04</rscale>
<asrwt>0</asrwt>
<pdfrwt beam="1">  1        2 0.50053393E+00 0.16010565E+04</pdfrwt>
<pdfrwt beam="2">  1       -2 0.16146783E+00 0.16010565E+04</pdfrwt>
<totfact> 0.27545622E-01</totfact>
</mgrwt>
</event>
<event>
 4    1  0.2665544E-007  0.1039810E+04  0.7818608E-02  0.9331233E-01
          2   -1    0    0  501    0  0.00000000000E+00  0.00000000000E+00  0.68500345890E+03  0.68500345890E+03  0.25500000000E-02 0. -1.
         -2   -1    0    0    0  501 -0.00000000000E+00 -0.00000000000E+00 -0.13838042473E+04  0.13838042473E+04  0.25500000000E-02 0.  1.
    8880023    1    1    2    0    0  0.20293900906E+03 -0.77859475188E+03 -0.81092613232E+02  0.10429670403E+04  0.65864270000E+03 0.  0.
    8880022    1    1    2    0    0 -0.20293900906E+03  0.77859475188E+03 -0.61770817517E+03  0.10258406659E+04  0.15294330000E+03 0.  0.
<mgrwt>
<rscale>  0 0.97957654E+03</rscale>
<asrwt>0</asrwt>
<pdfrwt beam="1">  1        2 0.10538515E+00 0.10398097E+04</pdfrwt>
<pdfrwt beam="2">  1       -2 0.21289296E+00 0.10398097E+04</pdfrwt>
<totfact> 0.45767453E+00</totfact>
</mgrwt>
</event>
<event>
 4    1  0.2665544E-007  0.9792174E+03  0.7818608E-02  0.9409267E-01
          2   -1    0    0  501    0  0.00000000000E+00  0.00000000000E+00  0.14151196093E+04  0.14151196093E+04  0.25500000000E-02 0. -1.
         -2   -1    0    0    0  501 -0.00000000000E+00 -0.00000000000E+00 -0.13010907600E+04  0.13010907600E+04  0.25500000000E-02 0.  1.
    8880023    1    1    2    0    0 -0.49686327944E+02  0.72290227879E+03  0.11067047836E+04  0.14777219360E+04  0.65864270000E+03 0. -1.
    8880022    1    1    2    0    0  0.49686327944E+02 -0.72290227879E+03 -0.99267593435E+03  0.12384884333E+04  0.15294330000E+03 0.  0.
<mgrwt>
<rscale>  0 0.91316923E+03</rscale>
<asrwt>0</asrwt>
<pdfrwt beam="1">  1        2 0.21771071E+00 0.97921736E+03</pdfrwt>
<pdfrwt beam="2">  1       -2 0.20016781E+00 0.97921736E+03</pdfrwt>
<totfact> 0.18739355E+00</totfact>
</mgrwt>
</event>
<event>
 4    1  0.2665544E-007  0.1447574E+04  0.7818608E-02  0.8947571E-01
          2   -1    0    0  501    0  0.00000000000E+00  0.00000000000E+00  0.23640837168E+04  0.23640837168E+04  0.25500000000E-02 0. -1.
         -2   -1    0    0    0  501 -0.00000000000E+00 -0.00000000000E+00 -0.18434678040E+04  0.18434678040E+04  0.25500000000E-02 0.  1.
    8880023    1    1    2    0    0  0.10440333939E+04 -0.75607823615E+03  0.18503161502E+04  0.23492850164E+04  0.65864270000E+03 0.  0.
    8880022    1    1    2    0    0 -0.10440333939E+04  0.75607823615E+03 -0.13297002374E+04  0.18582665043E+04  0.15294330000E+03 0.  0.
<mgrwt>
<rscale>  0 0.14086633E+04</rscale>
<asrwt>0</asrwt>
<pdfrwt beam="1">  1        2 0.36370519E+00 0.14475739E+04</pdfrwt>
<pdfrwt beam="2">  1       -2 0.28361043E+00 0.14475739E+04</pdfrwt>
<totfact> 0.15750918E-01</totfact>
</mgrwt>
</event>
<event>
 4    1  0.2665544E-007  0.1018951E+04  0.7818608E-02  0.9357174E-01
          2   -1    0    0  501    0  0.00000000000E+00  0.00000000000E+00  0.13713980764E+04  0.13713980764E+04  0.25500000000E-02 0. -1.
         -2   -1    0    0    0  501 -0.00000000000E+00 -0.00000000000E+00 -0.74055983988E+03  0.74055983989E+03  0.25500000000E-02 0.  1.
    8880023    1    1    2    0    0  0.47236004967E+03  0.61751606838E+03  0.80751969178E+03  0.13001339816E+04  0.65864270000E+03 0.  0.
    8880022    1    1    2    0    0 -0.47236004967E+03 -0.61751606838E+03 -0.17668145529E+03  0.81182393466E+03  0.15294330000E+03 0.  0.
<mgrwt>
<rscale>  0 0.95685498E+03</rscale>
<asrwt>0</asrwt>
<pdfrwt beam="1">  1        2 0.21098432E+00 0.10189506E+04</pdfrwt>
<pdfrwt beam="2">  1       -2 0.11393228E+00 0.10189506E+04</pdfrwt>
<totfact> 0.89918149E+00</totfact>
</mgrwt>
</event>
<event>
 4    1  0.2747432E-007  0.8680033E+03  0.7818608E-02  0.9579483E-01
          2   -1    0    0  501    0  0.00000000000E+00  0.00000000000E+00  0.21391355441E+04  0.21391355441E+04  0.25500000000E-02 0. -1.
         -2   -1    0    0    0  501 -0.00000000000E+00 -0.00000000000E+00 -0.18112253881E+04  0.18112253881E+04  0.25500000000E-02 0.  1.
    8880023    1    1    2    0    0 -0.40655025283E+03  0.39285680722E+03  0.19991573981E+04  0.21794632568E+04  0.65864270000E+03 0. -1.
    8880022    1    1    2    0    0  0.40655025283E+03 -0.39285680722E+03 -0.16712472422E+04  0.17708976754E+04  0.15294330000E+03 0.  0.
<mgrwt>
<rscale>  0 0.78669173E+03</rscale>
<asrwt>0</asrwt>
<pdfrwt beam="1">  1        2 0.32909778E+00 0.86800333E+03</pdfrwt>
<pdfrwt beam="2">  1       -2 0.27865006E+00 0.86800333E+03</pdfrwt>
<totfact> 0.24837832E-01</totfact>
</mgrwt>
</event>
<event>
 4    1  0.2665544E-007  0.1649300E+04  0.7818608E-02  0.8810825E-01
         -2   -1    0    0    0  501 -0.00000000000E+00  0.00000000000E+00  0.11688365402E+04  0.11688365402E+04  0.25500000000E-02 0.  1.
          2   -1    0    0  501    0  0.00000000000E+00 -0.00000000000E+00 -0.41163660915E+04  0.41163660915E+04  0.25500000000E-02 0. -1.
    8880023    1    1    2    0    0  0.24680919090E+03 -0.14917989973E+04 -0.33317216856E+04  0.37176011919E+04  0.65864270000E+03 0.  0.
    8880022    1    1    2    0    0 -0.24680919090E+03  0.14917989973E+04  0.38419213437E+03  0.15676014399E+04  0.15294330000E+03 0.  0.
<mgrwt>
<rscale>  0 0.16159234E+04</rscale>
<asrwt>0</asrwt>
<pdfrwt beam="1">  1        2 0.63328708E+00 0.16492996E+04</pdfrwt>
<pdfrwt beam="2">  1       -2 0.17982101E+00 0.16492996E+04</pdfrwt>
<totfact> 0.46846169E-02</totfact>
</mgrwt>
</event>
<event>
 4    1  0.2665544E-007  0.7740018E+03  0.7818608E-02  0.9770120E-01
          2   -1    0    0  501    0  0.00000000000E+00  0.00000000000E+00  0.32290974995E+04  0.32290974995E+04  0.25500000000E-02 0. -1.
         -2   -1    0    0    0  501 -0.00000000000E+00 -0.00000000000E+00 -0.13364048238E+03  0.13364048240E+03  0.25500000000E-02 0.  1.
    8880023    1    1    2    0    0 -0.36283214769E+03 -0.18336126080E+03  0.25533632740E+04  0.26680972124E+04  0.65864270000E+03 0. -1.
    8880022    1    1    2    0    0  0.36283214769E+03  0.18336126080E+03  0.54209374315E+03  0.69464076956E+03  0.15294330000E+03 0.  0.
<mgrwt>
<rscale>  0 0.66991004E+03</rscale>
<asrwt>0</asrwt>
<pdfrwt beam="1">  1        2 0.49678425E+00 0.77400176E+03</pdfrwt>
<pdfrwt beam="2">  1       -2 0.20560073E-01 0.77400176E+03</pdfrwt>
<totfact> 0.26777507E+01</totfact>
</mgrwt>
</event>
<event>
 4    1  0.2665544E-007  0.1517273E+04  0.7818608E-02  0.8897534E-01
         -2   -1    0    0    0  501 -0.00000000000E+00  0.00000000000E+00  0.24655296934E+04  0.24655296934E+04  0.25500000000E-02 0.  1.
          2   -1    0    0  501    0  0.00000000000E+00 -0.00000000000E+00 -0.15891135598E+04  0.15891135598E+04  0.25500000000E-02 0. -1.
    8880023    1    1    2    0    0 -0.13603325738E+04  0.13342484861E+03 -0.93349069949E+03  0.17814381813E+04  0.65864270000E+03 0.  0.
    8880022    1    1    2    0    0  0.13603325738E+04 -0.13342484861E+03  0.18099068330E+04  0.22732050719E+04  0.15294330000E+03 0.  0.
<mgrwt>
<rscale>  0 0.14804859E+04</rscale>
<asrwt>0</asrwt>
<pdfrwt beam="1">  1        2 0.24447901E+00 0.15172729E+04</pdfrwt>
<pdfrwt beam="2">  1       -2 0.37931226E+00 0.15172729E+04</pdfrwt>
<totfact> 0.10751999E-01</totfact>
</mgrwt>
</event>
<event>
 4    1  0.2665544E-007  0.1075462E+04  0.7818608E-02  0.9288881E-01
          2   -1    0    0  501    0  0.00000000000E+00  0.00000000000E+00  0.13885182340E+04  0.13885182340E+04  0.25500000000E-02 0. -1.
         -2   -1    0    0    0  501 -0.00000000000E+00 -0.00000000000E+00 -0.79984431724E+03  0.79984431725E+03  0.25500000000E-02 0.  1.
    8880023    1    1    2    0    0  0.74933057751E+03  0.40163629314E+03  0.74794051674E+03  0.13099745223E+04  0.65864270000E+03 0.  0.
    8880022    1    1    2    0    0 -0.74933057751E+03 -0.40163629314E+03 -0.15926660002E+03  0.87838802887E+03  0.15294330000E+03 0.  0.
<mgrwt>
<rscale>  0 0.10181298E+04</rscale>
<asrwt>0</asrwt>
<pdfrwt beam="1">  1        2 0.21361819E+00 0.10754619E+04</pdfrwt>
<pdfrwt beam="2">  1       -2 0.12305297E+00 0.10754619E+04</pdfrwt>
<totfact> 0.72231956E+00</totfact>
</mgrwt>
</event>
<event>
 4    1  0.2665544E-007  0.8554182E+03  0.7818608E-02  0.9601766E-01
         -2   -1    0    0    0  501 -0.00000000000E+00  0.00000000000E+00  0.39159424164E+03  0.39159424165E+03  0.25500000000E-02 0.  1.
          2   -1    0    0  501    0  0.00000000000E+00 -0.00000000000E+00 -0.23349367692E+04  0.23349367692E+04  0.25500000000E-02 0. -1.
    8880023    1    1    2    0    0  0.54034139226E+03  0.77209057362E+02 -0.19816386089E+04  0.21583863976E+04  0.65864270000E+03 0. -1.
    8880022    1    1    2    0    0 -0.54034139226E+03 -0.77209057362E+02  0.38296081345E+02  0.56814461327E+03  0.15294330000E+03 0.  0.
<mgrwt>
<rscale>  0 0.77179394E+03</rscale>
<asrwt>0</asrwt>
<pdfrwt beam="1">  1        2 0.35922103E+00 0.85541818E+03</pdfrwt>
<pdfrwt beam="2">  1       -2 0.60245269E-01 0.85541818E+03</pdfrwt>
<totfact> 0.11425374E+01</totfact>
</mgrwt>
</event>
<event>
 4    1  0.2665544E-007  0.7982653E+03  0.7818608E-02  0.9714559E-01
          2   -1    0    0  501    0  0.00000000000E+00  0.00000000000E+00  0.17585652543E+04  0.17585652543E+04  0.25500000000E-02 0. -1.
         -2   -1    0    0    0  501 -0.00000000000E+00 -0.00000000000E+00 -0.72146996136E+03  0.72146996136E+03  0.25500000000E-02 0.  1.
    8880023    1    1    2    0    0  0.44620361506E+03 -0.65723625332E+02  0.15724721920E+04  0.17634897963E+04  0.65864270000E+03 0. -1.
    8880022    1    1    2    0    0 -0.44620361506E+03  0.65723625332E+02 -0.53537689899E+03  0.71654541936E+03  0.15294330000E+03 0.  0.
<mgrwt>
<rscale>  0 0.70156505E+03</rscale>
<asrwt>0</asrwt>
<pdfrwt beam="1">  1        2 0.27054850E+00 0.79826529E+03</pdfrwt>
<pdfrwt beam="2">  1       -2 0.11099538E+00 0.79826529E+03</pdfrwt>
<totfact> 0.59829674E+00</totfact>
</mgrwt>
</event>
<event>
 4    1  0.2665544E-007  0.9232528E+03  0.7818608E-02  0.9489689E-01
          2   -1    0    0  501    0  0.00000000000E+00  0.00000000000E+00  0.10076075920E+04  0.10076075920E+04  0.25500000000E-02 0. -1.
         -2   -1    0    0    0  501 -0.00000000000E+00 -0.00000000000E+00 -0.11274689753E+04  0.11274689753E+04  0.25500000000E-02 0.  1.
    8880023    1    1    2    0    0 -0.58700714864E+03  0.27204427137E+03  0.64155236934E+03  0.11242709313E+04  0.65864270000E+03 0. -1.
    8880022    1    1    2    0    0  0.58700714864E+03 -0.27204427137E+03 -0.76141375260E+03  0.10108056360E+04  0.15294330000E+03 0.  0.
<mgrwt>
<rscale>  0 0.85048262E+03</rscale>
<asrwt>0</asrwt>
<pdfrwt beam="1">  1        2 0.15501655E+00 0.92325277E+03</pdfrwt>
<pdfrwt beam="2">  1       -2 0.17345677E+00 0.92325277E+03</pdfrwt>
<totfact> 0.50140099E+00</totfact>
</mgrwt>
</event>
<event>
 4    1  0.2737534E-007  0.9775527E+03  0.7818608E-02  0.9411533E-01
          2   -1    0    0  501    0  0.00000000000E+00  0.00000000000E+00  0.22559555571E+04  0.22559555571E+04  0.25500000000E-02 0. -1.
         -2   -1    0    0    0  501 -0.00000000000E+00 -0.00000000000E+00 -0.13251125312E+04  0.13251125312E+04  0.25500000000E-02 0.  1.
    8880023    1    1    2    0    0  0.31400946616E+03  0.65053599684E+03  0.20322067736E+04  0.22550994667E+04  0.65864270000E+03 0.  0.
    8880022    1    1    2    0    0 -0.31400946616E+03 -0.65053599684E+03 -0.11013637476E+04  0.13259686216E+04  0.15294330000E+03 0.  0.
<mgrwt>
<rscale>  0 0.91132583E+03</rscale>
<asrwt>0</asrwt>
<pdfrwt beam="1">  1        2 0.34707008E+00 0.97755268E+03</pdfrwt>
<pdfrwt beam="2">  1       -2 0.20386347E+00 0.97755268E+03</pdfrwt>
<totfact> 0.60637212E-01</totfact>
</mgrwt>
</event>
<event>
 4    1  0.2665544E-007  0.1848381E+04  0.7818608E-02  0.8696235E-01
         -2   -1    0    0    0  501 -0.00000000000E+00  0.00000000000E+00  0.12871353156E+04  0.12871353156E+04  0.25500000000E-02 0.  1.
          2   -1    0    0  501    0  0.00000000000E+00 -0.00000000000E+00 -0.40098878242E+04  0.40098878242E+04  0.25500000000E-02 0. -1.
    8880023    1    1    2    0    0  0.14366377908E+04 -0.95852772627E+03 -0.30172257850E+04  0.35383845449E+04  0.65864270000E+03 0.  0.
    8880022    1    1    2    0    0 -0.14366377908E+04  0.95852772627E+03  0.29447327637E+03  0.17586385949E+04  0.15294330000E+03 0.  0.
<mgrwt>
<rscale>  0 0.18190475E+04</rscale>
<asrwt>0</asrwt>
<pdfrwt beam="1">  1        2 0.61690581E+00 0.18483814E+04</pdfrwt>
<pdfrwt beam="2">  1       -2 0.19802082E+00 0.18483814E+04</pdfrwt>
<totfact> 0.41995408E-02</totfact>
</mgrwt>
</event>
<event>
 4    1  0.2665544E-007  0.9515118E+03  0.7818608E-02  0.9447942E-01
         -2   -1    0    0    0  501 -0.00000000000E+00  0.00000000000E+00  0.44944662764E+03  0.44944662765E+03  0.25500000000E-02 0.  1.
          2   -1    0    0  501    0  0.00000000000E+00 -0.00000000000E+00 -0.21209767271E+04  0.21209767271E+04  0.25500000000E-02 0. -1.
    8880023    1    1    2    0    0 -0.63216767822E+03 -0.26819489726E+03 -0.16022543507E+04  0.18634896530E+04  0.65864270000E+03 0.  0.
    8880022    1    1    2    0    0  0.63216767822E+03  0.26819489726E+03 -0.69275748782E+02  0.70693370176E+03  0.15294330000E+03 0.  0.
<mgrwt>
<rscale>  0 0.88233086E+03</rscale>
<asrwt>0</asrwt>
<pdfrwt beam="1">  1        2 0.32630411E+00 0.95151179E+03</pdfrwt>
<pdfrwt beam="2">  1       -2 0.69145636E-01 0.95151179E+03</pdfrwt>
<totfact> 0.11034096E+01</totfact>
</mgrwt>
</event>
<event>
 4    1  0.2665544E-007  0.1367726E+04  0.7818608E-02  0.9009175E-01
         -2   -1    0    0    0  501 -0.00000000000E+00  0.00000000000E+00  0.48110714289E+03  0.48110714290E+03  0.25500000000E-02 0.  1.
          2   -1    0    0  501    0  0.00000000000E+00 -0.00000000000E+00 -0.40906688835E+04  0.40906688835E+04  0.25500000000E-02 0. -1.
    8880023    1    1    2    0    0  0.35757600683E+03  0.11441169815E+04 -0.28030761421E+04  0.31189598158E+04  0.65864270000E+03 0. -1.
    8880022    1    1    2    0    0 -0.35757600683E+03 -0.11441169815E+04 -0.80648559854E+03  0.14528162106E+04  0.15294330000E+03 0.  0.
<mgrwt>
<rscale>  0 0.13260288E+04</rscale>
<asrwt>0</asrwt>
<pdfrwt beam="1">  1        2 0.62933365E+00 0.13677260E+04</pdfrwt>
<pdfrwt beam="2">  1       -2 0.74016486E-01 0.13677260E+04</pdfrwt>
<totfact> 0.47139412E-01</totfact>
</mgrwt>
</event>
<event>
 4    1  0.2665544E-007  0.7927771E+03  0.7818608E-02  0.9726637E-01
          2   -1    0    0  501    0  0.00000000000E+00  0.00000000000E+00  0.31727002149E+04  0.31727002149E+04  0.25500000000E-02 0. -1.
         -2   -1    0    0    0  501 -0.00000000000E+00 -0.00000000000E+00 -0.22886059749E+03  0.22886059751E+03  0.25500000000E-02 0.  1.
    8880023    1    1    2    0    0  0.44067319240E+03  0.22192680702E+02  0.28042496134E+04  0.29141570785E+04  0.65864270000E+03 0. -1.
    8880022    1    1    2    0    0 -0.44067319240E+03 -0.22192680702E+02  0.13959000397E+03  0.48740373388E+03  0.15294330000E+03 0.  0.
<mgrwt>
<rscale>  0 0.69452771E+03</rscale>
<asrwt>0</asrwt>
<pdfrwt beam="1">  1        2 0.48810768E+00 0.79277713E+03</pdfrwt>
<pdfrwt beam="2">  1       -2 0.35209326E-01 0.79277713E+03</pdfrwt>
<totfact> 0.10845883E+01</totfact>
</mgrwt>
</event>
<event>
 4    1  0.2665544E-007  0.9648487E+03  0.7818608E-02  0.9429064E-01
         -2   -1    0    0    0  501 -0.00000000000E+00  0.00000000000E+00  0.14278721818E+04  0.14278721818E+04  0.25500000000E-02 0.  1.
          2   -1    0    0  501    0  0.00000000000E+00 -0.00000000000E+00 -0.16992829583E+04  0.16992829583E+04  0.25500000000E-02 0. -1.
    8880023    1    1    2    0    0  0.17544290888E+03  0.68289286340E+03 -0.14521364513E+04  0.17434544321E+04  0.65864270000E+03 0.  0.
    8880022    1    1    2    0    0 -0.17544290888E+03 -0.68289286340E+03  0.11807256748E+04  0.13837007080E+04  0.15294330000E+03 0.  0.
<mgrwt>
<rscale>  0 0.89721914E+03</rscale>
<asrwt>0</asrwt>
<pdfrwt beam="1">  1        2 0.26142815E+00 0.96484874E+03</pdfrwt>
<pdfrwt beam="2">  1       -2 0.21967264E+00 0.96484874E+03</pdfrwt>
<totfact> 0.97669214E-01</totfact>
</mgrwt>
</event>
<event>
 4    1  0.2665544E-007  0.1892121E+04  0.7818608E-02  0.8673220E-01
         -2   -1    0    0    0  501 -0.00000000000E+00  0.00000000000E+00  0.31116865160E+04  0.31116865160E+04  0.25500000000E-02 0.  1.
          2   -1    0    0  501    0  0.00000000000E+00 -0.00000000000E+00 -0.14620029918E+04  0.14620029918E+04  0.25500000000E-02 0. -1.
    8880023    1    1    2    0    0  0.79366399038E+03  0.15863191752E+04  0.20064914615E+04  0.27579211821E+04  0.65864270000E+03 0.  0.
    8880022    1    1    2    0    0 -0.79366399038E+03 -0.15863191752E+04 -0.35680793735E+03  0.18157683257E+04  0.15294330000E+03 0.  0.
<mgrwt>
<rscale>  0 0.18635411E+04</rscale>
<asrwt>0</asrwt>
<pdfrwt beam="1">  1        2 0.22492354E+00 0.18921208E+04</pdfrwt>
<pdfrwt beam="2">  1       -2 0.47872100E+00 0.18921208E+04</pdfrwt>
<totfact> 0.26930798E-02</totfact>
</mgrwt>
</event>
<event>
 4    1  0.2665544E-007  0.6727818E+03  0.7818608E-02  0.1013742E+00
          2   -1    0    0  501    0  0.00000000000E+00  0.00000000000E+00  0.18938776212E+04  0.18938776212E+04  0.25500000000E-02 0. -1.
         -2   -1    0    0    0  501 -0.00000000000E+00 -0.00000000000E+00 -0.51703765093E+03  0.51703765094E+03  0.25500000000E-02 0.  1.
    8880023    1    1    2    0    0 -0.13361096689E+03  0.31196187279E+02  0.18102721869E+04  0.19312484795E+04  0.65864270000E+03 0. -1.
    8880022    1    1    2    0    0  0.13361096689E+03 -0.31196187279E+02 -0.43343221662E+03  0.47966679267E+03  0.15294330000E+03 0.  0.
<mgrwt>
<rscale>  0 0.50013961E+03</rscale>
<asrwt>0</asrwt>
<pdfrwt beam="1">  1        2 0.29136579E+00 0.67278176E+03</pdfrwt>
<pdfrwt beam="2">  1       -2 0.79544254E-01 0.67278176E+03</pdfrwt>
<totfact> 0.11200242E+01</totfact>
</mgrwt>
</event>
<event>
 4    1  0.2665544E-007  0.9414978E+03  0.7818608E-02  0.9462454E-01
         -2   -1    0    0    0  501 -0.00000000000E+00  0.00000000000E+00  0.28786685290E+03  0.28786685291E+03  0.25500000000E-02 0.  1.
          2   -1    0    0  501    0  0.00000000000E+00 -0.00000000000E+00 -0.32600826403E+04  0.32600826403E+04  0.25500000000E-02 0. -1.
    8880023    1    1    2    0    0  0.17807981432E+02  0.67252564651E+03 -0.25974254807E+04  0.27627951794E+04  0.65864270000E+03 0.  0.
    8880022    1    1    2    0    0 -0.17807981432E+02 -0.67252564651E+03 -0.37479030667E+03  0.78515431375E+03  0.15294330000E+03 0.  0.
<mgrwt>
<rscale>  0 0.87109454E+03</rscale>
<asrwt>0</asrwt>
<pdfrwt beam="1">  1        2 0.50155115E+00 0.94149778E+03</pdfrwt>
<pdfrwt beam="2">  1       -2 0.44287210E-01 0.94149778E+03</pdfrwt>
<totfact> 0.59487838E+00</totfact>
</mgrwt>
</event>
<event>
 4    1  0.2665544E-007  0.1259040E+04  0.7818608E-02  0.9101764E-01
          2   -1    0    0  501    0  0.00000000000E+00  0.00000000000E+00  0.23984387088E+04  0.23984387089E+04  0.25500000000E-02 0. -1.
         -2   -1    0    0    0  501 -0.00000000000E+00 -0.00000000000E+00 -0.19033586399E+04  0.19033586399E+04  0.25500000000E-02 0.  1.
    8880023    1    1    2    0    0  0.10542376216E+04 -0.19988895628E+03  0.20503810200E+04  0.24060850133E+04  0.65864270000E+03 0.  0.
    8880022    1    1    2    0    0 -0.10542376216E+04  0.19988895628E+03 -0.15553009511E+04  0.18957123355E+04  0.15294330000E+03 0.  0.
<mgrwt>
<rscale>  0 0.12127564E+04</rscale>
<asrwt>0</asrwt>
<pdfrwt beam="1">  1        2 0.36899057E+00 0.12590404E+04</pdfrwt>
<pdfrwt beam="2">  1       -2 0.29282441E+00 0.12590404E+04</pdfrwt>
<totfact> 0.13592229E-01</totfact>
</mgrwt>
</event>
<event>
 4    1  0.2665544E-007  0.1854748E+04  0.7818608E-02  0.8692841E-01
          2   -1    0    0  501    0  0.00000000000E+00  0.00000000000E+00  0.18204239598E+04  0.18204239598E+04  0.25500000000E-02 0. -1.
         -2   -1    0    0    0  501 -0.00000000000E+00 -0.00000000000E+00 -0.20421362380E+04  0.20421362380E+04  0.25500000000E-02 0.  1.
    8880023    1    1    2    0    0 -0.14425247103E+04 -0.96197829351E+03  0.58401678210E+03  0.19445219426E+04  0.65864270000E+03 0.  0.
    8880022    1    1    2    0    0  0.14425247103E+04  0.96197829351E+03 -0.80572906025E+03  0.19180382553E+04  0.15294330000E+03 0.  0.
<mgrwt>
<rscale>  0 0.18255264E+04</rscale>
<asrwt>0</asrwt>
<pdfrwt beam="1">  1        2 0.28006523E+00 0.18547480E+04</pdfrwt>
<pdfrwt beam="2">  1       -2 0.31417481E+00 0.18547480E+04</pdfrwt>
<totfact> 0.19774772E-01</totfact>
</mgrwt>
</event>
<event>
 4    1  0.2665544E-007  0.1532190E+04  0.7818608E-02  0.8887234E-01
         -2   -1    0    0    0  501 -0.00000000000E+00  0.00000000000E+00  0.13100376285E+04  0.13100376285E+04  0.25500000000E-02 0.  1.
          2   -1    0    0  501    0  0.00000000000E+00 -0.00000000000E+00 -0.26392573007E+04  0.26392573007E+04  0.25500000000E-02 0. -1.
    8880023    1    1    2    0    0 -0.13829816268E+04 -0.34010276811E+02 -0.19035844853E+04  0.24436118714E+04  0.65864270000E+03 0. -1.
    8880022    1    1    2    0    0  0.13829816268E+04  0.34010276811E+02  0.57436481308E+03  0.15056830578E+04  0.15294330000E+03 0.  0.
<mgrwt>
<rscale>  0 0.14958251E+04</rscale>
<asrwt>0</asrwt>
<pdfrwt beam="1">  1        2 0.40603958E+00 0.15321896E+04</pdfrwt>
<pdfrwt beam="2">  1       -2 0.20154425E+00 0.15321896E+04</pdfrwt>
<totfact> 0.35115013E-01</totfact>
</mgrwt>
</event>
<event>
 4    1  0.2665544E-007  0.7024938E+03  0.7818608E-02  0.9987009E-01
          2   -1    0    0  501    0  0.00000000000E+00  0.00000000000E+00  0.10410858910E+04  0.10410858910E+04  0.25500000000E-02 0. -1.
         -2   -1    0    0    0  501 -0.00000000000E+00 -0.00000000000E+00 -0.44894877455E+03  0.44894877455E+03  0.25500000000E-02 0.  1.
    8880023    1    1    2    0    0 -0.11684180923E+03 -0.21455828300E+03  0.85039381649E+03  0.11030263436E+04  0.65864270000E+03 0. -1.
    8880022    1    1    2    0    0  0.11684180923E+03  0.21455828300E+03 -0.25825670002E+03  0.38700832202E+03  0.15294330000E+03 0.  0.
<mgrwt>
<rscale>  0 0.56223542E+03</rscale>
<asrwt>0</asrwt>
<pdfrwt beam="1">  1        2 0.16016706E+00 0.70249375E+03</pdfrwt>
<pdfrwt beam="2">  1       -2 0.69069043E-01 0.70249375E+03</pdfrwt>
<totfact> 0.46321647E+01</totfact>
</mgrwt>
</event>
<event>
 4    1  0.2665544E-007  0.6700379E+03  0.7818608E-02  0.1015636E+00
          2   -1    0    0  501    0  0.00000000000E+00  0.00000000000E+00  0.13630688784E+04  0.13630688784E+04  0.25500000000E-02 0. -1.
         -2   -1    0    0    0  501 -0.00000000000E+00 -0.00000000000E+00 -0.14043394515E+04  0.14043394515E+04  0.25500000000E-02 0.  1.
    8880023    1    1    2    0    0 -0.93869062480E+02 -0.79556091009E+02  0.12729950834E+04  0.14385643055E+04  0.65864270000E+03 0. -1.
    8880022    1    1    2    0    0  0.93869062480E+02  0.79556091009E+02 -0.13142656565E+04  0.13288440244E+04  0.15294330000E+03 0.  0.
<mgrwt>
<rscale>  0 0.49294962E+03</rscale>
<asrwt>0</asrwt>
<pdfrwt beam="1">  1        2 0.20970290E+00 0.67003789E+03</pdfrwt>
<pdfrwt beam="2">  1       -2 0.21605222E+00 0.67003789E+03</pdfrwt>
<totfact> 0.16681227E+00</totfact>
</mgrwt>
</event>
<event>
 4    1  0.2665544E-007  0.6682177E+03  0.7818608E-02  0.1016974E+00
         -2   -1    0    0    0  501 -0.00000000000E+00  0.00000000000E+00  0.73858284771E+03  0.73858284771E+03  0.25500000000E-02 0.  1.
          2   -1    0    0  501    0  0.00000000000E+00 -0.00000000000E+00 -0.97002771575E+03  0.97002771575E+03  0.25500000000E-02 0. -1.
    8880023    1    1    2    0    0 -0.11269644896E+03  0.20335125172E+01 -0.83868806164E+03  0.10723397296E+04  0.65864270000E+03 0. -1.
    8880022    1    1    2    0    0  0.11269644896E+03 -0.20335125172E+01  0.60724319360E+03  0.63627083382E+03  0.15294330000E+03 0.  0.
<mgrwt>
<rscale>  0 0.48794544E+03</rscale>
<asrwt>0</asrwt>
<pdfrwt beam="1">  1        2 0.14923503E+00 0.66821765E+03</pdfrwt>
<pdfrwt beam="2">  1       -2 0.11362813E+00 0.66821765E+03</pdfrwt>
<totfact> 0.16408733E+01</totfact>
</mgrwt>
</event>
<event>
 4    1  0.2665544E-007  0.6829595E+03  0.7818608E-02  0.1007697E+00
         -2   -1    0    0    0  501 -0.00000000000E+00  0.00000000000E+00  0.39583031703E+03  0.39583031704E+03  0.25500000000E-02 0.  1.
          2   -1    0    0  501    0  0.00000000000E+00 -0.00000000000E+00 -0.10735625265E+04  0.10735625265E+04  0.25500000000E-02 0. -1.
    8880023    1    1    2    0    0  0.13381914947E+03  0.12130940888E+03 -0.91000638646E+03  0.11377808959E+04  0.65864270000E+03 0. -1.
    8880022    1    1    2    0    0 -0.13381914947E+03 -0.12130940888E+03  0.23227417704E+03  0.33161194759E+03  0.15294330000E+03 0.  0.
<mgrwt>
<rscale>  0 0.52400383E+03</rscale>
<asrwt>0</asrwt>
<pdfrwt beam="1">  1        2 0.16516346E+00 0.68295955E+03</pdfrwt>
<pdfrwt beam="2">  1       -2 0.60896972E-01 0.68295955E+03</pdfrwt>
<totfact> 0.58041188E+01</totfact>
</mgrwt>
</event>
<event>
 4    1  0.2665544E-007  0.1160123E+04  0.7818608E-02  0.9196895E-01
         -2   -1    0    0    0  501 -0.00000000000E+00  0.00000000000E+00  0.20730994085E+04  0.20730994085E+04  0.25500000000E-02 0.  1.
          2   -1    0    0  501    0  0.00000000000E+00 -0.00000000000E+00 -0.15713553216E+04  0.15713553216E+04  0.25500000000E-02 0. -1.
    8880023    1    1    2    0    0  0.23053620552E+03 -0.92678420706E+03  0.17288390937E+04  0.20820112216E+04  0.65864270000E+03 0.  1.
    8880022    1    1    2    0    0 -0.23053620552E+03  0.92678420706E+03 -0.12270950068E+04  0.15624435085E+04  0.15294330000E+03 0.  0.
<mgrwt>
<rscale>  0 0.11085536E+04</rscale>
<asrwt>0</asrwt>
<pdfrwt beam="1">  1        2 0.24174697E+00 0.11601233E+04</pdfrwt>
<pdfrwt beam="2">  1       -2 0.31893837E+00 0.11601233E+04</pdfrwt>
<totfact> 0.27654168E-01</totfact>
</mgrwt>
</event>
<event>
 4    1  0.2665544E-007  0.1221869E+04  0.7818608E-02  0.9136152E-01
          2   -1    0    0  501    0  0.00000000000E+00  0.00000000000E+00  0.25857882561E+04  0.25857882561E+04  0.25500000000E-02 0. -1.
         -2   -1    0    0    0  501 -0.00000000000E+00 -0.00000000000E+00 -0.49547990940E+03  0.49547990941E+03  0.25500000000E-02 0.  1.
    8880023    1    1    2    0    0 -0.73700263327E+03 -0.71831844229E+03  0.10732663823E+04  0.16263041535E+04  0.65864270000E+03 0.  0.
    8880022    1    1    2    0    0  0.73700263327E+03  0.71831844229E+03  0.10170419644E+04  0.14549640120E+04  0.15294330000E+03 0. -1.
<mgrwt>
<rscale>  0 0.11737466E+04</rscale>
<asrwt>0</asrwt>
<pdfrwt beam="1">  1        2 0.39781358E+00 0.12218693E+04</pdfrwt>
<pdfrwt beam="2">  1       -2 0.76227679E-01 0.12218693E+04</pdfrwt>
<totfact> 0.47089960E+00</totfact>
</mgrwt>
</event>
<event>
 4    1  0.2665544E-007  0.6622499E+03  0.7818608E-02  0.1021961E+00
         -2   -1    0    0    0  501 -0.00000000000E+00  0.00000000000E+00  0.11663017740E+03  0.11663017743E+03  0.25500000000E-02 0.  1.
          2   -1    0    0  501    0  0.00000000000E+00 -0.00000000000E+00 -0.19171688857E+04  0.19171688857E+04  0.25500000000E-02 0. -1.
    8880023    1    1    2    0    0  0.65543581837E+02 -0.21650561621E+02 -0.17288094061E+04  0.18513122040E+04  0.65864270000E+03 0. -1.
    8880022    1    1    2    0    0 -0.65543581837E+02  0.21650561621E+02 -0.71729302239E+02  0.18248685912E+03  0.15294330000E+03 0.  0.
<mgrwt>
<rscale>  0 0.46985460E+03</rscale>
<asrwt>0</asrwt>
<pdfrwt beam="1">  1        2 0.29494904E+00 0.66224989E+03</pdfrwt>
<pdfrwt beam="2">  1       -2 0.17943106E-01 0.66224989E+03</pdfrwt>
<totfact> 0.19738977E+02</totfact>
</mgrwt>
</event>
<event>
 4    1  0.2665544E-007  0.1080864E+04  0.7818608E-02  0.9282666E-01
         -2   -1    0    0    0  501 -0.00000000000E+00  0.00000000000E+00  0.30792188664E+04  0.30792188664E+04  0.25500000000E-02 0.  1.
          2   -1    0    0  501    0  0.00000000000E+00 -0.00000000000E+00 -0.13681757298E+04  0.13681757298E+04  0.25500000000E-02 0. -1.
    8880023    1    1    2    0    0 -0.85685363984E+03  0.16096679885E+02 -0.10774567579E+04  0.15261653039E+04  0.65864270000E+03 0. -1.
    8880022    1    1    2    0    0  0.85685363984E+03 -0.16096679885E+02  0.27884998945E+04  0.29212292923E+04  0.15294330000E+03 0.  0.
<mgrwt>
<rscale>  0 0.10239440E+04</rscale>
<asrwt>0</asrwt>
<pdfrwt beam="1">  1        2 0.21048858E+00 0.10808642E+04</pdfrwt>
<pdfrwt beam="2">  1       -2 0.47372598E+00 0.10808642E+04</pdfrwt>
<totfact> 0.36608096E-02</totfact>
</mgrwt>
</event>
<event>
 4    1  0.2665544E-007  0.8193027E+03  0.7818608E-02  0.9670516E-01
          2   -1    0    0  501    0  0.00000000000E+00  0.00000000000E+00  0.37235452967E+04  0.37235452967E+04  0.25500000000E-02 0. -1.
         -2   -1    0    0    0  501 -0.00000000000E+00 -0.00000000000E+00 -0.24742098747E+03  0.24742098748E+03  0.25500000000E-02 0.  1.
    8880023    1    1    2    0    0 -0.42303675310E+03 -0.24184004552E+03  0.33447272064E+04  0.34436110398E+04  0.65864270000E+03 0. -1.
    8880022    1    1    2    0    0  0.42303675310E+03  0.24184004552E+03  0.13139710282E+03  0.52735524434E+03  0.15294330000E+03 0.  0.
<mgrwt>
<rscale>  0 0.72799722E+03</rscale>
<asrwt>0</asrwt>
<pdfrwt beam="1">  1        2 0.57285310E+00 0.81930270E+03</pdfrwt>
<pdfrwt beam="2">  1       -2 0.38064769E-01 0.81930270E+03</pdfrwt>
<totfact> 0.39390185E+00</totfact>
</mgrwt>
</event>
<event>
 4    1  0.2665544E-007  0.1638610E+04  0.7818608E-02  0.8817493E-01
          2   -1    0    0  501    0  0.00000000000E+00  0.00000000000E+00  0.30034547158E+04  0.30034547158E+04  0.25500000000E-02 0. -1.
         -2   -1    0    0    0  501 -0.00000000000E+00 -0.00000000000E+00 -0.13926538618E+04  0.13926538618E+04  0.25500000000E-02 0.  1.
    8880023    1    1    2    0    0  0.11789997051E+04 -0.92800399329E+03  0.22287032107E+04  0.27662537707E+04  0.65864270000E+03 0.  0.
    8880022    1    1    2    0    0 -0.11789997051E+04  0.92800399329E+03 -0.61790235675E+03  0.16298548069E+04  0.15294330000E+03 0.  0.
<mgrwt>
<rscale>  0 0.16049826E+04</rscale>
<asrwt>0</asrwt>
<pdfrwt beam="1">  1        2 0.46206995E+00 0.16386098E+04</pdfrwt>
<pdfrwt beam="2">  1       -2 0.21425444E+00 0.16386098E+04</pdfrwt>
<totfact> 0.17251990E-01</totfact>
</mgrwt>
</event>
<event>
 4    1  0.2665544E-007  0.8230591E+03  0.7818608E-02  0.9662991E-01
          2   -1    0    0  501    0  0.00000000000E+00  0.00000000000E+00  0.13463189766E+04  0.13463189766E+04  0.25500000000E-02 0. -1.
         -2   -1    0    0    0  501 -0.00000000000E+00 -0.00000000000E+00 -0.93388365656E+03  0.93388365657E+03  0.25500000000E-02 0.  1.
    8880023    1    1    2    0    0  0.29287937315E+03  0.39728808675E+03  0.11287498021E+04  0.13969618725E+04  0.65864270000E+03 0.  1.
    8880022    1    1    2    0    0 -0.29287937315E+03 -0.39728808675E+03 -0.71631448209E+03  0.88324076070E+03  0.15294330000E+03 0.  0.
<mgrwt>
<rscale>  0 0.73263688E+03</rscale>
<asrwt>0</asrwt>
<pdfrwt beam="1">  1        2 0.20712600E+00 0.82305915E+03</pdfrwt>
<pdfrwt beam="2">  1       -2 0.14367441E+00 0.82305915E+03</pdfrwt>
<totfact> 0.52837424E+00</totfact>
</mgrwt>
</event>
<event>
 4    1  0.2665544E-007  0.8643735E+03  0.7818608E-02  0.9585831E-01
          2   -1    0    0  501    0  0.00000000000E+00  0.00000000000E+00  0.17900239962E+04  0.17900239962E+04  0.25500000000E-02 0. -1.
         -2   -1    0    0    0  501 -0.00000000000E+00 -0.00000000000E+00 -0.42824273596E+03  0.42824273597E+03  0.25500000000E-02 0.  1.
    8880023    1    1    2    0    0 -0.22666982304E+03 -0.51181261251E+03  0.13905162414E+04  0.16372773079E+04  0.65864270000E+03 0.  0.
    8880022    1    1    2    0    0  0.22666982304E+03  0.51181261251E+03 -0.28734981151E+02  0.58098942431E+03  0.15294330000E+03 0.  0.
<mgrwt>
<rscale>  0 0.78241143E+03</rscale>
<asrwt>0</asrwt>
<pdfrwt beam="1">  1        2 0.27538831E+00 0.86437351E+03</pdfrwt>
<pdfrwt beam="2">  1       -2 0.65883498E-01 0.86437351E+03</pdfrwt>
<totfact> 0.18814599E+01</totfact>
</mgrwt>
</event>
<event>
 4    1  0.2665544E-007  0.1060012E+04  0.7818608E-02  0.9306941E-01
          2   -1    0    0  501    0  0.00000000000E+00  0.00000000000E+00  0.27787419615E+04  0.27787419615E+04  0.25500000000E-02 0. -1.
         -2   -1    0    0    0  501 -0.00000000000E+00 -0.00000000000E+00 -0.55241699615E+03  0.55241699616E+03  0.25500000000E-02 0.  1.
    8880023    1    1    2    0    0 -0.83055100549E+03  0.10882161929E+01  0.22490541293E+04  0.24863368316E+04  0.65864270000E+03 0.  0.
    8880022    1    1    2    0    0  0.83055100549E+03 -0.10882161929E+01 -0.22729163958E+02  0.84482212615E+03  0.15294330000E+03 0.  0.
<mgrwt>
<rscale>  0 0.10014637E+04</rscale>
<asrwt>0</asrwt>
<pdfrwt beam="1">  1        2 0.42749876E+00 0.10600124E+04</pdfrwt>
<pdfrwt beam="2">  1       -2 0.84987231E-01 0.10600124E+04</pdfrwt>
<totfact> 0.28910548E+00</totfact>
</mgrwt>
</event>
<event>
 4    1  0.2665544E-007  0.1003422E+04  0.7818608E-02  0.9377094E-01
         -2   -1    0    0    0  501 -0.00000000000E+00  0.00000000000E+00  0.12463804287E+04  0.12463804287E+04  0.25500000000E-02 0.  1.
          2   -1    0    0  501    0  0.00000000000E+00 -0.00000000000E+00 -0.11414821850E+04  0.11414821850E+04  0.25500000000E-02 0. -1.
    8880023    1    1    2    0    0 -0.68767357211E+03  0.31646597720E+03 -0.73729800622E+03  0.12451763782E+04  0.65864270000E+03 0. -1.
    8880022    1    1    2    0    0  0.68767357211E+03 -0.31646597720E+03  0.84219624995E+03  0.11426862356E+04  0.15294330000E+03 0.  0.
<mgrwt>
<rscale>  0 0.93984955E+03</rscale>
<asrwt>0</asrwt>
<pdfrwt beam="1">  1        2 0.17561264E+00 0.10034221E+04</pdfrwt>
<pdfrwt beam="2">  1       -2 0.19175084E+00 0.10034221E+04</pdfrwt>
<totfact> 0.30730199E+00</totfact>
</mgrwt>
</event>
<event>
 4    1  0.2665544E-007  0.9201904E+03  0.7818608E-02  0.9494367E-01
          2   -1    0    0  501    0  0.00000000000E+00  0.00000000000E+00  0.21388288911E+04  0.21388288911E+04  0.25500000000E-02 0. -1.
         -2   -1    0    0    0  501 -0.00000000000E+00 -0.00000000000E+00 -0.17083545663E+04  0.17083545663E+04  0.25500000000E-02 0.  1.
    8880023    1    1    2    0    0  0.61342843830E+03 -0.19143076694E+03  0.19686929800E+04  0.21731319434E+04  0.65864270000E+03 0. -1.
    8880022    1    1    2    0    0 -0.61342843830E+03  0.19143076694E+03 -0.15382186552E+04  0.16740515140E+04  0.15294330000E+03 0.  0.
<mgrwt>
<rscale>  0 0.84700386E+03</rscale>
<asrwt>0</asrwt>
<pdfrwt beam="1">  1        2 0.32905060E+00 0.92019041E+03</pdfrwt>
<pdfrwt beam="2">  1       -2 0.26282378E+00 0.92019041E+03</pdfrwt>
<totfact> 0.30628458E-01</totfact>
</mgrwt>
</event>
<event>
 4    1  0.2665544E-007  0.1010516E+04  0.7818608E-02  0.9367927E-01
         -2   -1    0    0    0  501 -0.00000000000E+00  0.00000000000E+00  0.64006293452E+03  0.64006293452E+03  0.25500000000E-02 0.  1.
          2   -1    0    0  501    0  0.00000000000E+00 -0.00000000000E+00 -0.19298260440E+04  0.19298260440E+04  0.25500000000E-02 0. -1.
    8880023    1    1    2    0    0  0.55103808605E+03 -0.53262442382E+03 -0.14546459702E+04  0.17711964470E+04  0.65864270000E+03 0. -1.
    8880022    1    1    2    0    0 -0.55103808605E+03  0.53262442382E+03  0.16488286068E+03  0.79869253151E+03  0.15294330000E+03 0.  0.
<mgrwt>
<rscale>  0 0.94762796E+03</rscale>
<asrwt>0</asrwt>
<pdfrwt beam="1">  1        2 0.29689631E+00 0.10105157E+04</pdfrwt>
<pdfrwt beam="2">  1       -2 0.98471222E-01 0.10105157E+04</pdfrwt>
<totfact> 0.62521322E+00</totfact>
</mgrwt>
</event>
<event>
 4    1  0.2665544E-007  0.1139834E+04  0.7818608E-02  0.9217950E-01
         -2   -1    0    0    0  501 -0.00000000000E+00  0.00000000000E+00  0.13951895822E+04  0.13951895822E+04  0.25500000000E-02 0.  1.
          2   -1    0    0  501    0  0.00000000000E+00 -0.00000000000E+00 -0.20334986949E+04  0.20334986949E+04  0.25500000000E-02 0. -1.
    8880023    1    1    2    0    0 -0.87269928158E+02 -0.92617221787E+03 -0.16758845453E+04  0.20267733551E+04  0.65864270000E+03 0. -1.
    8880022    1    1    2    0    0  0.87269928158E+02  0.92617221787E+03  0.10375754325E+04  0.14019149221E+04  0.15294330000E+03 0.  0.
<mgrwt>
<rscale>  0 0.10870057E+04</rscale>
<asrwt>0</asrwt>
<pdfrwt beam="1">  1        2 0.31284595E+00 0.11398339E+04</pdfrwt>
<pdfrwt beam="2">  1       -2 0.21464455E+00 0.11398339E+04</pdfrwt>
<totfact> 0.67030842E-01</totfact>
</mgrwt>
</event>
<event>
 4    1  0.2665544E-007  0.6990170E+03  0.7818608E-02  0.1000130E+00
         -2   -1    0    0    0  501 -0.00000000000E+00  0.00000000000E+00  0.12573085068E+04  0.12573085068E+04  0.25500000000E-02 0.  1.
          2   -1    0    0  501    0  0.00000000000E+00 -0.00000000000E+00 -0.14053832517E+04  0.14053832517E+04  0.25500000000E-02 0. -1.
    8880023    1    1    2    0    0  0.21759780569E+03 -0.86404444261E+02 -0.13006963691E+04  0.14766298737E+04  0.65864270000E+03 0. -1.
    8880022    1    1    2    0    0 -0.21759780569E+03  0.86404444261E+02  0.11526216242E+04  0.11860618848E+04  0.15294330000E+03 0.  0.
<mgrwt>
<rscale>  0 0.55593105E+03</rscale>
<asrwt>0</asrwt>
<pdfrwt beam="1">  1        2 0.21621281E+00 0.69901698E+03</pdfrwt>
<pdfrwt beam="2">  1       -2 0.19343208E+00 0.69901698E+03</pdfrwt>
<totfact> 0.21944194E+00</totfact>
</mgrwt>
</event>
<event>
 4    1  0.2665544E-007  0.9929421E+03  0.7818608E-02  0.9390850E-01
          2   -1    0    0  501    0  0.00000000000E+00  0.00000000000E+00  0.31188577228E+04  0.31188577228E+04  0.25500000000E-02 0. -1.
         -2   -1    0    0    0  501 -0.00000000000E+00 -0.00000000000E+00 -0.32183858038E+03  0.32183858039E+03  0.25500000000E-02 0.  1.
    8880023    1    1    2    0    0  0.70512576531E+03  0.23435345422E+03  0.23712632013E+04  0.25707631673E+04  0.65864270000E+03 0. -1.
    8880022    1    1    2    0    0 -0.70512576531E+03 -0.23435345422E+03  0.42575594108E+03  0.86993313581E+03  0.15294330000E+03 0.  0.
<mgrwt>
<rscale>  0 0.92832509E+03</rscale>
<asrwt>0</asrwt>
<pdfrwt beam="1">  1        2 0.47982427E+00 0.99294214E+03</pdfrwt>
<pdfrwt beam="2">  1       -2 0.49513627E-01 0.99294214E+03</pdfrwt>
<totfact> 0.58039288E+00</totfact>
</mgrwt>
</event>
<event>
 4    1  0.2665544E-007  0.1169186E+04  0.7818608E-02  0.9187674E-01
         -2   -1    0    0    0  501 -0.00000000000E+00  0.00000000000E+00  0.70626615179E+03  0.70626615179E+03  0.25500000000E-02 0.  1.
          2   -1    0    0  501    0  0.00000000000E+00 -0.00000000000E+00 -0.23793043078E+04  0.23793043078E+04  0.25500000000E-02 0. -1.
    8880023    1    1    2    0    0  0.82541230620E+03 -0.50187655768E+03 -0.17498491164E+04  0.21045112712E+04  0.65864270000E+03 0. -1.
    8880022    1    1    2    0    0 -0.82541230620E+03  0.50187655768E+03  0.76810960390E+02  0.98105918834E+03  0.15294330000E+03 0.  0.
<mgrwt>
<rscale>  0 0.11181568E+04</rscale>
<asrwt>0</asrwt>
<pdfrwt beam="1">  1        2 0.36604681E+00 0.11691859E+04</pdfrwt>
<pdfrwt beam="2">  1       -2 0.10865633E+00 0.11691859E+04</pdfrwt>
<totfact> 0.27221230E+00</totfact>
</mgrwt>
</event>
<event>
 4    1  0.2665544E-007  0.6659181E+03  0.7818608E-02  0.1018775E+00
         -2   -1    0    0    0  501 -0.00000000000E+00  0.00000000000E+00  0.82246186489E+02  0.82246186529E+02  0.25500000000E-02 0.  1.
          2   -1    0    0  501    0  0.00000000000E+00 -0.00000000000E+00 -0.25284862201E+04  0.25284862201E+04  0.25500000000E-02 0. -1.
    8880023    1    1    2    0    0 -0.80180116035E+02  0.56637640990E+02 -0.14183027526E+04  0.15668534002E+04  0.65864270000E+03 0.  1.
    8880022    1    1    2    0    0  0.80180116035E+02 -0.56637640990E+02 -0.10279372810E+04  0.10438790065E+04  0.15294330000E+03 0.  0.
<mgrwt>
<rscale>  0 0.48131170E+03</rscale>
<asrwt>0</asrwt>
<pdfrwt beam="1">  1        2 0.38899782E+00 0.66591807E+03</pdfrwt>
<pdfrwt beam="2">  1       -2 0.12653261E-01 0.66591807E+03</pdfrwt>
<totfact> 0.16378265E+02</totfact>
</mgrwt>
</event>
<event>
 4    1  0.2665544E-007  0.9805263E+03  0.7818608E-02  0.9407491E-01
         -2   -1    0    0    0  501 -0.00000000000E+00  0.00000000000E+00  0.41702796287E+03  0.41702796287E+03  0.25500000000E-02 0.  1.
          2   -1    0    0  501    0  0.00000000000E+00 -0.00000000000E+00 -0.35260334275E+04  0.35260334275E+04  0.25500000000E-02 0. -1.
    8880023    1    1    2    0    0 -0.22215623041E+03 -0.69156945533E+03 -0.30438752007E+04  0.31979068382E+04  0.65864270000E+03 0.  0.
    8880022    1    1    2    0    0  0.22215623041E+03  0.69156945533E+03 -0.65130263900E+02  0.74515455212E+03  0.15294330000E+03 0.  0.
<mgrwt>
<rscale>  0 0.91461794E+03</rscale>
<asrwt>0</asrwt>
<pdfrwt beam="1">  1        2 0.54246666E+00 0.98052634E+03</pdfrwt>
<pdfrwt beam="2">  1       -2 0.64158150E-01 0.98052634E+03</pdfrwt>
<totfact> 0.18212425E+00</totfact>
</mgrwt>
</event>
<event>
 4    1  0.2665544E-007  0.1650913E+04  0.7818608E-02  0.8809824E-01
          2   -1    0    0  501    0  0.00000000000E+00  0.00000000000E+00  0.20105490565E+04  0.20105490565E+04  0.25500000000E-02 0. -1.
         -2   -1    0    0    0  501 -0.00000000000E+00 -0.00000000000E+00 -0.21559872934E+04  0.21559872934E+04  0.25500000000E-02 0.  1.
    8880023    1    1    2    0    0 -0.56789192159E+03 -0.14032823323E+04  0.12742848667E+04  0.20855010588E+04  0.65864270000E+03 0.  0.
    8880022    1    1    2    0    0  0.56789192159E+03  0.14032823323E+04 -0.14197231035E+04  0.20810352910E+04  0.15294330000E+03 0.  0.
<mgrwt>
<rscale>  0 0.16175740E+04</rscale>
<asrwt>0</asrwt>
<pdfrwt beam="1">  1        2 0.30931524E+00 0.16509127E+04</pdfrwt>
<pdfrwt beam="2">  1       -2 0.33169036E+00 0.16509127E+04</pdfrwt>
<totfact> 0.12313175E-01</totfact>
</mgrwt>
</event>
<event>
 4    1  0.2665544E-007  0.7522917E+03  0.7818608E-02  0.9825488E-01
          2   -1    0    0  501    0  0.00000000000E+00  0.00000000000E+00  0.15132803246E+04  0.15132803246E+04  0.25500000000E-02 0. -1.
         -2   -1    0    0    0  501 -0.00000000000E+00 -0.00000000000E+00 -0.37309675367E+03  0.37309675368E+03  0.25500000000E-02 0.  1.
    8880023    1    1    2    0    0 -0.23286704506E+03 -0.27911565578E+03  0.12658087417E+04  0.14724858528E+04  0.65864270000E+03 0. -1.
    8880022    1    1    2    0    0  0.23286704506E+03  0.27911565578E+03 -0.12562517075E+03  0.41389122546E+03  0.15294330000E+03 0.  0.
<mgrwt>
<rscale>  0 0.64012454E+03</rscale>
<asrwt>0</asrwt>
<pdfrwt beam="1">  1        2 0.23281235E+00 0.75229171E+03</pdfrwt>
<pdfrwt beam="2">  1       -2 0.57399503E-01 0.75229171E+03</pdfrwt>
<totfact> 0.36283136E+01</totfact>
</mgrwt>
</event>
<event>
 4    1  0.5939247E-007  0.1119709E+04  0.7818608E-02  0.9239424E-01
          2   -1    0    0  501    0  0.00000000000E+00  0.00000000000E+00  0.28101359155E+04  0.28101359155E+04  0.25500000000E-02 0. -1.
         -2   -1    0    0    0  501 -0.00000000000E+00 -0.00000000000E+00 -0.28193124866E+04  0.28193124866E+04  0.25500000000E-02 0.  1.
    8880023    1    1    2    0    0  0.87486711634E+03  0.23354884596E+03  0.26174621096E+04  0.28469028146E+04  0.65864270000E+03 0. -1.
    8880022    1    1    2    0    0 -0.87486711634E+03 -0.23354884596E+03 -0.26266386807E+04  0.27825455875E+04  0.15294330000E+03 0.  0.
<mgrwt>
<rscale>  0 0.10655613E+04</rscale>
<asrwt>0</asrwt>
<pdfrwt beam="1">  1        2 0.43232860E+00 0.11197088E+04</pdfrwt>
<pdfrwt beam="2">  1       -2 0.43374038E+00 0.11197088E+04</pdfrwt>
<totfact> 0.10248173E-02</totfact>
</mgrwt>
</event>
<event>
 4    1  0.2665544E-007  0.7955926E+03  0.7818608E-02  0.9720408E-01
         -2   -1    0    0    0  501 -0.00000000000E+00  0.00000000000E+00  0.12330394800E+04  0.12330394800E+04  0.25500000000E-02 0.  1.
          2   -1    0    0  501    0  0.00000000000E+00 -0.00000000000E+00 -0.52518555736E+03  0.52518555736E+03  0.25500000000E-02 0. -1.
    8880023    1    1    2    0    0  0.43098881162E+03 -0.11578433889E+03 -0.12078568317E+03  0.80470911291E+03  0.65864270000E+03 0. -1.
    8880022    1    1    2    0    0 -0.43098881162E+03  0.11578433889E+03  0.82863960586E+03  0.95351592451E+03  0.15294330000E+03 0.  0.
<mgrwt>
<rscale>  0 0.69814601E+03</rscale>
<asrwt>0</asrwt>
<pdfrwt beam="1">  1        2 0.80797779E-01 0.79559259E+03</pdfrwt>
<pdfrwt beam="2">  1       -2 0.18969838E+00 0.79559259E+03</pdfrwt>
<totfact> 0.91728650E+00</totfact>
</mgrwt>
</event>
<event>
 4    1  0.2665544E-007  0.7033007E+03  0.7818608E-02  0.9983774E-01
         -2   -1    0    0    0  501 -0.00000000000E+00  0.00000000000E+00  0.11851059841E+04  0.11851059841E+04  0.25500000000E-02 0.  1.
          2   -1    0    0  501    0  0.00000000000E+00 -0.00000000000E+00 -0.24299596916E+04  0.24299596916E+04  0.25500000000E-02 0. -1.
    8880023    1    1    2    0    0  0.12460077366E+03  0.21282938403E+03 -0.23601105162E+04  0.24626720355E+04  0.65864270000E+03 0. -1.
    8880022    1    1    2    0    0 -0.12460077366E+03 -0.21282938403E+03  0.11152568088E+04  0.11523936402E+04  0.15294330000E+03 0.  0.
<mgrwt>
<rscale>  0 0.56367454E+03</rscale>
<asrwt>0</asrwt>
<pdfrwt beam="1">  1        2 0.37383995E+00 0.70330072E+03</pdfrwt>
<pdfrwt beam="2">  1       -2 0.18232400E+00 0.70330072E+03</pdfrwt>
<totfact> 0.71108741E-01</totfact>
</mgrwt>
</event>
<event>
 4    1  0.2665544E-007  0.1169752E+04  0.7818608E-02  0.9187101E-01
         -2   -1    0    0    0  501 -0.00000000000E+00  0.00000000000E+00  0.80360622227E+03  0.80360622227E+03  0.25500000000E-02 0.  1.
          2   -1    0    0  501    0  0.00000000000E+00 -0.00000000000E+00 -0.26984860553E+04  0.26984860553E+04  0.25500000000E-02 0. -1.
    8880023    1    1    2    0    0  0.89604467101E+03 -0.36278672771E+03 -0.21874483274E+04  0.24805746619E+04  0.65864270000E+03 0.  0.
    8880022    1    1    2    0    0 -0.89604467101E+03  0.36278672771E+03  0.29256849431E+03  0.10215176157E+04  0.15294330000E+03 0.  0.
<mgrwt>
<rscale>  0 0.11187565E+04</rscale>
<asrwt>0</asrwt>
<pdfrwt beam="1">  1        2 0.41515170E+00 0.11697523E+04</pdfrwt>
<pdfrwt beam="2">  1       -2 0.12363173E+00 0.11697523E+04</pdfrwt>
<totfact> 0.12942423E+00</totfact>
</mgrwt>
</event>
<event>
 4    1  0.2665544E-007  0.7584197E+03  0.7818608E-02  0.9809216E-01
         -2   -1    0    0    0  501 -0.00000000000E+00  0.00000000000E+00  0.34228140623E+03  0.34228140624E+03  0.25500000000E-02 0.  1.
          2   -1    0    0  501    0  0.00000000000E+00 -0.00000000000E+00 -0.23229643009E+04  0.23229643009E+04  0.25500000000E-02 0. -1.
    8880023    1    1    2    0    0  0.30033145613E+03  0.22625489155E+03 -0.21076228863E+04  0.22399273864E+04  0.65864270000E+03 0.  0.
    8880022    1    1    2    0    0 -0.30033145613E+03 -0.22625489155E+03  0.12693999156E+03  0.42531832075E+03  0.15294330000E+03 0.  0.
<mgrwt>
<rscale>  0 0.64870300E+03</rscale>
<asrwt>0</asrwt>
<pdfrwt beam="1">  1        2 0.35737911E+00 0.75841972E+03</pdfrwt>
<pdfrwt beam="2">  1       -2 0.52658679E-01 0.75841972E+03</pdfrwt>
<totfact> 0.15583354E+01</totfact>
</mgrwt>
</event>
<event>
 4    1  0.2665544E-007  0.1247268E+04  0.7818608E-02  0.9112490E-01
          2   -1    0    0  501    0  0.00000000000E+00  0.00000000000E+00  0.26298796999E+04  0.26298796999E+04  0.25500000000E-02 0. -1.
         -2   -1    0    0    0  501 -0.00000000000E+00 -0.00000000000E+00 -0.56022318272E+03  0.56022318272E+03  0.25500000000E-02 0.  1.
    8880023    1    1    2    0    0 -0.86355245871E+03 -0.61330601042E+03  0.15806933889E+04  0.20135215190E+04  0.65864270000E+03 0. -1.
    8880022    1    1    2    0    0  0.86355245871E+03  0.61330601042E+03  0.48896312820E+03  0.11765813636E+04  0.15294330000E+03 0.  0.
<mgrwt>
<rscale>  0 0.12004188E+04</rscale>
<asrwt>0</asrwt>
<pdfrwt beam="1">  1        2 0.40459687E+00 0.12472679E+04</pdfrwt>
<pdfrwt beam="2">  1       -2 0.86188183E-01 0.12472679E+04</pdfrwt>
<totfact> 0.33488783E+00</totfact>
</mgrwt>
</event>
<event>
 4    1  0.2665544E-007  0.8027563E+03  0.7818608E-02  0.9704868E-01
         -2   -1    0    0    0  501 -0.00000000000E+00  0.00000000000E+00  0.15458922663E+04  0.15458922663E+04  0.25500000000E-02 0.  1.
          2   -1    0    0  501    0  0.00000000000E+00 -0.00000000000E+00 -0.55401242278E+03  0.55401242279E+03  0.25500000000E-02 0. -1.
    8880023    1    1    2    0    0 -0.35329757417E+02 -0.45755788966E+03 -0.18820441340E+03  0.82452320867E+03  0.65864270000E+03 0. -1.
    8880022    1    1    2    0    0  0.35329757417E+02  0.45755788966E+03  0.11800842569E+04  0.12753814804E+04  0.15294330000E+03 0.  0.
<mgrwt>
<rscale>  0 0.70727701E+03</rscale>
<asrwt>0</asrwt>
<pdfrwt beam="1">  1        2 0.85232680E-01 0.80275626E+03</pdfrwt>
<pdfrwt beam="2">  1       -2 0.23782958E+00 0.80275626E+03</pdfrwt>
<totfact> 0.42535340E+00</totfact>
</mgrwt>
</event>
<event>
 4    1  0.2665544E-007  0.8612045E+03  0.7818608E-02  0.9591424E-01
         -2   -1    0    0    0  501 -0.00000000000E+00  0.00000000000E+00  0.15772804073E+03  0.15772804075E+03  0.25500000000E-02 0.  1.
          2   -1    0    0  501    0  0.00000000000E+00 -0.00000000000E+00 -0.47835444884E+04  0.47835444884E+04  0.25500000000E-02 0. -1.
    8880023    1    1    2    0    0  0.54669151748E+03  0.94822946215E+02 -0.39974163964E+04  0.40891332895E+04  0.65864270000E+03 0. -1.
    8880022    1    1    2    0    0 -0.54669151748E+03 -0.94822946215E+02 -0.62840005130E+03  0.85213923974E+03  0.15294330000E+03 0.  0.
<mgrwt>
<rscale>  0 0.77866378E+03</rscale>
<asrwt>0</asrwt>
<pdfrwt beam="1">  1        2 0.73592981E+00 0.86120451E+03</pdfrwt>
<pdfrwt beam="2">  1       -2 0.24265856E-01 0.86120451E+03</pdfrwt>
<totfact> 0.10559918E+00</totfact>
</mgrwt>
</event>
<event>
 4    1  0.2665544E-007  0.6727306E+03  0.7818608E-02  0.1013777E+00
          2   -1    0    0  501    0  0.00000000000E+00  0.00000000000E+00  0.26937993294E+03  0.26937993296E+03  0.25500000000E-02 0. -1.
         -2   -1    0    0    0  501 -0.00000000000E+00 -0.00000000000E+00 -0.20060172343E+04  0.20060172343E+04  0.25500000000E-02 0.  1.
    8880023    1    1    2    0    0  0.28123019832E+02 -0.13403479754E+03 -0.16801092142E+03  0.69339318368E+03  0.65864270000E+03 0. -1.
    8880022    1    1    2    0    0 -0.28123019832E+02  0.13403479754E+03 -0.15686263799E+04  0.15820039836E+04  0.15294330000E+03 0.  0.
<mgrwt>
<rscale>  0 0.50000903E+03</rscale>
<asrwt>0</asrwt>
<pdfrwt beam="1">  1        2 0.41443068E-01 0.67273058E+03</pdfrwt>
<pdfrwt beam="2">  1       -2 0.30861803E+00 0.67273058E+03</pdfrwt>
<totfact> 0.36687858E+00</totfact>
</mgrwt>
</event>
<event>
 4    1  0.2665544E-007  0.7544601E+03  0.7818608E-02  0.9819667E-01
         -2   -1    0    0    0  501 -0.00000000000E+00  0.00000000000E+00  0.63468281604E+03  0.63468281605E+03  0.25500000000E-02 0.  1.
          2   -1    0    0  501    0  0.00000000000E+00 -0.00000000000E+00 -0.12765517672E+04  0.12765517672E+04  0.25500000000E-02 0. -1.
    8880023    1    1    2    0    0 -0.11403630982E+02 -0.36779039466E+03 -0.10810046376E+04  0.13182492367E+04  0.65864270000E+03 0. -1.
    8880022    1    1    2    0    0  0.11403630982E+02  0.36779039466E+03  0.43913568641E+03  0.59298534661E+03  0.15294330000E+03 0.  0.
<mgrwt>
<rscale>  0 0.64317714E+03</rscale>
<asrwt>0</asrwt>
<pdfrwt beam="1">  1        2 0.19639258E+00 0.75446009E+03</pdfrwt>
<pdfrwt beam="2">  1       -2 0.97643511E-01 0.75446009E+03</pdfrwt>
<totfact> 0.15207747E+01</totfact>
</mgrwt>
</event>
<event>
 4    1  0.2665544E-007  0.7570471E+03  0.7818608E-02  0.9812813E-01
         -2   -1    0    0    0  501 -0.00000000000E+00  0.00000000000E+00  0.39656994989E+03  0.39656994989E+03  0.25500000000E-02 0.  1.
          2   -1    0    0  501    0  0.00000000000E+00 -0.00000000000E+00 -0.92028580574E+03  0.92028580575E+03  0.25500000000E-02 0. -1.
    8880023    1    1    2    0    0  0.37319118808E+03  0.62002340474E+01 -0.51085636396E+03  0.91328776222E+03  0.65864270000E+03 0.  0.
    8880022    1    1    2    0    0 -0.37319118808E+03 -0.62002340474E+01 -0.12859491896E+02  0.40356799342E+03  0.15294330000E+03 0.  0.
<mgrwt>
<rscale>  0 0.64679433E+03</rscale>
<asrwt>0</asrwt>
<pdfrwt beam="1">  1        2 0.14158243E+00 0.75704710E+03</pdfrwt>
<pdfrwt beam="2">  1       -2 0.61010762E-01 0.75704710E+03</pdfrwt>
<totfact> 0.71981021E+01</totfact>
</mgrwt>
</event>
<event>
 4    1  0.2665544E-007  0.8017269E+03  0.7818608E-02  0.9707075E-01
         -2   -1    0    0    0  501 -0.00000000000E+00  0.00000000000E+00  0.10507315213E+04  0.10507315213E+04  0.25500000000E-02 0.  1.
          2   -1    0    0  501    0  0.00000000000E+00 -0.00000000000E+00 -0.88202303543E+03  0.88202303543E+03  0.25500000000E-02 0. -1.
    8880023    1    1    2    0    0  0.43751412269E+03 -0.13242794319E+03 -0.61652895737E+03  0.10113723000E+04  0.65864270000E+03 0. -1.
    8880022    1    1    2    0    0 -0.43751412269E+03  0.13242794319E+03  0.78523744322E+03  0.92138225669E+03  0.15294330000E+03 0.  0.
<mgrwt>
<rscale>  0 0.70597133E+03</rscale>
<asrwt>0</asrwt>
<pdfrwt beam="1">  1        2 0.13569585E+00 0.80172687E+03</pdfrwt>
<pdfrwt beam="2">  1       -2 0.16165100E+00 0.80172687E+03</pdfrwt>
<totfact> 0.74740155E+00</totfact>
</mgrwt>
</event>
<event>
 4    1  0.2665544E-007  0.9244435E+03  0.7818608E-02  0.9487879E-01
         -2   -1    0    0    0  501 -0.00000000000E+00  0.00000000000E+00  0.47934993777E+03  0.47934993778E+03  0.25500000000E-02 0.  1.
          2   -1    0    0  501    0  0.00000000000E+00 -0.00000000000E+00 -0.18555256862E+04  0.18555256862E+04  0.25500000000E-02 0. -1.
    8880023    1    1    2    0    0  0.39134589142E+03 -0.51733355272E+03 -0.13887400335E+04  0.16682909514E+04  0.65864270000E+03 0. -1.
    8880022    1    1    2    0    0 -0.39134589142E+03  0.51733355272E+03  0.12564285064E+02  0.66658467262E+03  0.15294330000E+03 0.  0.
<mgrwt>
<rscale>  0 0.85183372E+03</rscale>
<asrwt>0</asrwt>
<pdfrwt beam="1">  1        2 0.28546549E+00 0.92444352E+03</pdfrwt>
<pdfrwt beam="2">  1       -2 0.73746145E-01 0.92444352E+03</pdfrwt>
<totfact> 0.13444969E+01</totfact>
</mgrwt>
</event>
<event>
 4    1  0.2665544E-007  0.8430723E+03  0.7818608E-02  0.9624414E-01
          2   -1    0    0  501    0  0.00000000000E+00  0.00000000000E+00  0.19300672229E+04  0.19300672229E+04  0.25500000000E-02 0. -1.
         -2   -1    0    0    0  501 -0.00000000000E+00 -0.00000000000E+00 -0.31231598943E+03  0.31231598944E+03  0.25500000000E-02 0.  1.
    8880023    1    1    2    0    0 -0.51734819853E+03 -0.96496019288E+02  0.14356249858E+04  0.16648693481E+04  0.65864270000E+03 0.  0.
    8880022    1    1    2    0    0  0.51734819853E+03  0.96496019288E+02  0.18212624770E+03  0.57751386423E+03  0.15294330000E+03 0.  0.
<mgrwt>
<rscale>  0 0.75701149E+03</rscale>
<asrwt>0</asrwt>
<pdfrwt beam="1">  1        2 0.29693341E+00 0.84307227E+03</pdfrwt>
<pdfrwt beam="2">  1       -2 0.48048615E-01 0.84307227E+03</pdfrwt>
<totfact> 0.30571796E+01</totfact>
</mgrwt>
</event>
<event>
 4    1  0.3572502E-007  0.9042978E+03  0.7818608E-02  0.9519167E-01
         -2   -1    0    0    0  501 -0.00000000000E+00  0.00000000000E+00  0.23969119582E+04  0.23969119582E+04  0.25500000000E-02 0.  1.
          2   -1    0    0  501    0  0.00000000000E+00 -0.00000000000E+00 -0.18967721365E+04  0.18967721365E+04  0.25500000000E-02 0. -1.
    8880023    1    1    2    0    0  0.54444621954E+03  0.29584217062E+03 -0.17418618489E+04  0.19626097888E+04  0.65864270000E+03 0. -1.
    8880022    1    1    2    0    0 -0.54444621954E+03 -0.29584217062E+03  0.22420016706E+04  0.23310743059E+04  0.15294330000E+03 0.  0.
<mgrwt>
<rscale>  0 0.82885334E+03</rscale>
<asrwt>0</asrwt>
<pdfrwt beam="1">  1        2 0.29181110E+00 0.90429778E+03</pdfrwt>
<pdfrwt beam="2">  1       -2 0.36875568E+00 0.90429778E+03</pdfrwt>
<totfact> 0.93780124E-02</totfact>
</mgrwt>
</event>
<event>
 4    1  0.2665544E-007  0.1470039E+04  0.7818608E-02  0.8931087E-01
         -2   -1    0    0    0  501 -0.00000000000E+00  0.00000000000E+00  0.29147549489E+04  0.29147549489E+04  0.25500000000E-02 0.  1.
          2   -1    0    0  501    0  0.00000000000E+00 -0.00000000000E+00 -0.19371304279E+04  0.19371304279E+04  0.25500000000E-02 0. -1.
    8880023    1    1    2    0    0 -0.13124303669E+04 -0.68789567084E+02 -0.14640821063E+04  0.20747414520E+04  0.65864270000E+03 0.  0.
    8880022    1    1    2    0    0  0.13124303669E+04  0.68789567084E+02  0.24417066273E+04  0.27771439248E+04  0.15294330000E+03 0.  0.
<mgrwt>
<rscale>  0 0.14318417E+04</rscale>
<asrwt>0</asrwt>
<pdfrwt beam="1">  1        2 0.29802007E+00 0.14700393E+04</pdfrwt>
<pdfrwt beam="2">  1       -2 0.44842384E+00 0.14700393E+04</pdfrwt>
<totfact> 0.24252809E-02</totfact>
</mgrwt>
</event>
<event>
 4    1  0.2665544E-007  0.1493066E+04  0.7818608E-02  0.8914547E-01
          2   -1    0    0  501    0  0.00000000000E+00  0.00000000000E+00  0.22068740249E+04  0.22068740249E+04  0.25500000000E-02 0. -1.
         -2   -1    0    0    0  501 -0.00000000000E+00 -0.00000000000E+00 -0.97484185637E+03  0.97484185637E+03  0.25500000000E-02 0.  1.
    8880023    1    1    2    0    0 -0.40207852843E+03  0.12781901568E+04  0.10397670979E+04  0.18194403106E+04  0.65864270000E+03 0.  0.
    8880022    1    1    2    0    0  0.40207852843E+03 -0.12781901568E+04  0.19226507065E+03  0.13622755706E+04  0.15294330000E+03 0.  0.
<mgrwt>
<rscale>  0 0.14555708E+04</rscale>
<asrwt>0</asrwt>
<pdfrwt beam="1">  1        2 0.33951908E+00 0.14930665E+04</pdfrwt>
<pdfrwt beam="2">  1       -2 0.14997567E+00 0.14930665E+04</pdfrwt>
<totfact> 0.14497050E+00</totfact>
</mgrwt>
</event>
<event>
 4    1  0.2665544E-007  0.9483726E+03  0.7818608E-02  0.9452459E-01
          2   -1    0    0  501    0  0.00000000000E+00  0.00000000000E+00  0.88503881420E+03  0.88503881421E+03  0.25500000000E-02 0. -1.
         -2   -1    0    0    0  501 -0.00000000000E+00 -0.00000000000E+00 -0.85521328450E+03  0.85521328450E+03  0.25500000000E-02 0.  1.
    8880023    1    1    2    0    0 -0.61962926967E+03  0.28576212590E+03  0.29375042266E+03  0.99282422488E+03  0.65864270000E+03 0. -1.
    8880022    1    1    2    0    0  0.61962926967E+03 -0.28576212590E+03 -0.26392489296E+03  0.74742787383E+03  0.15294330000E+03 0.  1.
<mgrwt>
<rscale>  0 0.87881403E+03</rscale>
<asrwt>0</asrwt>
<pdfrwt beam="1">  1        2 0.13615982E+00 0.94837262E+03</pdfrwt>
<pdfrwt beam="2">  1       -2 0.13157127E+00 0.94837262E+03</pdfrwt>
<totfact> 0.12601738E+01</totfact>
</mgrwt>
</event>
<event>
 4    1  0.2665544E-007  0.6892107E+03  0.7818608E-02  0.1004530E+00
          2   -1    0    0  501    0  0.00000000000E+00  0.00000000000E+00  0.23947698941E+03  0.23947698942E+03  0.25500000000E-02 0. -1.
         -2   -1    0    0    0  501 -0.00000000000E+00 -0.00000000000E+00 -0.13439113475E+04  0.13439113475E+04  0.25500000000E-02 0.  1.
    8880023    1    1    2    0    0 -0.92323818893E+02 -0.18076907010E+03 -0.32201565719E+03  0.76072691157E+03  0.65864270000E+03 0. -1.
    8880022    1    1    2    0    0  0.92323818893E+02  0.18076907010E+03 -0.78241870087E+03  0.82266142533E+03  0.15294330000E+03 0.  0.
<mgrwt>
<rscale>  0 0.53707756E+03</rscale>
<asrwt>0</asrwt>
<pdfrwt beam="1">  1        2 0.36842615E-01 0.68921067E+03</pdfrwt>
<pdfrwt beam="2">  1       -2 0.20675559E+00 0.68921067E+03</pdfrwt>
<totfact> 0.17365746E+01</totfact>
</mgrwt>
</event>
<event>
 4    1  0.2665544E-007  0.1413982E+04  0.7818608E-02  0.8972894E-01
          2   -1    0    0  501    0  0.00000000000E+00  0.00000000000E+00  0.21418389198E+04  0.21418389198E+04  0.25500000000E-02 0. -1.
         -2   -1    0    0    0  501 -0.00000000000E+00 -0.00000000000E+00 -0.15813956994E+04  0.15813956994E+04  0.25500000000E-02 0.  1.
    8880023    1    1    2    0    0  0.95560671234E+03 -0.80768192074E+03  0.15666265882E+04  0.21103704288E+04  0.65864270000E+03 0.  0.
    8880022    1    1    2    0    0 -0.95560671234E+03  0.80768192074E+03 -0.10061833678E+04  0.16128641903E+04  0.15294330000E+03 0.  0.
<mgrwt>
<rscale>  0 0.13739496E+04</rscale>
<asrwt>0</asrwt>
<pdfrwt beam="1">  1        2 0.32951368E+00 0.14139818E+04</pdfrwt>
<pdfrwt beam="2">  1       -2 0.24329165E+00 0.14139818E+04</pdfrwt>
<totfact> 0.37259612E-01</totfact>
</mgrwt>
</event>
<event>
 4    1  0.2665544E-007  0.7241526E+03  0.7818608E-02  0.9908777E-01
          2   -1    0    0  501    0  0.00000000000E+00  0.00000000000E+00  0.48579541990E+03  0.48579541991E+03  0.25500000000E-02 0. -1.
         -2   -1    0    0    0  501 -0.00000000000E+00 -0.00000000000E+00 -0.87255635790E+03  0.87255635791E+03  0.25500000000E-02 0.  1.
    8880023    1    1    2    0    0 -0.28945530956E+03  0.82476763006E+02  0.13525673426E+03  0.73667590098E+03  0.65864270000E+03 0. -1.
    8880022    1    1    2    0    0  0.28945530956E+03 -0.82476763006E+02 -0.52201767226E+03  0.62167587683E+03  0.15294330000E+03 0.  0.
<mgrwt>
<rscale>  0 0.59837772E+03</rscale>
<asrwt>0</asrwt>
<pdfrwt beam="1">  1        2 0.74737757E-01 0.72415261E+03</pdfrwt>
<pdfrwt beam="2">  1       -2 0.13423944E+00 0.72415261E+03</pdfrwt>
<totfact> 0.25863012E+01</totfact>
</mgrwt>
</event>
<event>
 4    1  0.2665544E-007  0.6961807E+03  0.7818608E-02  0.1001343E+00
          2   -1    0    0  501    0  0.00000000000E+00  0.00000000000E+00  0.26962432001E+04  0.26962432001E+04  0.25500000000E-02 0. -1.
         -2   -1    0    0    0  501 -0.00000000000E+00 -0.00000000000E+00 -0.10223076315E+03  0.10223076318E+03  0.25500000000E-02 0.  1.
    8880023    1    1    2    0    0 -0.15407688116E+03  0.16467465777E+03  0.22739349672E+04  0.23781185566E+04  0.65864270000E+03 0.  0.
    8880022    1    1    2    0    0  0.15407688116E+03 -0.16467465777E+03  0.32007746977E+03  0.42035540664E+03  0.15294330000E+03 0.  0.
<mgrwt>
<rscale>  0 0.55065285E+03</rscale>
<asrwt>0</asrwt>
<pdfrwt beam="1">  1        2 0.41480665E+00 0.69618075E+03</pdfrwt>
<pdfrwt beam="2">  1       -2 0.15727810E-01 0.69618075E+03</pdfrwt>
<totfact> 0.90748915E+01</totfact>
</mgrwt>
</event>
<event>
 4    1  0.2665544E-007  0.1027211E+04  0.7818608E-02  0.9346792E-01
         -2   -1    0    0    0  501 -0.00000000000E+00  0.00000000000E+00  0.26463546323E+04  0.26463546323E+04  0.25500000000E-02 0.  1.
          2   -1    0    0  501    0  0.00000000000E+00 -0.00000000000E+00 -0.87502499118E+03  0.87502499118E+03  0.25500000000E-02 0. -1.
    8880023    1    1    2    0    0  0.75160101416E+03  0.23759026675E+03 -0.47803318357E+03  0.11329956532E+04  0.65864270000E+03 0.  0.
    8880022    1    1    2    0    0 -0.75160101416E+03 -0.23759026675E+03  0.22493628247E+04  0.23883839703E+04  0.15294330000E+03 0.  0.
<mgrwt>
<rscale>  0 0.96586935E+03</rscale>
<asrwt>0</asrwt>
<pdfrwt beam="1">  1        2 0.13461923E+00 0.10272115E+04</pdfrwt>
<pdfrwt beam="2">  1       -2 0.40713148E+00 0.10272115E+04</pdfrwt>
<totfact> 0.20592787E-01</totfact>
</mgrwt>
</event>
<event>
 4    1  0.2665544E-007  0.1159837E+04  0.7818608E-02  0.9197188E-01
         -2   -1    0    0    0  501 -0.00000000000E+00  0.00000000000E+00  0.11048701295E+04  0.11048701296E+04  0.25500000000E-02 0.  1.
          2   -1    0    0  501    0  0.00000000000E+00 -0.00000000000E+00 -0.16271243219E+04  0.16271243219E+04  0.25500000000E-02 0. -1.
    8880023    1    1    2    0    0  0.94505556069E+03 -0.13521113086E+03 -0.11059546140E+04  0.16026097083E+04  0.65864270000E+03 0.  0.
    8880022    1    1    2    0    0 -0.94505556069E+03  0.13521113086E+03  0.58370042168E+03  0.11293847431E+04  0.15294330000E+03 0.  0.
<mgrwt>
<rscale>  0 0.11082502E+04</rscale>
<asrwt>0</asrwt>
<pdfrwt beam="1">  1        2 0.25032682E+00 0.11598372E+04</pdfrwt>
<pdfrwt beam="2">  1       -2 0.16998002E+00 0.11598372E+04</pdfrwt>
<totfact> 0.22386118E+00</totfact>
</mgrwt>
</event>
<event>
 4    1  0.2665544E-007  0.8009135E+03  0.7818608E-02  0.9708824E-01
          2   -1    0    0  501    0  0.00000000000E+00  0.00000000000E+00  0.10158374375E+04  0.10158374375E+04  0.25500000000E-02 0. -1.
         -2   -1    0    0    0  501 -0.00000000000E+00 -0.00000000000E+00 -0.65318986530E+03  0.65318986531E+03  0.25500000000E-02 0.  1.
    8880023    1    1    2    0    0 -0.41347594639E+03 -0.19154586206E+03  0.71453153415E+03  0.10733208724E+04  0.65864270000E+03 0. -1.
    8880022    1    1    2    0    0  0.41347594639E+03  0.19154586206E+03 -0.35188396198E+03  0.59570643041E+03  0.15294330000E+03 0.  0.
<mgrwt>
<rscale>  0 0.70493812E+03</rscale>
<asrwt>0</asrwt>
<pdfrwt beam="1">  1        2 0.15628268E+00 0.80091347E+03</pdfrwt>
<pdfrwt beam="2">  1       -2 0.10049075E+00 0.80091347E+03</pdfrwt>
<totfact> 0.20319861E+01</totfact>
</mgrwt>
</event>
<event>
 4    1  0.2665544E-007  0.6795665E+03  0.7818608E-02  0.1009570E+00
          2   -1    0    0  501    0  0.00000000000E+00  0.00000000000E+00  0.12176495248E+04  0.12176495248E+04  0.25500000000E-02 0. -1.
         -2   -1    0    0    0  501 -0.00000000000E+00 -0.00000000000E+00 -0.49135661170E+03  0.49135661171E+03  0.25500000000E-02 0.  1.
    8880023    1    1    2    0    0  0.15872107178E+03 -0.52990817872E+02  0.10876090932E+04  0.12824601948E+04  0.65864270000E+03 0. -1.
    8880022    1    1    2    0    0 -0.15872107178E+03  0.52990817872E+02 -0.36131618007E+03  0.42654594173E+03  0.15294330000E+03 0.  0.
<mgrwt>
<rscale>  0 0.51645914E+03</rscale>
<asrwt>0</asrwt>
<pdfrwt beam="1">  1        2 0.18733069E+00 0.67956649E+03</pdfrwt>
<pdfrwt beam="2">  1       -2 0.75593326E-01 0.67956649E+03</pdfrwt>
<totfact> 0.29787558E+01</totfact>
</mgrwt>
</event>
<event>
 4    1  0.2665544E-007  0.1168911E+04  0.7818608E-02  0.9187952E-01
         -2   -1    0    0    0  501 -0.00000000000E+00  0.00000000000E+00  0.12184465660E+04  0.12184465660E+04  0.25500000000E-02 0.  1.
          2   -1    0    0  501    0  0.00000000000E+00 -0.00000000000E+00 -0.16331640374E+04  0.16331640374E+04  0.25500000000E-02 0. -1.
    8880023    1    1    2    0    0 -0.93753074946E+03  0.23146941194E+03 -0.11411394498E+04  0.16335701531E+04  0.65864270000E+03 0. -1.
    8880022    1    1    2    0    0  0.93753074946E+03 -0.23146941194E+03  0.72642197840E+03  0.12180404503E+04  0.15294330000E+03 0.  0.
<mgrwt>
<rscale>  0 0.11178653E+04</rscale>
<asrwt>0</asrwt>
<pdfrwt beam="1">  1        2 0.25125601E+00 0.11689107E+04</pdfrwt>
<pdfrwt beam="2">  1       -2 0.18745332E+00 0.11689107E+04</pdfrwt>
<totfact> 0.16775956E+00</totfact>
</mgrwt>
</event>
<event>
 4    1  0.2665544E-007  0.7530087E+03  0.7818608E-02  0.9823556E-01
          2   -1    0    0  501    0  0.00000000000E+00  0.00000000000E+00  0.17102838253E+04  0.17102838253E+04  0.25500000000E-02 0. -1.
         -2   -1    0    0    0  501 -0.00000000000E+00 -0.00000000000E+00 -0.14501043285E+04  0.14501043285E+04  0.25500000000E-02 0.  1.
    8880023    1    1    2    0    0  0.28682195264E+03  0.22570998354E+03  0.15973217699E+04  0.17659158735E+04  0.65864270000E+03 0. -1.
    8880022    1    1    2    0    0 -0.28682195264E+03 -0.22570998354E+03 -0.13371422731E+04  0.13944722804E+04  0.15294330000E+03 0.  0.
<mgrwt>
<rscale>  0 0.64113598E+03</rscale>
<asrwt>0</asrwt>
<pdfrwt beam="1">  1        2 0.26312059E+00 0.75300866E+03</pdfrwt>
<pdfrwt beam="2">  1       -2 0.22309297E+00 0.75300866E+03</pdfrwt>
<totfact> 0.95134214E-01</totfact>
</mgrwt>
</event>
<event>
 4    1  0.2665544E-007  0.1135735E+04  0.7818608E-02  0.9222275E-01
          2   -1    0    0  501    0  0.00000000000E+00  0.00000000000E+00  0.31455156915E+04  0.31455156915E+04  0.25500000000E-02 0. -1.
         -2   -1    0    0    0  501 -0.00000000000E+00 -0.00000000000E+00 -0.37162000287E+03  0.37162000288E+03  0.25500000000E-02 0.  1.
    8880023    1    1    2    0    0  0.79173163624E+03  0.47879492754E+03  0.20054037628E+04  0.23046774231E+04  0.65864270000E+03 0.  0.
    8880022    1    1    2    0    0 -0.79173163624E+03 -0.47879492754E+03  0.76849192577E+03  0.12124582712E+04  0.15294330000E+03 0.  0.
<mgrwt>
<rscale>  0 0.10826440E+04</rscale>
<asrwt>0</asrwt>
<pdfrwt beam="1">  1        2 0.48392549E+00 0.11357349E+04</pdfrwt>
<pdfrwt beam="2">  1       -2 0.57172308E-01 0.11357349E+04</pdfrwt>
<totfact> 0.40645584E+00</totfact>
</mgrwt>
</event>
<event>
 4    1  0.2665544E-007  0.8892075E+03  0.7818608E-02  0.9543584E-01
         -2   -1    0    0    0  501 -0.00000000000E+00  0.00000000000E+00  0.81477615158E+03  0.81477615159E+03  0.25500000000E-02 0.  1.
          2   -1    0    0  501    0  0.00000000000E+00 -0.00000000000E+00 -0.42863911155E+04  0.42863911155E+04  0.25500000000E-02 0. -1.
    8880023    1    1    2    0    0  0.25165555020E+03 -0.54180180539E+03 -0.41150008605E+04  0.42099788598E+04  0.65864270000E+03 0. -1.
    8880022    1    1    2    0    0 -0.25165555020E+03  0.54180180539E+03  0.64338589657E+03  0.89118840724E+03  0.15294330000E+03 0.  0.
<mgrwt>
<rscale>  0 0.81145423E+03</rscale>
<asrwt>0</asrwt>
<pdfrwt beam="1">  1        2 0.65944477E+00 0.88920747E+03</pdfrwt>
<pdfrwt beam="2">  1       -2 0.12535018E+00 0.88920747E+03</pdfrwt>
<totfact> 0.10116951E-01</totfact>
</mgrwt>
</event>
<event>
 4    1  0.2665544E-007  0.1641179E+04  0.7818608E-02  0.8815885E-01
          2   -1    0    0  501    0  0.00000000000E+00  0.00000000000E+00  0.26782582982E+04  0.26782582982E+04  0.25500000000E-02 0. -1.
         -2   -1    0    0    0  501 -0.00000000000E+00 -0.00000000000E+00 -0.10711257194E+04  0.10711257194E+04  0.25500000000E-02 0.  1.
    8880023    1    1    2    0    0 -0.62331548102E+03 -0.13678944255E+04  0.14627996179E+03  0.16476848551E+04  0.65864270000E+03 0.  0.
    8880022    1    1    2    0    0  0.62331548102E+03  0.13678944255E+04  0.14608526171E+04  0.21016991626E+04  0.15294330000E+03 0.  0.
<mgrwt>
<rscale>  0 0.16076123E+04</rscale>
<asrwt>0</asrwt>
<pdfrwt beam="1">  1        2 0.41203973E+00 0.16411787E+04</pdfrwt>
<pdfrwt beam="2">  1       -2 0.16478858E+00 0.16411787E+04</pdfrwt>
<totfact> 0.59117016E-01</totfact>
</mgrwt>
</event>
<event>
 4    1  0.2665544E-007  0.7280353E+03  0.7818608E-02  0.9896279E-01
         -2   -1    0    0    0  501 -0.00000000000E+00  0.00000000000E+00  0.44919072294E+03  0.44919072295E+03  0.25500000000E-02 0.  1.
          2   -1    0    0  501    0  0.00000000000E+00 -0.00000000000E+00 -0.98614312240E+03  0.98614312240E+03  0.25500000000E-02 0. -1.
    8880023    1    1    2    0    0 -0.68710924568E+02  0.30249629797E+03 -0.73686256759E+03  0.10358580266E+04  0.65864270000E+03 0. -1.
    8880022    1    1    2    0    0  0.68710924568E+02 -0.30249629797E+03  0.19991016814E+03  0.39947581877E+03  0.15294330000E+03 0.  0.
<mgrwt>
<rscale>  0 0.60441938E+03</rscale>
<asrwt>0</asrwt>
<pdfrwt beam="1">  1        2 0.15171433E+00 0.72803531E+03</pdfrwt>
<pdfrwt beam="2">  1       -2 0.69106265E-01 0.72803531E+03</pdfrwt>
<totfact> 0.50007943E+01</totfact>
</mgrwt>
</event>
<event>
 4    1  0.2665544E-007  0.1468952E+04  0.7818608E-02  0.8931877E-01
          2   -1    0    0  501    0  0.00000000000E+00  0.00000000000E+00  0.29133009931E+04  0.29133009931E+04  0.25500000000E-02 0. -1.
         -2   -1    0    0    0  501 -0.00000000000E+00 -0.00000000000E+00 -0.12696474754E+04  0.12696474754E+04  0.25500000000E-02 0.  1.
    8880023    1    1    2    0    0 -0.67377760608E+02  0.13112858815E+04  0.22828447139E+04  0.27146271604E+04  0.65864270000E+03 0.  0.
    8880022    1    1    2    0    0  0.67377760608E+02 -0.13112858815E+04 -0.63919119627E+03  0.14683213081E+04  0.15294330000E+03 0.  0.
<mgrwt>
<rscale>  0 0.14307207E+04</rscale>
<asrwt>0</asrwt>
<pdfrwt beam="1">  1        2 0.44820015E+00 0.14689522E+04</pdfrwt>
<pdfrwt beam="2">  1       -2 0.19533038E+00 0.14689522E+04</pdfrwt>
<totfact> 0.26626566E-01</totfact>
</mgrwt>
</event>
<event>
 4    1  0.2665544E-007  0.9295014E+03  0.7818608E-02  0.9480242E-01
          2   -1    0    0  501    0  0.00000000000E+00  0.00000000000E+00  0.15360728746E+04  0.15360728746E+04  0.25500000000E-02 0. -1.
         -2   -1    0    0    0  501 -0.00000000000E+00 -0.00000000000E+00 -0.88257697401E+03  0.88257697401E+03  0.25500000000E-02 0.  1.
    8880023    1    1    2    0    0  0.14371699015E+03  0.63992822048E+03  0.12233726750E+04  0.15364288493E+04  0.65864270000E+03 0.  0.
    8880022    1    1    2    0    0 -0.14371699015E+03 -0.63992822048E+03 -0.56987677443E+03  0.88222099934E+03  0.15294330000E+03 0.  0.
<mgrwt>
<rscale>  0 0.85756335E+03</rscale>
<asrwt>0</asrwt>
<pdfrwt beam="1">  1        2 0.23631890E+00 0.92950143E+03</pdfrwt>
<pdfrwt beam="2">  1       -2 0.13578107E+00 0.92950143E+03</pdfrwt>
<totfact> 0.47164849E+00</totfact>
</mgrwt>
</event>
<event>
 4    1  0.2665544E-007  0.1276586E+04  0.7818608E-02  0.9086048E-01
         -2   -1    0    0    0  501 -0.00000000000E+00  0.00000000000E+00  0.10986530861E+04  0.10986530861E+04  0.25500000000E-02 0.  1.
          2   -1    0    0  501    0  0.00000000000E+00 -0.00000000000E+00 -0.16624340182E+04  0.16624340182E+04  0.25500000000E-02 0. -1.
    8880023    1    1    2    0    0 -0.34859297080E+02 -0.10929988365E+04 -0.95001399732E+03  0.15912882921E+04  0.65864270000E+03 0.  0.
    8880022    1    1    2    0    0  0.34859297080E+02  0.10929988365E+04  0.38623306516E+03  0.11697988121E+04  0.15294330000E+03 0.  0.
<mgrwt>
<rscale>  0 0.12311169E+04</rscale>
<asrwt>0</asrwt>
<pdfrwt beam="1">  1        2 0.25575908E+00 0.12765860E+04</pdfrwt>
<pdfrwt beam="2">  1       -2 0.16902355E+00 0.12765860E+04</pdfrwt>
<totfact> 0.21469060E+00</totfact>
</mgrwt>
</event>
<event>
 4    1  0.2665544E-007  0.7783568E+03  0.7818608E-02  0.9759711E-01
         -2   -1    0    0    0  501 -0.00000000000E+00  0.00000000000E+00  0.35350470415E+03  0.35350470416E+03  0.25500000000E-02 0.  1.
          2   -1    0    0  501    0  0.00000000000E+00 -0.00000000000E+00 -0.15385679214E+04  0.15385679214E+04  0.25500000000E-02 0. -1.
    8880023    1    1    2    0    0  0.35542532800E+03  0.21378024529E+03 -0.12216034885E+04  0.14485007582E+04  0.65864270000E+03 0. -1.
    8880022    1    1    2    0    0 -0.35542532800E+03 -0.21378024529E+03  0.36540271298E+02  0.44357186735E+03  0.15294330000E+03 0.  0.
<mgrwt>
<rscale>  0 0.67570232E+03</rscale>
<asrwt>0</asrwt>
<pdfrwt beam="1">  1        2 0.23670275E+00 0.77835684E+03</pdfrwt>
<pdfrwt beam="2">  1       -2 0.54385340E-01 0.77835684E+03</pdfrwt>
<totfact> 0.39193524E+01</totfact>
</mgrwt>
</event>
<event>
 4    1  0.2665544E-007  0.6771597E+03  0.7818608E-02  0.1010978E+00
          2   -1    0    0  501    0  0.00000000000E+00  0.00000000000E+00  0.37141021435E+03  0.37141021436E+03  0.25500000000E-02 0. -1.
         -2   -1    0    0    0  501 -0.00000000000E+00 -0.00000000000E+00 -0.12405249467E+04  0.12405249467E+04  0.25500000000E-02 0.  1.
    8880023    1    1    2    0    0 -0.10295417520E+03  0.11889288133E+03  0.38432635056E+02  0.67824947705E+03  0.65864270000E+03 0. -1.
    8880022    1    1    2    0    0  0.10295417520E+03 -0.11889288133E+03 -0.90754736737E+03  0.93368568398E+03  0.15294330000E+03 0.  0.
<mgrwt>
<rscale>  0 0.51087733E+03</rscale>
<asrwt>0</asrwt>
<pdfrwt beam="1">  1        2 0.57140034E-01 0.67715972E+03</pdfrwt>
<pdfrwt beam="2">  1       -2 0.19084999E+00 0.67715972E+03</pdfrwt>
<totfact> 0.13546142E+01</totfact>
</mgrwt>
</event>
<event>
 4    1  0.2665544E-007  0.1195821E+04  0.7818608E-02  0.9161195E-01
          2   -1    0    0  501    0  0.00000000000E+00  0.00000000000E+00  0.27455152059E+04  0.27455152059E+04  0.25500000000E-02 0. -1.
         -2   -1    0    0    0  501 -0.00000000000E+00 -0.00000000000E+00 -0.86681878820E+03  0.86681878820E+03  0.25500000000E-02 0.  1.
    8880023    1    1    2    0    0  0.80377702939E+03  0.59170981896E+03  0.22405675608E+04  0.25397108543E+04  0.65864270000E+03 0.  0.
    8880022    1    1    2    0    0 -0.80377702939E+03 -0.59170981896E+03 -0.36187114308E+03  0.10726231398E+04  0.15294330000E+03 0.  0.
<mgrwt>
<rscale>  0 0.11463092E+04</rscale>
<asrwt>0</asrwt>
<pdfrwt beam="1">  1        2 0.42238695E+00 0.11958212E+04</pdfrwt>
<pdfrwt beam="2">  1       -2 0.13335674E+00 0.11958212E+04</pdfrwt>
<totfact> 0.99796702E-01</totfact>
</mgrwt>
</event>
<event>
 4    1  0.2665544E-007  0.1048667E+04  0.7818608E-02  0.9320486E-01
          2   -1    0    0  501    0  0.00000000000E+00  0.00000000000E+00  0.22169439939E+04  0.22169439939E+04  0.25500000000E-02 0. -1.
         -2   -1    0    0    0  501 -0.00000000000E+00 -0.00000000000E+00 -0.12983287138E+04  0.12983287138E+04  0.25500000000E-02 0.  1.
    8880023    1    1    2    0    0  0.80573336873E+03 -0.12917300077E+03  0.19362140379E+04  0.22019597935E+04  0.65864270000E+03 0.  0.
    8880022    1    1    2    0    0 -0.80573336873E+03  0.12917300077E+03 -0.10175987578E+04  0.13133129141E+04  0.15294330000E+03 0.  0.
<mgrwt>
<rscale>  0 0.98918584E+03</rscale>
<asrwt>0</asrwt>
<pdfrwt beam="1">  1        2 0.34106830E+00 0.10486668E+04</pdfrwt>
<pdfrwt beam="2">  1       -2 0.19974288E+00 0.10486668E+04</pdfrwt>
<totfact> 0.67046693E-01</totfact>
</mgrwt>
</event>
<event>
 4    1  0.2665544E-007  0.1053030E+04  0.7818608E-02  0.9315248E-01
          2   -1    0    0  501    0  0.00000000000E+00  0.00000000000E+00  0.26305271634E+04  0.26305271634E+04  0.25500000000E-02 0. -1.
         -2   -1    0    0    0  501 -0.00000000000E+00 -0.00000000000E+00 -0.48797760759E+03  0.48797760760E+03  0.25500000000E-02 0.  1.
    8880023    1    1    2    0    0  0.81055905121E+03  0.13436990136E+03  0.20143576447E+04  0.22729954186E+04  0.65864270000E+03 0. -1.
    8880022    1    1    2    0    0 -0.81055905121E+03 -0.13436990136E+03  0.12819191108E+03  0.84550935239E+03  0.15294330000E+03 0.  0.
<mgrwt>
<rscale>  0 0.99391122E+03</rscale>
<asrwt>0</asrwt>
<pdfrwt beam="1">  1        2 0.40469649E+00 0.10530297E+04</pdfrwt>
<pdfrwt beam="2">  1       -2 0.75073478E-01 0.10530297E+04</pdfrwt>
<totfact> 0.46808977E+00</totfact>
</mgrwt>
</event>
<event>
 4    1  0.2665544E-007  0.8041343E+03  0.7818608E-02  0.9701927E-01
          2   -1    0    0  501    0  0.00000000000E+00  0.00000000000E+00  0.21718440293E+04  0.21718440293E+04  0.25500000000E-02 0. -1.
         -2   -1    0    0    0  501 -0.00000000000E+00 -0.00000000000E+00 -0.29061163849E+03  0.29061163850E+03  0.25500000000E-02 0.  1.
    8880023    1    1    2    0    0  0.36176259281E+02  0.45990542547E+03  0.17976423163E+04  0.19693018625E+04  0.65864270000E+03 0. -1.
    8880022    1    1    2    0    0 -0.36176259281E+02 -0.45990542547E+03  0.83590074544E+02  0.49315380531E+03  0.15294330000E+03 0.  0.
<mgrwt>
<rscale>  0 0.70902164E+03</rscale>
<asrwt>0</asrwt>
<pdfrwt beam="1">  1        2 0.33412984E+00 0.80413427E+03</pdfrwt>
<pdfrwt beam="2">  1       -2 0.44709485E-01 0.80413427E+03</pdfrwt>
<totfact> 0.26153016E+01</totfact>
</mgrwt>
</event>
<event>
 4    1  0.2665544E-007  0.6866525E+03  0.7818608E-02  0.1005786E+00
          2   -1    0    0  501    0  0.00000000000E+00  0.00000000000E+00  0.10005888044E+04  0.10005888044E+04  0.25500000000E-02 0. -1.
         -2   -1    0    0    0  501 -0.00000000000E+00 -0.00000000000E+00 -0.22377899881E+04  0.22377899881E+04  0.25500000000E-02 0.  1.
    8880023    1    1    2    0    0  0.19408781988E+03  0.33718533845E+01  0.87472586264E+03  0.11120418123E+04  0.65864270000E+03 0. -1.
    8880022    1    1    2    0    0 -0.19408781988E+03 -0.33718533845E+01 -0.21119270463E+04  0.21263369802E+04  0.15294330000E+03 0.  0.
<mgrwt>
<rscale>  0 0.53184368E+03</rscale>
<asrwt>0</asrwt>
<pdfrwt beam="1">  1        2 0.15393674E+00 0.68665250E+03</pdfrwt>
<pdfrwt beam="2">  1       -2 0.34427538E+00 0.68665250E+03</pdfrwt>
<totfact> 0.45637268E-01</totfact>
</mgrwt>
</event>
<event>
 4    1  0.2665544E-007  0.1289006E+04  0.7818608E-02  0.9075112E-01
         -2   -1    0    0    0  501 -0.00000000000E+00  0.00000000000E+00  0.82164846568E+03  0.82164846568E+03  0.25500000000E-02 0.  1.
          2   -1    0    0  501    0  0.00000000000E+00 -0.00000000000E+00 -0.21294411860E+04  0.21294411860E+04  0.25500000000E-02 0. -1.
    8880023    1    1    2    0    0  0.59599922368E+03 -0.93408350101E+03 -0.13025657461E+04  0.18325432575E+04  0.65864270000E+03 0.  0.
    8880022    1    1    2    0    0 -0.59599922368E+03  0.93408350101E+03 -0.52269741404E+01  0.11185463941E+04  0.15294330000E+03 0.  0.
<mgrwt>
<rscale>  0 0.12440952E+04</rscale>
<asrwt>0</asrwt>
<pdfrwt beam="1">  1        2 0.32760633E+00 0.12890063E+04</pdfrwt>
<pdfrwt beam="2">  1       -2 0.12640746E+00 0.12890063E+04</pdfrwt>
<totfact> 0.25506708E+00</totfact>
</mgrwt>
</event>
<event>
 4    1  0.2665544E-007  0.1356553E+04  0.7818608E-02  0.9018199E-01
         -2   -1    0    0    0  501 -0.00000000000E+00  0.00000000000E+00  0.79586332887E+03  0.79586332888E+03  0.25500000000E-02 0.  1.
          2   -1    0    0  501    0  0.00000000000E+00 -0.00000000000E+00 -0.24680179482E+04  0.24680179482E+04  0.25500000000E-02 0. -1.
    8880023    1    1    2    0    0 -0.10493831793E+04 -0.55246725467E+03 -0.15532463134E+04  0.20622340898E+04  0.65864270000E+03 0. -1.
    8880022    1    1    2    0    0  0.10493831793E+04  0.55246725467E+03 -0.11890830593E+03  0.12016471873E+04  0.15294330000E+03 0.  0.
<mgrwt>
<rscale>  0 0.13144303E+04</rscale>
<asrwt>0</asrwt>
<pdfrwt beam="1">  1        2 0.37969507E+00 0.13565527E+04</pdfrwt>
<pdfrwt beam="2">  1       -2 0.12244051E+00 0.13565527E+04</pdfrwt>
<totfact> 0.17666001E+00</totfact>
</mgrwt>
</event>
<event>
 4    1  0.2665544E-007  0.1275872E+04  0.7818608E-02  0.9086681E-01
         -2   -1    0    0    0  501 -0.00000000000E+00  0.00000000000E+00  0.19805343512E+04  0.19805343512E+04  0.25500000000E-02 0.  1.
          2   -1    0    0  501    0  0.00000000000E+00 -0.00000000000E+00 -0.11252634209E+04  0.11252634209E+04  0.25500000000E-02 0. -1.
    8880023    1    1    2    0    0 -0.61451957712E+03 -0.90355127486E+03  0.13839291496E+04  0.18823148818E+04  0.65864270000E+03 0.  0.
    8880022    1    1    2    0    0  0.61451957712E+03  0.90355127486E+03 -0.52865821935E+03  0.12234828903E+04  0.15294330000E+03 0.  0.
<mgrwt>
<rscale>  0 0.12303704E+04</rscale>
<asrwt>0</asrwt>
<pdfrwt beam="1">  1        2 0.17311745E+00 0.12758720E+04</pdfrwt>
<pdfrwt beam="2">  1       -2 0.30469759E+00 0.12758720E+04</pdfrwt>
<totfact> 0.60562908E-01</totfact>
</mgrwt>
</event>
<event>
 4    1  0.2665544E-007  0.7883642E+03  0.7818608E-02  0.9736544E-01
          2   -1    0    0  501    0  0.00000000000E+00  0.00000000000E+00  0.12154043602E+04  0.12154043602E+04  0.25500000000E-02 0. -1.
         -2   -1    0    0    0  501 -0.00000000000E+00 -0.00000000000E+00 -0.57751721835E+03  0.57751721835E+03  0.25500000000E-02 0.  1.
    8880023    1    1    2    0    0 -0.34256240989E+03 -0.26525246795E+03  0.95222771510E+03  0.12362263968E+04  0.65864270000E+03 0. -1.
    8880022    1    1    2    0    0  0.34256240989E+03  0.26525246795E+03 -0.31434057324E+03  0.55669518178E+03  0.15294330000E+03 0.  0.
<mgrwt>
<rscale>  0 0.68882051E+03</rscale>
<asrwt>0</asrwt>
<pdfrwt beam="1">  1        2 0.18698529E+00 0.78836418E+03</pdfrwt>
<pdfrwt beam="2">  1       -2 0.88848803E-01 0.78836418E+03</pdfrwt>
<totfact> 0.20491818E+01</totfact>
</mgrwt>
</event>
<event>
 4    1  0.5773399E-007  0.7395938E+03  0.7818608E-02  0.9861132E-01
         -2   -1    0    0    0  501 -0.00000000000E+00  0.00000000000E+00  0.22545085969E+04  0.22545085969E+04  0.25500000000E-02 0.  1.
          2   -1    0    0  501    0  0.00000000000E+00 -0.00000000000E+00 -0.30799259917E+04  0.30799259917E+04  0.25500000000E-02 0. -1.
    8880023    1    1    2    0    0  0.33215500128E+03 -0.53495975095E+02 -0.30198507096E+04  0.31090991105E+04  0.65864270000E+03 0. -1.
    8880022    1    1    2    0    0 -0.33215500128E+03  0.53495975095E+02  0.21944333148E+04  0.22253354781E+04  0.15294330000E+03 0.  0.
<mgrwt>
<rscale>  0 0.62182545E+03</rscale>
<asrwt>0</asrwt>
<pdfrwt beam="1">  1        2 0.47383477E+00 0.73959379E+03</pdfrwt>
<pdfrwt beam="2">  1       -2 0.34684747E+00 0.73959379E+03</pdfrwt>
<totfact> 0.28240723E-02</totfact>
</mgrwt>
</event>
<event>
 4    1  0.2665544E-007  0.7112861E+03  0.7818608E-02  0.9953256E-01
         -2   -1    0    0    0  501 -0.00000000000E+00  0.00000000000E+00  0.89087739195E+03  0.89087739195E+03  0.25500000000E-02 0.  1.
          2   -1    0    0  501    0  0.00000000000E+00 -0.00000000000E+00 -0.19176909030E+04  0.19176909030E+04  0.25500000000E-02 0. -1.
    8880023    1    1    2    0    0 -0.19284278145E+03  0.18689399542E+03 -0.18217430094E+04  0.19556777603E+04  0.65864270000E+03 0. -1.
    8880022    1    1    2    0    0  0.19284278145E+03 -0.18689399542E+03  0.79492949826E+03  0.85289053466E+03  0.15294330000E+03 0.  0.
<mgrwt>
<rscale>  0 0.57748270E+03</rscale>
<asrwt>0</asrwt>
<pdfrwt beam="1">  1        2 0.29502937E+00 0.71128610E+03</pdfrwt>
<pdfrwt beam="2">  1       -2 0.13705806E+00 0.71128610E+03</pdfrwt>
<totfact> 0.29362589E+00</totfact>
</mgrwt>
</event>
<event>
 4    1  0.2665544E-007  0.1285514E+04  0.7818608E-02  0.9078172E-01
         -2   -1    0    0    0  501 -0.00000000000E+00  0.00000000000E+00  0.76747604512E+03  0.76747604512E+03  0.25500000000E-02 0.  1.
          2   -1    0    0  501    0  0.00000000000E+00 -0.00000000000E+00 -0.19704651353E+04  0.19704651353E+04  0.25500000000E-02 0. -1.
    8880023    1    1    2    0    0  0.36126299127E+03  0.10431800833E+04 -0.94082274685E+03  0.15930138990E+04  0.65864270000E+03 0.  0.
    8880022    1    1    2    0    0 -0.36126299127E+03 -0.10431800833E+04 -0.26216634330E+03  0.11449272814E+04  0.15294330000E+03 0.  0.
<mgrwt>
<rscale>  0 0.12404473E+04</rscale>
<asrwt>0</asrwt>
<pdfrwt beam="1">  1        2 0.30314848E+00 0.12855138E+04</pdfrwt>
<pdfrwt beam="2">  1       -2 0.11807324E+00 0.12855138E+04</pdfrwt>
<totfact> 0.37129939E+00</totfact>
</mgrwt>
</event>
<event>
 4    1  0.2665544E-007  0.1262299E+04  0.7818608E-02  0.9098820E-01
          2   -1    0    0  501    0  0.00000000000E+00  0.00000000000E+00  0.12630823975E+04  0.12630823975E+04  0.25500000000E-02 0. -1.
         -2   -1    0    0    0  501 -0.00000000000E+00 -0.00000000000E+00 -0.12957286117E+04  0.12957286117E+04  0.25500000000E-02 0.  1.
    8880023    1    1    2    0    0  0.29770908229E+03  0.10348714663E+04 -0.52221826061E+03  0.13660570147E+04  0.65864270000E+03 0.  0.
    8880022    1    1    2    0    0 -0.29770908229E+03 -0.10348714663E+04  0.48957204645E+03  0.11927539944E+04  0.15294330000E+03 0.  0.
<mgrwt>
<rscale>  0 0.12161693E+04</rscale>
<asrwt>0</asrwt>
<pdfrwt beam="1">  1        2 0.19432037E+00 0.12622994E+04</pdfrwt>
<pdfrwt beam="2">  1       -2 0.19934286E+00 0.12622994E+04</pdfrwt>
<totfact> 0.22520121E+00</totfact>
</mgrwt>
</event>
<event>
 4    1  0.2665544E-007  0.6911390E+03  0.7818608E-02  0.1003616E+00
          2   -1    0    0  501    0  0.00000000000E+00  0.00000000000E+00  0.32554312755E+04  0.32554312755E+04  0.25500000000E-02 0. -1.
         -2   -1    0    0    0  501 -0.00000000000E+00 -0.00000000000E+00 -0.22202747483E+03  0.22202747484E+03  0.25500000000E-02 0.  1.
    8880023    1    1    2    0    0  0.14464992828E+03  0.15145712445E+03  0.31264546730E+04  0.32019356475E+04  0.65864270000E+03 0. -1.
    8880022    1    1    2    0    0 -0.14464992828E+03 -0.15145712445E+03 -0.93050872370E+02  0.27552310277E+03  0.15294330000E+03 0.  0.
<mgrwt>
<rscale>  0 0.54092769E+03</rscale>
<asrwt>0</asrwt>
<pdfrwt beam="1">  1        2 0.50083557E+00 0.69113896E+03</pdfrwt>
<pdfrwt beam="2">  1       -2 0.34158074E-01 0.69113896E+03</pdfrwt>
<totfact> 0.10367902E+01</totfact>
</mgrwt>
</event>
<event>
 4    1  0.2665544E-007  0.7782713E+03  0.7818608E-02  0.9759914E-01
          2   -1    0    0  501    0  0.00000000000E+00  0.00000000000E+00  0.10920039157E+04  0.10920039157E+04  0.25500000000E-02 0. -1.
         -2   -1    0    0    0  501 -0.00000000000E+00 -0.00000000000E+00 -0.18752031457E+04  0.18752031457E+04  0.25500000000E-02 0.  1.
    8880023    1    1    2    0    0 -0.14892602990E+03 -0.38693281900E+03  0.92148882073E+03  0.12061707266E+04  0.65864270000E+03 0. -1.
    8880022    1    1    2    0    0  0.14892602990E+03  0.38693281900E+03 -0.17046880507E+04  0.17610363347E+04  0.15294330000E+03 0.  0.
<mgrwt>
<rscale>  0 0.67558903E+03</rscale>
<asrwt>0</asrwt>
<pdfrwt beam="1">  1        2 0.16800060E+00 0.77827127E+03</pdfrwt>
<pdfrwt beam="2">  1       -2 0.28849279E+00 0.77827127E+03</pdfrwt>
<totfact> 0.85579124E-01</totfact>
</mgrwt>
</event>
<event>
 4    1  0.2665544E-007  0.1050738E+04  0.7818608E-02  0.9317995E-01
          2   -1    0    0  501    0  0.00000000000E+00  0.00000000000E+00  0.14186835564E+04  0.14186835564E+04  0.25500000000E-02 0. -1.
         -2   -1    0    0    0  501 -0.00000000000E+00 -0.00000000000E+00 -0.69972317629E+03  0.69972317630E+03  0.25500000000E-02 0.  1.
    8880023    1    1    2    0    0  0.31497526472E+03 -0.75566542105E+03  0.53055676919E+02  0.10520764027E+04  0.65864270000E+03 0. -1.
    8880022    1    1    2    0    0 -0.31497526472E+03  0.75566542105E+03  0.66590470317E+03  0.10663303300E+04  0.15294330000E+03 0.  0.
<mgrwt>
<rscale>  0 0.99142951E+03</rscale>
<asrwt>0</asrwt>
<pdfrwt beam="1">  1        2 0.21825901E+00 0.10507378E+04</pdfrwt>
<pdfrwt beam="2">  1       -2 0.10764972E+00 0.10507378E+04</pdfrwt>
<totfact> 0.96714999E+00</totfact>
</mgrwt>
</event>
<event>
 4    1  0.2665544E-007  0.6604840E+03  0.7818608E-02  0.1023666E+00
         -2   -1    0    0    0  501 -0.00000000000E+00  0.00000000000E+00  0.22928145651E+03  0.22928145652E+03  0.25500000000E-02 0.  1.
          2   -1    0    0  501    0  0.00000000000E+00 -0.00000000000E+00 -0.29160386015E+04  0.29160386015E+04  0.25500000000E-02 0. -1.
    8880023    1    1    2    0    0  0.28679446899E+02 -0.40079177163E+02 -0.28444830193E+04  0.29201579930E+04  0.65864270000E+03 0. -1.
    8880022    1    1    2    0    0 -0.28679446899E+02  0.40079177163E+02  0.15772587423E+03  0.22516206504E+03  0.15294330000E+03 0.  0.
<mgrwt>
<rscale>  0 0.46386574E+03</rscale>
<asrwt>0</asrwt>
<pdfrwt beam="1">  1        2 0.44862130E+00 0.66048396E+03</pdfrwt>
<pdfrwt beam="2">  1       -2 0.35274072E-01 0.66048396E+03</pdfrwt>
<totfact> 0.15937868E+01</totfact>
</mgrwt>
</event>
<event>
 4    1  0.2665544E-007  0.6682648E+03  0.7818608E-02  0.1016938E+00
          2   -1    0    0  501    0  0.00000000000E+00  0.00000000000E+00  0.28986725935E+04  0.28986725935E+04  0.25500000000E-02 0. -1.
         -2   -1    0    0    0  501 -0.00000000000E+00 -0.00000000000E+00 -0.34815527401E+03  0.34815527402E+03  0.25500000000E-02 0.  1.
    8880023    1    1    2    0    0 -0.11258265444E+03  0.96347526052E+01  0.28305327580E+04  0.29083489445E+04  0.65864270000E+03 0. -1.
    8880022    1    1    2    0    0  0.11258265444E+03 -0.96347526052E+01 -0.28001543849E+03  0.33847892305E+03  0.15294330000E+03 0.  0.
<mgrwt>
<rscale>  0 0.48807775E+03</rscale>
<asrwt>0</asrwt>
<pdfrwt beam="1">  1        2 0.44594962E+00 0.66826483E+03</pdfrwt>
<pdfrwt beam="2">  1       -2 0.53562351E-01 0.66826483E+03</pdfrwt>
<totfact> 0.71323162E+00</totfact>
</mgrwt>
</event>
<event>
 4    1  0.2665544E-007  0.8378064E+03  0.7818608E-02  0.9634330E-01
          2   -1    0    0  501    0  0.00000000000E+00  0.00000000000E+00  0.22107263269E+04  0.22107263269E+04  0.25500000000E-02 0. -1.
         -2   -1    0    0    0  501 -0.00000000000E+00 -0.00000000000E+00 -0.42732835067E+03  0.42732835068E+03  0.25500000000E-02 0.  1.
    8880023    1    1    2    0    0 -0.37389318487E+02  0.51644103028E+03  0.19081018829E+04  0.20839319329E+04  0.65864270000E+03 0. -1.
    8880022    1    1    2    0    0  0.37389318487E+02 -0.51644103028E+03 -0.12470390667E+03  0.55412274475E+03  0.15294330000E+03 0.  0.
<mgrwt>
<rscale>  0 0.75065043E+03</rscale>
<asrwt>0</asrwt>
<pdfrwt beam="1">  1        2 0.34011175E+00 0.83780636E+03</pdfrwt>
<pdfrwt beam="2">  1       -2 0.65742823E-01 0.83780636E+03</pdfrwt>
<totfact> 0.11143033E+01</totfact>
</mgrwt>
</event>
<event>
 4    1  0.2665544E-007  0.8610423E+03  0.7818608E-02  0.9591712E-01
         -2   -1    0    0    0  501 -0.00000000000E+00  0.00000000000E+00  0.39033839689E+03  0.39033839690E+03  0.25500000000E-02 0.  1.
          2   -1    0    0  501    0  0.00000000000E+00 -0.00000000000E+00 -0.28130094957E+04  0.28130094957E+04  0.25500000000E-02 0. -1.
    8880023    1    1    2    0    0 -0.35121867406E+03 -0.42921910681E+03 -0.24799726385E+04  0.26251967722E+04  0.65864270000E+03 0. -1.
    8880022    1    1    2    0    0  0.35121867406E+03  0.42921910681E+03  0.57301539633E+02  0.57815112048E+03  0.15294330000E+03 0.  0.
<mgrwt>
<rscale>  0 0.77847164E+03</rscale>
<asrwt>0</asrwt>
<pdfrwt beam="1">  1        2 0.43277068E+00 0.86104228E+03</pdfrwt>
<pdfrwt beam="2">  1       -2 0.60052063E-01 0.86104228E+03</pdfrwt>
<totfact> 0.61008111E+00</totfact>
</mgrwt>
</event>
<event>
 4    1  0.2665544E-007  0.7293726E+03  0.7818608E-02  0.9892061E-01
          2   -1    0    0  501    0  0.00000000000E+00  0.00000000000E+00  0.11930276442E+04  0.11930276442E+04  0.25500000000E-02 0. -1.
         -2   -1    0    0    0  501 -0.00000000000E+00 -0.00000000000E+00 -0.71105616467E+03  0.71105616468E+03  0.25500000000E-02 0.  1.
    8880023    1    1    2    0    0 -0.26362144110E+03  0.16934537546E+03  0.10254465764E+04  0.12583819006E+04  0.65864270000E+03 0. -1.
    8880022    1    1    2    0    0  0.26362144110E+03 -0.16934537546E+03 -0.54347509689E+03  0.64570190828E+03  0.15294330000E+03 0.  0.
<mgrwt>
<rscale>  0 0.60647580E+03</rscale>
<asrwt>0</asrwt>
<pdfrwt beam="1">  1        2 0.18354271E+00 0.72937256E+03</pdfrwt>
<pdfrwt beam="2">  1       -2 0.10939326E+00 0.72937256E+03</pdfrwt>
<totfact> 0.13014322E+01</totfact>
</mgrwt>
</event>
<event>
 4    1  0.2665544E-007  0.1227784E+04  0.7818608E-02  0.9130577E-01
          2   -1    0    0  501    0  0.00000000000E+00  0.00000000000E+00  0.10772391344E+04  0.10772391344E+04  0.25500000000E-02 0. -1.
         -2   -1    0    0    0  501 -0.00000000000E+00 -0.00000000000E+00 -0.15046540104E+04  0.15046540104E+04  0.25500000000E-02 0.  1.
    8880023    1    1    2    0    0  0.58299983669E+03  0.85659417857E+03  0.35093817140E+03  0.12769534850E+04  0.65864270000E+03 0.  0.
    8880022    1    1    2    0    0 -0.58299983669E+03 -0.85659417857E+03 -0.77835304741E+03  0.13049396598E+04  0.15294330000E+03 0.  0.
<mgrwt>
<rscale>  0 0.11799644E+04</rscale>
<asrwt>0</asrwt>
<pdfrwt beam="1">  1        2 0.16572910E+00 0.12277836E+04</pdfrwt>
<pdfrwt beam="2">  1       -2 0.23148523E+00 0.12277836E+04</pdfrwt>
<totfact> 0.18267295E+00</totfact>
</mgrwt>
</event>
<event>
 4    1  0.2665544E-007  0.7181525E+03  0.7818608E-02  0.9928887E-01
          2   -1    0    0  501    0  0.00000000000E+00  0.00000000000E+00  0.58062784258E+03  0.58062784258E+03  0.25500000000E-02 0. -1.
         -2   -1    0    0    0  501 -0.00000000000E+00 -0.00000000000E+00 -0.79664463289E+03  0.79664463289E+03  0.25500000000E-02 0.  1.
    8880023    1    1    2    0    0  0.19893076492E+03 -0.20581394964E+03  0.29133934836E+03  0.77499784081E+03  0.65864270000E+03 0. -1.
    8880022    1    1    2    0    0 -0.19893076492E+03  0.20581394964E+03 -0.50735613867E+03  0.60227463466E+03  0.15294330000E+03 0.  0.
<mgrwt>
<rscale>  0 0.58881475E+03</rscale>
<asrwt>0</asrwt>
<pdfrwt beam="1">  1        2 0.89327360E-01 0.71815252E+03</pdfrwt>
<pdfrwt beam="2">  1       -2 0.12256071E+00 0.71815252E+03</pdfrwt>
<totfact> 0.26400100E+01</totfact>
</mgrwt>
</event>
<event>
 4    1  0.2665544E-007  0.1321864E+04  0.7818608E-02  0.9046905E-01
         -2   -1    0    0    0  501 -0.00000000000E+00  0.00000000000E+00  0.14279766558E+04  0.14279766558E+04  0.25500000000E-02 0.  1.
          2   -1    0    0  501    0  0.00000000000E+00 -0.00000000000E+00 -0.16678833171E+04  0.16678833171E+04  0.25500000000E-02 0. -1.
    8880023    1    1    2    0    0  0.77217574922E+03 -0.84691200838E+03  0.79634600177E+03  0.15432085078E+04  0.65864270000E+03 0.  1.
    8880022    1    1    2    0    0 -0.77217574922E+03  0.84691200838E+03 -0.10362526631E+04  0.15526514652E+04  0.15294330000E+03 0.  0.
<mgrwt>
<rscale>  0 0.12783590E+04</rscale>
<asrwt>0</asrwt>
<pdfrwt beam="1">  1        2 0.25659743E+00 0.13218644E+04</pdfrwt>
<pdfrwt beam="2">  1       -2 0.21968872E+00 0.13218644E+04</pdfrwt>
<totfact> 0.97100260E-01</totfact>
</mgrwt>
</event>
<event>
 4    1  0.2665544E-007  0.1160718E+04  0.7818608E-02  0.9196287E-01
          2   -1    0    0  501    0  0.00000000000E+00  0.00000000000E+00  0.24720908223E+04  0.24720908223E+04  0.25500000000E-02 0. -1.
         -2   -1    0    0    0  501 -0.00000000000E+00 -0.00000000000E+00 -0.82698645416E+03  0.82698645416E+03  0.25500000000E-02 0.  1.
    8880023    1    1    2    0    0  0.31729618342E+02 -0.95522174299E+03  0.19628390509E+04  0.22803514407E+04  0.65864270000E+03 0.  0.
    8880022    1    1    2    0    0 -0.31729618342E+02  0.95522174299E+03 -0.31773468272E+03  0.10187258358E+04  0.15294330000E+03 0.  0.
<mgrwt>
<rscale>  0 0.11091838E+04</rscale>
<asrwt>0</asrwt>
<pdfrwt beam="1">  1        2 0.38032166E+00 0.11607177E+04</pdfrwt>
<pdfrwt beam="2">  1       -2 0.12722869E+00 0.11607177E+04</pdfrwt>
<totfact> 0.16311918E+00</totfact>
</mgrwt>
</event>
<event>
 4    1  0.2665544E-007  0.7853820E+03  0.7818608E-02  0.9743343E-01
         -2   -1    0    0    0  501 -0.00000000000E+00  0.00000000000E+00  0.83586546793E+03  0.83586546793E+03  0.25500000000E-02 0.  1.
          2   -1    0    0  501    0  0.00000000000E+00 -0.00000000000E+00 -0.19867670751E+04  0.19867670751E+04  0.25500000000E-02 0. -1.
    8880023    1    1    2    0    0  0.35690700120E+03  0.23586450750E+03 -0.18380845047E+04  0.19988445478E+04  0.65864270000E+03 0. -1.
    8880022    1    1    2    0    0 -0.35690700120E+03 -0.23586450750E+03  0.68718289756E+03  0.82378799525E+03  0.15294330000E+03 0.  0.
<mgrwt>
<rscale>  0 0.68493772E+03</rscale>
<asrwt>0</asrwt>
<pdfrwt beam="1">  1        2 0.30565647E+00 0.78538200E+03</pdfrwt>
<pdfrwt beam="2">  1       -2 0.12859469E+00 0.78538200E+03</pdfrwt>
<totfact> 0.31252909E+00</totfact>
</mgrwt>
</event>
<event>
 4    1  0.2665544E-007  0.7299520E+03  0.7818608E-02  0.9890246E-01
          2   -1    0    0  501    0  0.00000000000E+00  0.00000000000E+00  0.80910128053E+03  0.80910128053E+03  0.25500000000E-02 0. -1.
         -2   -1    0    0    0  501 -0.00000000000E+00 -0.00000000000E+00 -0.92364448506E+03  0.92364448506E+03  0.25500000000E-02 0.  1.
    8880023    1    1    2    0    0 -0.20474771811E+02 -0.31400717580E+03  0.59493524939E+03  0.94168884456E+03  0.65864270000E+03 0.  0.
    8880022    1    1    2    0    0  0.20474771811E+02  0.31400717580E+03 -0.70947845392E+03  0.79105692104E+03  0.15294330000E+03 0.  0.
<mgrwt>
<rscale>  0 0.60736317E+03</rscale>
<asrwt>0</asrwt>
<pdfrwt beam="1">  1        2 0.12447712E+00 0.72995200E+03</pdfrwt>
<pdfrwt beam="2">  1       -2 0.14209915E+00 0.72995200E+03</pdfrwt>
<totfact> 0.11933365E+01</totfact>
</mgrwt>
</event>
<event>
 4    1  0.2665544E-007  0.9643962E+03  0.7818608E-02  0.9429697E-01
         -2   -1    0    0    0  501 -0.00000000000E+00  0.00000000000E+00  0.25241137077E+03  0.25241137078E+03  0.25500000000E-02 0.  1.
          2   -1    0    0  501    0  0.00000000000E+00 -0.00000000000E+00 -0.34231914692E+04  0.34231914692E+04  0.25500000000E-02 0. -1.
    8880023    1    1    2    0    0 -0.38373777148E+03  0.59075811753E+03 -0.25429085739E+04  0.27196404270E+04  0.65864270000E+03 0. -1.
    8880022    1    1    2    0    0  0.38373777148E+03 -0.59075811753E+03 -0.62787152452E+03  0.95596241297E+03  0.15294330000E+03 0.  0.
<mgrwt>
<rscale>  0 0.89671533E+03</rscale>
<asrwt>0</asrwt>
<pdfrwt beam="1">  1        2 0.52664481E+00 0.96439620E+03</pdfrwt>
<pdfrwt beam="2">  1       -2 0.38832521E-01 0.96439620E+03</pdfrwt>
<totfact> 0.59917283E+00</totfact>
</mgrwt>
</event>
<event>
 4    1  0.2665544E-007  0.6956273E+03  0.7818608E-02  0.1001585E+00
         -2   -1    0    0    0  501 -0.00000000000E+00  0.00000000000E+00  0.32665524656E+03  0.32665524657E+03  0.25500000000E-02 0.  1.
          2   -1    0    0  501    0  0.00000000000E+00 -0.00000000000E+00 -0.24232163200E+04  0.24232163200E+04  0.25500000000E-02 0. -1.
    8880023    1    1    2    0    0 -0.12179027511E+02  0.22346984646E+03 -0.23051582182E+04  0.24078313309E+04  0.65864270000E+03 0. -1.
    8880022    1    1    2    0    0  0.12179027511E+02 -0.22346984646E+03  0.20859714476E+03  0.34204023565E+03  0.15294330000E+03 0.  0.
<mgrwt>
<rscale>  0 0.54960753E+03</rscale>
<asrwt>0</asrwt>
<pdfrwt beam="1">  1        2 0.37280250E+00 0.69562728E+03</pdfrwt>
<pdfrwt beam="2">  1       -2 0.50254655E-01 0.69562728E+03</pdfrwt>
<totfact> 0.15223658E+01</totfact>
</mgrwt>
</event>
<event>
 4    1  0.2665544E-007  0.7946641E+03  0.7818608E-02  0.9722454E-01
         -2   -1    0    0    0  501 -0.00000000000E+00  0.00000000000E+00  0.11903100420E+04  0.11903100420E+04  0.25500000000E-02 0.  1.
          2   -1    0    0  501    0  0.00000000000E+00 -0.00000000000E+00 -0.36687684098E+03  0.36687684099E+03  0.25500000000E-02 0. -1.
    8880023    1    1    2    0    0 -0.12222940290E+03  0.42748198283E+03  0.28953737120E+03  0.84576767978E+03  0.65864270000E+03 0. -1.
    8880022    1    1    2    0    0  0.12222940290E+03 -0.42748198283E+03  0.53389582981E+03  0.71141920320E+03  0.15294330000E+03 0.  0.
<mgrwt>
<rscale>  0 0.69695470E+03</rscale>
<asrwt>0</asrwt>
<pdfrwt beam="1">  1        2 0.56442591E-01 0.79466413E+03</pdfrwt>
<pdfrwt beam="2">  1       -2 0.18312462E+00 0.79466413E+03</pdfrwt>
<totfact> 0.15305441E+01</totfact>
</mgrwt>
</event>
<event>
 4    1  0.2665544E-007  0.7001396E+03  0.7818608E-02  0.9996623E-01
          2   -1    0    0  501    0  0.00000000000E+00  0.00000000000E+00  0.30992445079E+04  0.30992445079E+04  0.25500000000E-02 0. -1.
         -2   -1    0    0    0  501 -0.00000000000E+00 -0.00000000000E+00 -0.11196694811E+03  0.11196694814E+03  0.25500000000E-02 0.  1.
    8880023    1    1    2    0    0  0.41171008158E+02 -0.23385928329E+03  0.27636380602E+04  0.28509455888E+04  0.65864270000E+03 0. -1.
    8880022    1    1    2    0    0 -0.41171008158E+02  0.23385928329E+03  0.22363949956E+03  0.36026586720E+03  0.15294330000E+03 0.  0.
<mgrwt>
<rscale>  0 0.55798573E+03</rscale>
<asrwt>0</asrwt>
<pdfrwt beam="1">  1        2 0.47680673E+00 0.70013957E+03</pdfrwt>
<pdfrwt beam="2">  1       -2 0.17225689E-01 0.70013957E+03</pdfrwt>
<totfact> 0.44494036E+01</totfact>
</mgrwt>
</event>
<event>
 4    1  0.2665544E-007  0.7146080E+03  0.7818608E-02  0.9941272E-01
          2   -1    0    0  501    0  0.00000000000E+00  0.00000000000E+00  0.27388600958E+03  0.27388600959E+03  0.25500000000E-02 0. -1.
         -2   -1    0    0    0  501 -0.00000000000E+00 -0.00000000000E+00 -0.15130026159E+04  0.15130026159E+04  0.25500000000E-02 0.  1.
    8880023    1    1    2    0    0  0.16543972313E+03 -0.22245009135E+03 -0.26425853010E+03  0.76190361735E+03  0.65864270000E+03 0.  1.
    8880022    1    1    2    0    0 -0.16543972313E+03  0.22245009135E+03 -0.97485807626E+03  0.10249850082E+04  0.15294330000E+03 0.  0.
<mgrwt>
<rscale>  0 0.58302110E+03</rscale>
<asrwt>0</asrwt>
<pdfrwt beam="1">  1        2 0.42136310E-01 0.71460797E+03</pdfrwt>
<pdfrwt beam="2">  1       -2 0.23276963E+00 0.71460797E+03</pdfrwt>
<totfact> 0.10253692E+01</totfact>
</mgrwt>
</event>
<event>
 4    1  0.2665544E-007  0.9899380E+03  0.7818608E-02  0.9394842E-01
         -2   -1    0    0    0  501 -0.00000000000E+00  0.00000000000E+00  0.77339198957E+03  0.77339198958E+03  0.25500000000E-02 0.  1.
          2   -1    0    0  501    0  0.00000000000E+00 -0.00000000000E+00 -0.17476001110E+04  0.17476001110E+04  0.25500000000E-02 0. -1.
    8880023    1    1    2    0    0 -0.72270911229E+03 -0.15446222321E+03 -0.13530745855E+04  0.16765405094E+04  0.65864270000E+03 0.  0.
    8880022    1    1    2    0    0  0.72270911229E+03  0.15446222321E+03  0.37886646402E+03  0.84445159125E+03  0.15294330000E+03 0.  0.
<mgrwt>
<rscale>  0 0.92501400E+03</rscale>
<asrwt>0</asrwt>
<pdfrwt beam="1">  1        2 0.26886156E+00 0.98993800E+03</pdfrwt>
<pdfrwt beam="2">  1       -2 0.11898338E+00 0.98993800E+03</pdfrwt>
<totfact> 0.49908819E+00</totfact>
</mgrwt>
</event>
<event>
 4    1  0.2665544E-007  0.1806531E+04  0.7818608E-02  0.8718932E-01
          2   -1    0    0  501    0  0.00000000000E+00  0.00000000000E+00  0.22829332788E+04  0.22829332788E+04  0.25500000000E-02 0. -1.
         -2   -1    0    0    0  501 -0.00000000000E+00 -0.00000000000E+00 -0.13834139688E+04  0.13834139689E+04  0.25500000000E-02 0.  1.
    8880023    1    1    2    0    0  0.16544983964E+04 -0.30394211971E+03  0.13294985066E+03  0.18114170213E+04  0.65864270000E+03 0.  0.
    8880022    1    1    2    0    0 -0.16544983964E+04  0.30394211971E+03  0.76656945929E+03  0.18549302264E+04  0.15294330000E+03 0.  0.
<mgrwt>
<rscale>  0 0.17764357E+04</rscale>
<asrwt>0</asrwt>
<pdfrwt beam="1">  1        2 0.35122050E+00 0.18065315E+04</pdfrwt>
<pdfrwt beam="2">  1       -2 0.21283292E+00 0.18065315E+04</pdfrwt>
<totfact> 0.46346726E-01</totfact>
</mgrwt>
</event>
<event>
 4    1  0.2665544E-007  0.7988351E+03  0.7818608E-02  0.9713320E-01
          2   -1    0    0  501    0  0.00000000000E+00  0.00000000000E+00  0.13155395851E+04  0.13155395852E+04  0.25500000000E-02 0. -1.
         -2   -1    0    0    0  501 -0.00000000000E+00 -0.00000000000E+00 -0.13267496281E+04  0.13267496281E+04  0.25500000000E-02 0.  1.
    8880023    1    1    2    0    0  0.36251131667E+03 -0.27002385018E+03  0.11423332389E+04  0.13939378643E+04  0.65864270000E+03 0. -1.
    8880022    1    1    2    0    0 -0.36251131667E+03  0.27002385018E+03 -0.11535432819E+04  0.12483513490E+04  0.15294330000E+03 0.  0.
<mgrwt>
<rscale>  0 0.70229207E+03</rscale>
<asrwt>0</asrwt>
<pdfrwt beam="1">  1        2 0.20239071E+00 0.79883511E+03</pdfrwt>
<pdfrwt beam="2">  1       -2 0.20411533E+00 0.79883511E+03</pdfrwt>
<totfact> 0.20672472E+00</totfact>
</mgrwt>
</event>
<event>
 4    1  0.2665544E-007  0.1157221E+04  0.7818608E-02  0.9199872E-01
          2   -1    0    0  501    0  0.00000000000E+00  0.00000000000E+00  0.33371334732E+04  0.33371334732E+04  0.25500000000E-02 0. -1.
         -2   -1    0    0    0  501 -0.00000000000E+00 -0.00000000000E+00 -0.11001161471E+04  0.11001161471E+04  0.25500000000E-02 0.  1.
    8880023    1    1    2    0    0  0.63693472030E+03  0.70686902455E+03  0.29952416904E+04  0.32110173848E+04  0.65864270000E+03 0.  0.
    8880022    1    1    2    0    0 -0.63693472030E+03 -0.70686902455E+03 -0.75822436421E+03  0.12262322355E+04  0.15294330000E+03 0.  0.
<mgrwt>
<rscale>  0 0.11054752E+04</rscale>
<asrwt>0</asrwt>
<pdfrwt beam="1">  1        2 0.51340514E+00 0.11572207E+04</pdfrwt>
<pdfrwt beam="2">  1       -2 0.16924864E+00 0.11572207E+04</pdfrwt>
<totfact> 0.22627374E-01</totfact>
</mgrwt>
</event>
<event>
 4    1  0.2665544E-007  0.7313419E+03  0.7818608E-02  0.9885926E-01
         -2   -1    0    0    0  501 -0.00000000000E+00  0.00000000000E+00  0.37599330073E+03  0.37599330073E+03  0.25500000000E-02 0.  1.
          2   -1    0    0  501    0  0.00000000000E+00 -0.00000000000E+00 -0.89901503738E+03  0.89901503739E+03  0.25500000000E-02 0. -1.
    8880023    1    1    2    0    0  0.18367040053E+03 -0.25945304209E+03 -0.55886272983E+03  0.92042840794E+03  0.65864270000E+03 0. -1.
    8880022    1    1    2    0    0 -0.18367040053E+03  0.25945304209E+03  0.35840993177E+02  0.35457993018E+03  0.15294330000E+03 0.  0.
<mgrwt>
<rscale>  0 0.60948265E+03</rscale>
<asrwt>0</asrwt>
<pdfrwt beam="1">  1        2 0.13831001E+00 0.73134185E+03</pdfrwt>
<pdfrwt beam="2">  1       -2 0.57845123E-01 0.73134185E+03</pdfrwt>
<totfact> 0.83377832E+01</totfact>
</mgrwt>
</event>
<event>
 4    1  0.2665544E-007  0.7916264E+03  0.7818608E-02  0.9729203E-01
         -2   -1    0    0    0  501 -0.00000000000E+00  0.00000000000E+00  0.17805606951E+04  0.17805606951E+04  0.25500000000E-02 0.  1.
          2   -1    0    0  501    0  0.00000000000E+00 -0.00000000000E+00 -0.66121797107E+03  0.66121797107E+03  0.25500000000E-02 0. -1.
    8880023    1    1    2    0    0 -0.35801851956E+02 -0.43769889586E+03 -0.37557487173E+03  0.87620133907E+03  0.65864270000E+03 0.  0.
    8880022    1    1    2    0    0  0.35801851956E+02  0.43769889586E+03  0.14949175957E+04  0.15655773271E+04  0.15294330000E+03 0.  0.
<mgrwt>
<rscale>  0 0.69304374E+03</rscale>
<asrwt>0</asrwt>
<pdfrwt beam="1">  1        2 0.10172584E+00 0.79162637E+03</pdfrwt>
<pdfrwt beam="2">  1       -2 0.27393241E+00 0.79162637E+03</pdfrwt>
<totfact> 0.20783150E+00</totfact>
</mgrwt>
</event>
<event>
 4    1  0.2665544E-007  0.6760558E+03  0.7818608E-02  0.1011649E+00
         -2   -1    0    0    0  501 -0.00000000000E+00  0.00000000000E+00  0.13031205033E+03  0.13031205036E+03  0.25500000000E-02 0.  1.
          2   -1    0    0  501    0  0.00000000000E+00 -0.00000000000E+00 -0.24221751144E+04  0.24221751144E+04  0.25500000000E-02 0. -1.
    8880023    1    1    2    0    0  0.10429853471E+03 -0.11118923007E+03 -0.22264834369E+04  0.23268605309E+04  0.65864270000E+03 0. -1.
    8880022    1    1    2    0    0 -0.10429853471E+03  0.11118923007E+03 -0.65379627131E+02  0.22562663381E+03  0.15294330000E+03 0.  0.
<mgrwt>
<rscale>  0 0.50824538E+03</rscale>
<asrwt>0</asrwt>
<pdfrwt beam="1">  1        2 0.37264229E+00 0.67605579E+03</pdfrwt>
<pdfrwt beam="2">  1       -2 0.20048010E-01 0.67605579E+03</pdfrwt>
<totfact> 0.85839481E+01</totfact>
</mgrwt>
</event>
<event>
 4    1  0.2665544E-007  0.8385611E+03  0.7818608E-02  0.9632899E-01
         -2   -1    0    0    0  501 -0.00000000000E+00  0.00000000000E+00  0.77806464202E+03  0.77806464203E+03  0.25500000000E-02 0.  1.
          2   -1    0    0  501    0  0.00000000000E+00 -0.00000000000E+00 -0.27089707543E+04  0.27089707543E+04  0.25500000000E-02 0. -1.
    8880023    1    1    2    0    0 -0.29644901667E+03  0.42601943287E+03 -0.25385129415E+04  0.26734308926E+04  0.65864270000E+03 0. -1.
    8880022    1    1    2    0    0  0.29644901667E+03 -0.42601943287E+03  0.60760682923E+03  0.81360450380E+03  0.15294330000E+03 0.  0.
<mgrwt>
<rscale>  0 0.75156435E+03</rscale>
<asrwt>0</asrwt>
<pdfrwt beam="1">  1        2 0.41676473E+00 0.83856114E+03</pdfrwt>
<pdfrwt beam="2">  1       -2 0.11970225E+00 0.83856114E+03</pdfrwt>
<totfact> 0.14566440E+00</totfact>
</mgrwt>
</event>
<event>
 4    1  0.2665544E-007  0.7478690E+03  0.7818608E-02  0.9837591E-01
         -2   -1    0    0    0  501 -0.00000000000E+00  0.00000000000E+00  0.36868911811E+03  0.36868911812E+03  0.25500000000E-02 0.  1.
          2   -1    0    0  501    0  0.00000000000E+00 -0.00000000000E+00 -0.93951424573E+03  0.93951424574E+03  0.25500000000E-02 0. -1.
    8880023    1    1    2    0    0 -0.14471747442E+02  0.35396099308E+03 -0.20257251569E+03  0.77481846033E+03  0.65864270000E+03 0.  0.
    8880022    1    1    2    0    0  0.14471747442E+02 -0.35396099308E+03 -0.36825261193E+03  0.53338490352E+03  0.15294330000E+03 0.  0.
<mgrwt>
<rscale>  0 0.63383635E+03</rscale>
<asrwt>0</asrwt>
<pdfrwt beam="1">  1        2 0.14454065E+00 0.74786899E+03</pdfrwt>
<pdfrwt beam="2">  1       -2 0.56721403E-01 0.74786899E+03</pdfrwt>
<totfact> 0.81544142E+01</totfact>
</mgrwt>
</event>
<event>
 4    1  0.2665544E-007  0.9609972E+03  0.7818608E-02  0.9434465E-01
          2   -1    0    0  501    0  0.00000000000E+00  0.00000000000E+00  0.79395435373E+03  0.79395435373E+03  0.25500000000E-02 0. -1.
         -2   -1    0    0    0  501 -0.00000000000E+00 -0.00000000000E+00 -0.96072267477E+03  0.96072267477E+03  0.25500000000E-02 0.  1.
    8880023    1    1    2    0    0  0.20266020391E+03 -0.66980165790E+03  0.14787957839E+03  0.97230859049E+03  0.65864270000E+03 0.  0.
    8880022    1    1    2    0    0 -0.20266020391E+03  0.66980165790E+03 -0.31464789943E+03  0.78236843802E+03  0.15294330000E+03 0.  0.
<mgrwt>
<rscale>  0 0.89292819E+03</rscale>
<asrwt>0</asrwt>
<pdfrwt beam="1">  1        2 0.12214682E+00 0.96099720E+03</pdfrwt>
<pdfrwt beam="2">  1       -2 0.14780349E+00 0.96099720E+03</pdfrwt>
<totfact> 0.10790083E+01</totfact>
</mgrwt>
</event>
<event>
 4    1  0.2665544E-007  0.1014986E+04  0.7818608E-02  0.9362209E-01
         -2   -1    0    0    0  501 -0.00000000000E+00  0.00000000000E+00  0.19851857642E+04  0.19851857642E+04  0.25500000000E-02 0.  1.
          2   -1    0    0  501    0  0.00000000000E+00 -0.00000000000E+00 -0.78141518382E+03  0.78141518382E+03  0.25500000000E-02 0. -1.
    8880023    1    1    2    0    0  0.44241018262E+03 -0.63297691946E+03 -0.30922168551E+03  0.10610442061E+04  0.65864270000E+03 0. -1.
    8880022    1    1    2    0    0 -0.44241018262E+03  0.63297691946E+03  0.15129922659E+04  0.17055567419E+04  0.15294330000E+03 0.  0.
<mgrwt>
<rscale>  0 0.95252110E+03</rscale>
<asrwt>0</asrwt>
<pdfrwt beam="1">  1        2 0.12021772E+00 0.10149861E+04</pdfrwt>
<pdfrwt beam="2">  1       -2 0.30541320E+00 0.10149861E+04</pdfrwt>
<totfact> 0.10500472E+00</totfact>
</mgrwt>
</event>
<event>
 4    1  0.2665544E-007  0.8257989E+03  0.7818608E-02  0.9657562E-01
         -2   -1    0    0    0  501 -0.00000000000E+00  0.00000000000E+00  0.14722705866E+04  0.14722705866E+04  0.25500000000E-02 0.  1.
          2   -1    0    0  501    0  0.00000000000E+00 -0.00000000000E+00 -0.17935697700E+04  0.17935697700E+04  0.25500000000E-02 0. -1.
    8880023    1    1    2    0    0  0.48047714488E+03  0.13143559602E+03 -0.16464391227E+04  0.18419298558E+04  0.65864270000E+03 0.  0.
    8880022    1    1    2    0    0 -0.48047714488E+03 -0.13143559602E+03  0.13251399393E+04  0.14239105009E+04  0.15294330000E+03 0.  0.
<mgrwt>
<rscale>  0 0.73600709E+03</rscale>
<asrwt>0</asrwt>
<pdfrwt beam="1">  1        2 0.27593381E+00 0.82579889E+03</pdfrwt>
<pdfrwt beam="2">  1       -2 0.22650317E+00 0.82579889E+03</pdfrwt>
<totfact> 0.80433620E-01</totfact>
</mgrwt>
</event>
<event>
 4    1  0.2665544E-007  0.7228941E+03  0.7818608E-02  0.9912912E-01
          2   -1    0    0  501    0  0.00000000000E+00  0.00000000000E+00  0.15555951016E+04  0.15555951016E+04  0.25500000000E-02 0. -1.
         -2   -1    0    0    0  501 -0.00000000000E+00 -0.00000000000E+00 -0.21884399231E+03  0.21884399233E+03  0.25500000000E-02 0.  1.
    8880023    1    1    2    0    0 -0.29721770313E+03 -0.20671157821E+02  0.12231455351E+04  0.14207958566E+04  0.65864270000E+03 0.  0.
    8880022    1    1    2    0    0  0.29721770313E+03  0.20671157821E+02  0.11360557419E+03  0.35364323734E+03  0.15294330000E+03 0.  0.
<mgrwt>
<rscale>  0 0.59639563E+03</rscale>
<asrwt>0</asrwt>
<pdfrwt beam="1">  1        2 0.23932233E+00 0.72289409E+03</pdfrwt>
<pdfrwt beam="2">  1       -2 0.33668305E-01 0.72289409E+03</pdfrwt>
<totfact> 0.99526969E+01</totfact>
</mgrwt>
</event>
<event>
 4    1  0.2665544E-007  0.9541997E+03  0.7818608E-02  0.9444097E-01
         -2   -1    0    0    0  501 -0.00000000000E+00  0.00000000000E+00  0.10044528749E+04  0.10044528749E+04  0.25500000000E-02 0.  1.
          2   -1    0    0  501    0  0.00000000000E+00 -0.00000000000E+00 -0.13283751648E+04  0.13283751648E+04  0.25500000000E-02 0. -1.
    8880023    1    1    2    0    0 -0.42783709059E+03 -0.54188771635E+03 -0.98027765898E+03  0.13680063480E+04  0.65864270000E+03 0. -1.
    8880022    1    1    2    0    0  0.42783709059E+03  0.54188771635E+03  0.65635536914E+03  0.96482169173E+03  0.15294330000E+03 0.  0.
<mgrwt>
<rscale>  0 0.88533826E+03</rscale>
<asrwt>0</asrwt>
<pdfrwt beam="1">  1        2 0.20436541E+00 0.95419971E+03</pdfrwt>
<pdfrwt beam="2">  1       -2 0.15453121E+00 0.95419971E+03</pdfrwt>
<totfact> 0.43905786E+00</totfact>
</mgrwt>
</event>
<event>
 4    1  0.2665544E-007  0.1277079E+04  0.7818608E-02  0.9085610E-01
          2   -1    0    0  501    0  0.00000000000E+00  0.00000000000E+00  0.20339792960E+04  0.20339792960E+04  0.25500000000E-02 0. -1.
         -2   -1    0    0    0  501 -0.00000000000E+00 -0.00000000000E+00 -0.13949403366E+04  0.13949403366E+04  0.25500000000E-02 0.  1.
    8880023    1    1    2    0    0 -0.50389418278E+03  0.97119086346E+03  0.15419389715E+04  0.20021256301E+04  0.65864270000E+03 0.  0.
    8880022    1    1    2    0    0  0.50389418278E+03 -0.97119086346E+03 -0.90290001213E+03  0.14267940025E+04  0.15294330000E+03 0.  0.
<mgrwt>
<rscale>  0 0.12316325E+04</rscale>
<asrwt>0</asrwt>
<pdfrwt beam="1">  1        2 0.31291989E+00 0.12770792E+04</pdfrwt>
<pdfrwt beam="2">  1       -2 0.21460621E+00 0.12770792E+04</pdfrwt>
<totfact> 0.65837358E-01</totfact>
</mgrwt>
</event>
<event>
 4    1  0.2665544E-007  0.1061596E+04  0.7818608E-02  0.9305070E-01
         -2   -1    0    0    0  501 -0.00000000000E+00  0.00000000000E+00  0.20105269110E+04  0.20105269110E+04  0.25500000000E-02 0.  1.
          2   -1    0    0  501    0  0.00000000000E+00 -0.00000000000E+00 -0.17219843858E+04  0.17219843858E+04  0.25500000000E-02 0. -1.
    8880023    1    1    2    0    0 -0.43823783667E+03 -0.70790056299E+03 -0.14510314135E+04  0.17979093353E+04  0.65864270000E+03 0.  0.
    8880022    1    1    2    0    0  0.43823783667E+03  0.70790056299E+03  0.17395739386E+04  0.19346019615E+04  0.15294330000E+03 0.  0.
<mgrwt>
<rscale>  0 0.10031746E+04</rscale>
<asrwt>0</asrwt>
<pdfrwt beam="1">  1        2 0.26492067E+00 0.10615959E+04</pdfrwt>
<pdfrwt beam="2">  1       -2 0.30931183E+00 0.10615959E+04</pdfrwt>
<totfact> 0.26512297E-01</totfact>
</mgrwt>
</event>
<event>
 4    1  0.2665544E-007  0.1086345E+04  0.7818608E-02  0.9276414E-01
         -2   -1    0    0    0  501 -0.00000000000E+00  0.00000000000E+00  0.13953627609E+04  0.13953627609E+04  0.25500000000E-02 0.  1.
          2   -1    0    0  501    0  0.00000000000E+00 -0.00000000000E+00 -0.97080509023E+03  0.97080509023E+03  0.25500000000E-02 0. -1.
    8880023    1    1    2    0    0 -0.85844039256E+03 -0.97028296564E+02 -0.40437508056E+03  0.11591651349E+04  0.65864270000E+03 0.  0.
    8880022    1    1    2    0    0  0.85844039256E+03  0.97028296564E+02  0.82893275121E+03  0.12070027162E+04  0.15294330000E+03 0.  0.
<mgrwt>
<rscale>  0 0.10298352E+04</rscale>
<asrwt>0</asrwt>
<pdfrwt beam="1">  1        2 0.14935463E+00 0.10863446E+04</pdfrwt>
<pdfrwt beam="2">  1       -2 0.21467120E+00 0.10863446E+04</pdfrwt>
<totfact> 0.27666802E+00</totfact>
</mgrwt>
</event>
<event>
 4    1  0.2665544E-007  0.1498227E+04  0.7818608E-02  0.8910889E-01
         -2   -1    0    0    0  501 -0.00000000000E+00  0.00000000000E+00  0.95130376154E+03  0.95130376155E+03  0.25500000000E-02 0.  1.
          2   -1    0    0  501    0  0.00000000000E+00 -0.00000000000E+00 -0.37605410199E+04  0.37605410199E+04  0.25500000000E-02 0. -1.
    8880023    1    1    2    0    0  0.90808087997E+03 -0.99310828361E+03  0.10127911288E+03  0.15016466337E+04  0.65864270000E+03 0.  0.
    8880022    1    1    2    0    0 -0.90808087997E+03  0.99310828361E+03 -0.29105163713E+04  0.32101981478E+04  0.15294330000E+03 0.  0.
<mgrwt>
<rscale>  0 0.14608852E+04</rscale>
<asrwt>0</asrwt>
<pdfrwt beam="1">  1        2 0.57854477E+00 0.14982273E+04</pdfrwt>
<pdfrwt beam="2">  1       -2 0.14635443E+00 0.14982273E+04</pdfrwt>
<totfact> 0.16109760E-01</totfact>
</mgrwt>
</event>
<event>
 4    1  0.2665544E-007  0.9007370E+03  0.7818608E-02  0.9524850E-01
         -2   -1    0    0    0  501 -0.00000000000E+00  0.00000000000E+00  0.55254138118E+03  0.55254138118E+03  0.25500000000E-02 0.  1.
          2   -1    0    0  501    0  0.00000000000E+00 -0.00000000000E+00 -0.30738033253E+04  0.30738033253E+04  0.25500000000E-02 0. -1.
    8880023    1    1    2    0    0 -0.13155752531E+02  0.61428317595E+03 -0.27949836139E+04  0.29365388645E+04  0.65864270000E+03 0.  0.
    8880022    1    1    2    0    0  0.13155752531E+02 -0.61428317595E+03  0.27372166985E+03  0.68980584199E+03  0.15294330000E+03 0.  0.
<mgrwt>
<rscale>  0 0.82476298E+03</rscale>
<asrwt>0</asrwt>
<pdfrwt beam="1">  1        2 0.47289281E+00 0.90073698E+03</pdfrwt>
<pdfrwt beam="2">  1       -2 0.85006368E-01 0.90073698E+03</pdfrwt>
<totfact> 0.19586456E+00</totfact>
</mgrwt>
</event>
<event>
 4    1  0.2665544E-007  0.9451561E+03  0.7818608E-02  0.9457118E-01
         -2   -1    0    0    0  501 -0.00000000000E+00  0.00000000000E+00  0.59869960332E+03  0.59869960333E+03  0.25500000000E-02 0.  1.
          2   -1    0    0  501    0  0.00000000000E+00 -0.00000000000E+00 -0.36972544049E+04  0.36972544049E+04  0.25500000000E-02 0. -1.
    8880023    1    1    2    0    0  0.18907628931E+03 -0.65096851177E+03 -0.34069953853E+04  0.35356665013E+04  0.65864270000E+03 0.  0.
    8880022    1    1    2    0    0 -0.18907628931E+03  0.65096851177E+03  0.30844058375E+03  0.76028750694E+03  0.15294330000E+03 0.  0.
<mgrwt>
<rscale>  0 0.87520537E+03</rscale>
<asrwt>0</asrwt>
<pdfrwt beam="1">  1        2 0.56880835E+00 0.94515610E+03</pdfrwt>
<pdfrwt beam="2">  1       -2 0.92107634E-01 0.94515610E+03</pdfrwt>
<totfact> 0.61771699E-01</totfact>
</mgrwt>
</event>
<event>
 4    1  0.2665544E-007  0.7836360E+03  0.7818608E-02  0.9747364E-01
          2   -1    0    0  501    0  0.00000000000E+00  0.00000000000E+00  0.55209272663E+04  0.55209272663E+04  0.25500000000E-02 0. -1.
         -2   -1    0    0    0  501 -0.00000000000E+00 -0.00000000000E+00 -0.19418431051E+03  0.19418431053E+03  0.25500000000E-02 0.  1.
    8880023    1    1    2    0    0  0.40624342760E+03 -0.12345602243E+03  0.51823754112E+04  0.52412880307E+04  0.65864270000E+03 0.  0.
    8880022    1    1    2    0    0 -0.40624342760E+03  0.12345602243E+03  0.14436754464E+03  0.47382354617E+03  0.15294330000E+03 0.  1.
<mgrwt>
<rscale>  0 0.68265423E+03</rscale>
<asrwt>0</asrwt>
<pdfrwt beam="1">  1        2 0.84937345E+00 0.78363596E+03</pdfrwt>
<pdfrwt beam="2">  1       -2 0.29874509E-01 0.78363596E+03</pdfrwt>
<totfact> 0.69204139E-02</totfact>
</mgrwt>
</event>
<event>
 4    1  0.2665544E-007  0.1760728E+04  0.7818608E-02  0.8744577E-01
          2   -1    0    0  501    0  0.00000000000E+00  0.00000000000E+00  0.32538965101E+04  0.32538965101E+04  0.25500000000E-02 0. -1.
         -2   -1    0    0    0  501 -0.00000000000E+00 -0.00000000000E+00 -0.12919729628E+04  0.12919729628E+04  0.25500000000E-02 0.  1.
    8880023    1    1    2    0    0  0.10169126545E+04 -0.12775916389E+04 -0.26462384894E+03  0.17805021006E+04  0.65864270000E+03 0.  1.
    8880022    1    1    2    0    0 -0.10169126545E+04  0.12775916389E+04  0.22265473963E+04  0.27653673722E+04  0.15294330000E+03 0.  0.
<mgrwt>
<rscale>  0 0.17297486E+04</rscale>
<asrwt>0</asrwt>
<pdfrwt beam="1">  1        2 0.50059946E+00 0.17607277E+04</pdfrwt>
<pdfrwt beam="2">  1       -2 0.19876507E+00 0.17607277E+04</pdfrwt>
<totfact> 0.14837819E-01</totfact>
</mgrwt>
</event>
<event>
 4    1  0.2665544E-007  0.9091191E+03  0.7818608E-02  0.9511548E-01
         -2   -1    0    0    0  501 -0.00000000000E+00  0.00000000000E+00  0.14485432573E+04  0.14485432573E+04  0.25500000000E-02 0.  1.
          2   -1    0    0  501    0  0.00000000000E+00 -0.00000000000E+00 -0.13667567024E+04  0.13667567024E+04  0.25500000000E-02 0. -1.
    8880023    1    1    2    0    0  0.46052604504E+03  0.42497416612E+03 -0.11253142067E+04  0.14466615188E+04  0.65864270000E+03 0. -1.
    8880022    1    1    2    0    0 -0.46052604504E+03 -0.42497416612E+03  0.12071007616E+04  0.13686384408E+04  0.15294330000E+03 0.  0.
<mgrwt>
<rscale>  0 0.83437742E+03</rscale>
<asrwt>0</asrwt>
<pdfrwt beam="1">  1        2 0.21027026E+00 0.90911907E+03</pdfrwt>
<pdfrwt beam="2">  1       -2 0.22285281E+00 0.90911907E+03</pdfrwt>
<totfact> 0.14442636E+00</totfact>
</mgrwt>
</event>
<event>
 4    1  0.2665544E-007  0.9473427E+03  0.7818608E-02  0.9453948E-01
         -2   -1    0    0    0  501 -0.00000000000E+00  0.00000000000E+00  0.15725782328E+04  0.15725782328E+04  0.25500000000E-02 0.  1.
          2   -1    0    0  501    0  0.00000000000E+00 -0.00000000000E+00 -0.14150920085E+04  0.14150920085E+04  0.25500000000E-02 0. -1.
    8880023    1    1    2    0    0  0.43013399770E+03 -0.52785671516E+03 -0.11594433340E+04  0.14972531579E+04  0.65864270000E+03 0. -1.
    8880022    1    1    2    0    0 -0.43013399770E+03  0.52785671516E+03  0.13169295584E+04  0.14904170834E+04  0.15294330000E+03 0.  0.
<mgrwt>
<rscale>  0 0.87765912E+03</rscale>
<asrwt>0</asrwt>
<pdfrwt beam="1">  1        2 0.21770646E+00 0.94734269E+03</pdfrwt>
<pdfrwt beam="2">  1       -2 0.24193511E+00 0.94734269E+03</pdfrwt>
<totfact> 0.10268504E+00</totfact>
</mgrwt>
</event>
<event>
 4    1  0.2665544E-007  0.8192511E+03  0.7818608E-02  0.9670620E-01
         -2   -1    0    0    0  501 -0.00000000000E+00  0.00000000000E+00  0.30784393511E+03  0.30784393512E+03  0.25500000000E-02 0.  1.
          2   -1    0    0  501    0  0.00000000000E+00 -0.00000000000E+00 -0.28665586533E+04  0.28665586533E+04  0.25500000000E-02 0. -1.
    8880023    1    1    2    0    0  0.32446556045E+03  0.36343390179E+03 -0.25340240854E+04  0.26631654798E+04  0.65864270000E+03 0.  0.
    8880022    1    1    2    0    0 -0.32446556045E+03 -0.36343390179E+03 -0.24690632763E+02  0.51123710864E+03  0.15294330000E+03 0.  0.
<mgrwt>
<rscale>  0 0.72793329E+03</rscale>
<asrwt>0</asrwt>
<pdfrwt beam="1">  1        2 0.44100900E+00 0.81925106E+03</pdfrwt>
<pdfrwt beam="2">  1       -2 0.47360607E-01 0.81925106E+03</pdfrwt>
<totfact> 0.93192046E+00</totfact>
</mgrwt>
</event>
<event>
 4    1  0.2665544E-007  0.1150405E+04  0.7818608E-02  0.9206908E-01
         -2   -1    0    0    0  501 -0.00000000000E+00  0.00000000000E+00  0.12136196717E+04  0.12136196717E+04  0.25500000000E-02 0.  1.
          2   -1    0    0  501    0  0.00000000000E+00 -0.00000000000E+00 -0.15397324730E+04  0.15397324730E+04  0.25500000000E-02 0. -1.
    8880023    1    1    2    0    0 -0.23563233970E+02 -0.94290349183E+03 -0.10476908245E+04  0.15559847335E+04  0.65864270000E+03 0.  0.
    8880022    1    1    2    0    0  0.23563233970E+02  0.94290349183E+03  0.72157802321E+03  0.11973674112E+04  0.15294330000E+03 0.  0.
<mgrwt>
<rscale>  0 0.10982415E+04</rscale>
<asrwt>0</asrwt>
<pdfrwt beam="1">  1        2 0.23688192E+00 0.11504053E+04</pdfrwt>
<pdfrwt beam="2">  1       -2 0.18671072E+00 0.11504053E+04</pdfrwt>
<totfact> 0.19183625E+00</totfact>
</mgrwt>
</event>
<event>
 4    1  0.4950723E-007  0.1933386E+04  0.7818608E-02  0.8652133E-01
         -2   -1    0    0    0  501 -0.00000000000E+00  0.00000000000E+00  0.25836058307E+04  0.25836058307E+04  0.25500000000E-02 0.  1.
          2   -1    0    0  501    0  0.00000000000E+00 -0.00000000000E+00 -0.29273209816E+04  0.29273209816E+04  0.25500000000E-02 0. -1.
    8880023    1    1    2    0    0  0.57733173093E+03 -0.17236185646E+04 -0.21860057097E+04  0.29183221297E+04  0.65864270000E+03 0.  0.
    8880022    1    1    2    0    0 -0.57733173093E+03  0.17236185646E+04  0.18422905588E+04  0.25926046826E+04  0.15294330000E+03 0.  0.
<mgrwt>
<rscale>  0 0.19054818E+04</rscale>
<asrwt>0</asrwt>
<pdfrwt beam="1">  1        2 0.45035708E+00 0.19333864E+04</pdfrwt>
<pdfrwt beam="2">  1       -2 0.39747782E+00 0.19333864E+04</pdfrwt>
<totfact> 0.13217247E-02</totfact>
</mgrwt>
</event>
<event>
 4    1  0.2665544E-007  0.6724639E+03  0.7818608E-02  0.1013955E+00
         -2   -1    0    0    0  501 -0.00000000000E+00  0.00000000000E+00  0.11300260103E+04  0.11300260103E+04  0.25500000000E-02 0.  1.
          2   -1    0    0  501    0  0.00000000000E+00 -0.00000000000E+00 -0.66007952098E+03  0.66007952098E+03  0.25500000000E-02 0. -1.
    8880023    1    1    2    0    0 -0.71768107380E+01 -0.13544736012E+03 -0.47499614053E+03  0.82330373117E+03  0.65864270000E+03 0. -1.
    8880022    1    1    2    0    0  0.71768107380E+01  0.13544736012E+03  0.94494262985E+03  0.96680180011E+03  0.15294330000E+03 0.  0.
<mgrwt>
<rscale>  0 0.49932656E+03</rscale>
<asrwt>0</asrwt>
<pdfrwt beam="1">  1        2 0.10155070E+00 0.67246390E+03</pdfrwt>
<pdfrwt beam="2">  1       -2 0.17385015E+00 0.67246390E+03</pdfrwt>
<totfact> 0.90638328E+00</totfact>
</mgrwt>
</event>
<event>
 4    1  0.2665544E-007  0.8422545E+03  0.7818608E-02  0.9625944E-01
         -2   -1    0    0    0  501 -0.00000000000E+00  0.00000000000E+00  0.20759665255E+03  0.20759665256E+03  0.25500000000E-02 0.  1.
          2   -1    0    0  501    0  0.00000000000E+00 -0.00000000000E+00 -0.23555659797E+04  0.23555659797E+04  0.25500000000E-02 0. -1.
    8880023    1    1    2    0    0 -0.39303023569E+03  0.34800807885E+03 -0.14454063375E+04  0.16728993024E+04  0.65864270000E+03 0. -1.
    8880022    1    1    2    0    0  0.39303023569E+03 -0.34800807885E+03 -0.70256298962E+03  0.89026332987E+03  0.15294330000E+03 0.  0.
<mgrwt>
<rscale>  0 0.75602591E+03</rscale>
<asrwt>0</asrwt>
<pdfrwt beam="1">  1        2 0.36239475E+00 0.84225447E+03</pdfrwt>
<pdfrwt beam="2">  1       -2 0.31937948E-01 0.84225447E+03</pdfrwt>
<totfact> 0.39440465E+01</totfact>
</mgrwt>
</event>
<event>
 4    1  0.2665544E-007  0.1452856E+04  0.7818608E-02  0.8943663E-01
          2   -1    0    0  501    0  0.00000000000E+00  0.00000000000E+00  0.35134181750E+04  0.35134181750E+04  0.25500000000E-02 0. -1.
         -2   -1    0    0    0  501 -0.00000000000E+00 -0.00000000000E+00 -0.92464956329E+03  0.92464956329E+03  0.25500000000E-02 0.  1.
    8880023    1    1    2    0    0  0.12563008244E+04 -0.31414964906E+03  0.27637895194E+04  0.31223908271E+04  0.65864270000E+03 0.  0.
    8880022    1    1    2    0    0 -0.12563008244E+04  0.31414964906E+03 -0.17502090773E+03  0.13156769111E+04  0.15294330000E+03 0.  0.
<mgrwt>
<rscale>  0 0.14141161E+04</rscale>
<asrwt>0</asrwt>
<pdfrwt beam="1">  1        2 0.54052587E+00 0.14528565E+04</pdfrwt>
<pdfrwt beam="2">  1       -2 0.14225378E+00 0.14528565E+04</pdfrwt>
<totfact> 0.26318039E-01</totfact>
</mgrwt>
</event>
<event>
 4    1  0.2665544E-007  0.1085085E+04  0.7818608E-02  0.9277846E-01
         -2   -1    0    0    0  501 -0.00000000000E+00  0.00000000000E+00  0.46298556823E+03  0.46298556824E+03  0.25500000000E-02 0.  1.
          2   -1    0    0  501    0  0.00000000000E+00 -0.00000000000E+00 -0.29232541058E+04  0.29232541058E+04  0.25500000000E-02 0. -1.
    8880023    1    1    2    0    0  0.84327888633E+03 -0.18022366721E+03 -0.22311013595E+04  0.24809722556E+04  0.65864270000E+03 0.  0.
    8880022    1    1    2    0    0 -0.84327888633E+03  0.18022366721E+03 -0.22916717802E+03  0.90526741841E+03  0.15294330000E+03 0.  0.
<mgrwt>
<rscale>  0 0.10284821E+04</rscale>
<asrwt>0</asrwt>
<pdfrwt beam="1">  1        2 0.44973139E+00 0.10850853E+04</pdfrwt>
<pdfrwt beam="2">  1       -2 0.71228550E-01 0.10850853E+04</pdfrwt>
<totfact> 0.35062145E+00</totfact>
</mgrwt>
</event>
<event>
 4    1  0.2665544E-007  0.7333428E+03  0.7818608E-02  0.9879781E-01
         -2   -1    0    0    0  501 -0.00000000000E+00  0.00000000000E+00  0.88974672591E+03  0.88974672591E+03  0.25500000000E-02 0.  1.
          2   -1    0    0  501    0  0.00000000000E+00 -0.00000000000E+00 -0.10790742161E+04  0.10790742161E+04  0.25500000000E-02 0. -1.
    8880023    1    1    2    0    0  0.29229014454E+03 -0.13619065604E+03 -0.90755360428E+03  0.11668098278E+04  0.65864270000E+03 0. -1.
    8880022    1    1    2    0    0 -0.29229014454E+03  0.13619065604E+03  0.71822611407E+03  0.80201111422E+03  0.15294330000E+03 0.  0.
<mgrwt>
<rscale>  0 0.61251252E+03</rscale>
<asrwt>0</asrwt>
<pdfrwt beam="1">  1        2 0.16601142E+00 0.73334278E+03</pdfrwt>
<pdfrwt beam="2">  1       -2 0.13688411E+00 0.73334278E+03</pdfrwt>
<totfact> 0.87245645E+00</totfact>
</mgrwt>
</event>
<event>
 4    1  0.2665544E-007  0.1056700E+04  0.7818608E-02  0.9310870E-01
          2   -1    0    0  501    0  0.00000000000E+00  0.00000000000E+00  0.10443116000E+04  0.10443116000E+04  0.25500000000E-02 0. -1.
         -2   -1    0    0    0  501 -0.00000000000E+00 -0.00000000000E+00 -0.19768753106E+04  0.19768753106E+04  0.25500000000E-02 0.  1.
    8880023    1    1    2    0    0 -0.65579146004E+03 -0.50273463214E+03  0.64197637995E+03  0.12364256662E+04  0.65864270000E+03 0.  0.
    8880022    1    1    2    0    0  0.65579146004E+03  0.50273463214E+03 -0.15745400906E+04  0.17847612444E+04  0.15294330000E+03 0.  0.
<mgrwt>
<rscale>  0 0.99788256E+03</rscale>
<asrwt>0</asrwt>
<pdfrwt beam="1">  1        2 0.16066332E+00 0.10566999E+04</pdfrwt>
<pdfrwt beam="2">  1       -2 0.30413466E+00 0.10566999E+04</pdfrwt>
<totfact> 0.70506564E-01</totfact>
</mgrwt>
</event>
<event>
 4    1  0.2665544E-007  0.1213023E+04  0.7818608E-02  0.9144566E-01
          2   -1    0    0  501    0  0.00000000000E+00  0.00000000000E+00  0.30362931313E+04  0.30362931313E+04  0.25500000000E-02 0. -1.
         -2   -1    0    0    0  501 -0.00000000000E+00 -0.00000000000E+00 -0.10478637688E+04  0.10478637688E+04  0.25500000000E-02 0.  1.
    8880023    1    1    2    0    0 -0.50439201565E+02  0.10173837433E+04  0.26120957826E+04  0.28800118711E+04  0.65864270000E+03 0.  0.
    8880022    1    1    2    0    0  0.50439201565E+02 -0.10173837433E+04 -0.62366642013E+03  0.12041450290E+04  0.15294330000E+03 0.  0.
<mgrwt>
<rscale>  0 0.11644381E+04</rscale>
<asrwt>0</asrwt>
<pdfrwt beam="1">  1        2 0.46712202E+00 0.12130227E+04</pdfrwt>
<pdfrwt beam="2">  1       -2 0.16120981E+00 0.12130227E+04</pdfrwt>
<totfact> 0.40064437E-01</totfact>
</mgrwt>
</event>
<event>
 4    1  0.2665544E-007  0.1175758E+04  0.7818608E-02  0.9181055E-01
          2   -1    0    0  501    0  0.00000000000E+00  0.00000000000E+00  0.19663530784E+04  0.19663530784E+04  0.25500000000E-02 0. -1.
         -2   -1    0    0    0  501 -0.00000000000E+00 -0.00000000000E+00 -0.65582762785E+03  0.65582762786E+03  0.25500000000E-02 0.  1.
    8880023    1    1    2    0    0  0.19684416505E+03  0.95386028352E+03  0.11082631613E+04  0.16157519942E+04  0.65864270000E+03 0.  0.
    8880022    1    1    2    0    0 -0.19684416505E+03 -0.95386028352E+03  0.20226228925E+03  0.10064287121E+04  0.15294330000E+03 0.  0.
<mgrwt>
<rscale>  0 0.11251130E+04</rscale>
<asrwt>0</asrwt>
<pdfrwt beam="1">  1        2 0.30251586E+00 0.11757582E+04</pdfrwt>
<pdfrwt beam="2">  1       -2 0.10089656E+00 0.11757582E+04</pdfrwt>
<totfact> 0.55334801E+00</totfact>
</mgrwt>
</event>
<event>
 4    1  0.2665544E-007  0.7422241E+03  0.7818608E-02  0.9853515E-01
         -2   -1    0    0    0  501 -0.00000000000E+00  0.00000000000E+00  0.77546032676E+03  0.77546032677E+03  0.25500000000E-02 0.  1.
          2   -1    0    0  501    0  0.00000000000E+00 -0.00000000000E+00 -0.18004616473E+04  0.18004616473E+04  0.25500000000E-02 0. -1.
    8880023    1    1    2    0    0 -0.81439473890E+02 -0.33234630814E+03 -0.16713609193E+04  0.18287547636E+04  0.65864270000E+03 0. -1.
    8880022    1    1    2    0    0  0.81439473890E+02  0.33234630814E+03  0.64635959879E+03  0.74716721047E+03  0.15294330000E+03 0.  0.
<mgrwt>
<rscale>  0 0.62568016E+03</rscale>
<asrwt>0</asrwt>
<pdfrwt beam="1">  1        2 0.27699410E+00 0.74222413E+03</pdfrwt>
<pdfrwt beam="2">  1       -2 0.11930159E+00 0.74222413E+03</pdfrwt>
<totfact> 0.47985414E+00</totfact>
</mgrwt>
</event>
<event>
 4    1  0.2665544E-007  0.7711926E+03  0.7818608E-02  0.9776948E-01
          2   -1    0    0  501    0  0.00000000000E+00  0.00000000000E+00  0.31301321908E+04  0.31301321908E+04  0.25500000000E-02 0. -1.
         -2   -1    0    0    0  501 -0.00000000000E+00 -0.00000000000E+00 -0.38005562521E+03  0.38005562522E+03  0.25500000000E-02 0.  1.
    8880023    1    1    2    0    0 -0.39144693728E+03 -0.87733397831E+02  0.29409228669E+04  0.30403561254E+04  0.65864270000E+03 0. -1.
    8880022    1    1    2    0    0  0.39144693728E+03  0.87733397831E+02 -0.19084630130E+03  0.46983169065E+03  0.15294330000E+03 0.  0.
<mgrwt>
<rscale>  0 0.66614468E+03</rscale>
<asrwt>0</asrwt>
<pdfrwt beam="1">  1        2 0.48155880E+00 0.77119262E+03</pdfrwt>
<pdfrwt beam="2">  1       -2 0.58470096E-01 0.77119262E+03</pdfrwt>
<totfact> 0.41989586E+00</totfact>
</mgrwt>
</event>
<event>
 4    1  0.2665544E-007  0.8405077E+03  0.7818608E-02  0.9629224E-01
         -2   -1    0    0    0  501 -0.00000000000E+00  0.00000000000E+00  0.13857159529E+04  0.13857159529E+04  0.25500000000E-02 0.  1.
          2   -1    0    0  501    0  0.00000000000E+00 -0.00000000000E+00 -0.52529405649E+03  0.52529405650E+03  0.25500000000E-02 0. -1.
    8880023    1    1    2    0    0 -0.46718163692E+03  0.23320425865E+03 -0.59090664745E+02  0.84258223400E+03  0.65864270000E+03 0. -1.
    8880022    1    1    2    0    0  0.46718163692E+03 -0.23320425865E+03  0.91951256114E+03  0.10684277754E+04  0.15294330000E+03 0.  1.
<mgrwt>
<rscale>  0 0.75391790E+03</rscale>
<asrwt>0</asrwt>
<pdfrwt beam="1">  1        2 0.80814472E-01 0.84050765E+03</pdfrwt>
<pdfrwt beam="2">  1       -2 0.21318707E+00 0.84050765E+03</pdfrwt>
<totfact> 0.64217872E+00</totfact>
</mgrwt>
</event>
<event>
 4    1  0.2665544E-007  0.8496077E+03  0.7818608E-02  0.9612324E-01
          2   -1    0    0  501    0  0.00000000000E+00  0.00000000000E+00  0.37221623410E+04  0.37221623410E+04  0.25500000000E-02 0. -1.
         -2   -1    0    0    0  501 -0.00000000000E+00 -0.00000000000E+00 -0.15196801025E+03  0.15196801027E+03  0.25500000000E-02 0.  1.
    8880023    1    1    2    0    0  0.49129873046E+03  0.21598276053E+03  0.27787295267E+04  0.29057135069E+04  0.65864270000E+03 0.  0.
    8880022    1    1    2    0    0 -0.49129873046E+03 -0.21598276053E+03  0.79146480408E+03  0.96841684439E+03  0.15294330000E+03 0.  0.
<mgrwt>
<rscale>  0 0.76485868E+03</rscale>
<asrwt>0</asrwt>
<pdfrwt beam="1">  1        2 0.57264040E+00 0.84960768E+03</pdfrwt>
<pdfrwt beam="2">  1       -2 0.23379692E-01 0.84960768E+03</pdfrwt>
<totfact> 0.97170763E+00</totfact>
</mgrwt>
</event>
<event>
 4    1  0.2665544E-007  0.6632293E+03  0.7818608E-02  0.1021068E+00
         -2   -1    0    0    0  501 -0.00000000000E+00  0.00000000000E+00  0.17410783513E+03  0.17410783515E+03  0.25500000000E-02 0.  1.
          2   -1    0    0  501    0  0.00000000000E+00 -0.00000000000E+00 -0.29758049924E+04  0.29758049924E+04  0.25500000000E-02 0. -1.
    8880023    1    1    2    0    0  0.53283941328E+02  0.56777257103E+02 -0.28842111454E+04  0.29594842410E+04  0.65864270000E+03 0. -1.
    8880022    1    1    2    0    0 -0.53283941328E+02 -0.56777257103E+02  0.82513988114E+02  0.19042858655E+03  0.15294330000E+03 0.  0.
<mgrwt>
<rscale>  0 0.47303327E+03</rscale>
<asrwt>0</asrwt>
<pdfrwt beam="1">  1        2 0.45781611E+00 0.66322925E+03</pdfrwt>
<pdfrwt beam="2">  1       -2 0.26785823E-01 0.66322925E+03</pdfrwt>
<totfact> 0.24464042E+01</totfact>
</mgrwt>
</event>
<event>
 4    1  0.2665544E-007  0.7448498E+03  0.7818608E-02  0.9846039E-01
          2   -1    0    0  501    0  0.00000000000E+00  0.00000000000E+00  0.88954853885E+03  0.88954853885E+03  0.25500000000E-02 0. -1.
         -2   -1    0    0    0  501 -0.00000000000E+00 -0.00000000000E+00 -0.93551425825E+03  0.93551425825E+03  0.25500000000E-02 0.  1.
    8880023    1    1    2    0    0  0.22978646383E+03  0.26113066454E+03  0.67814254601E+03  0.10073125443E+04  0.65864270000E+03 0. -1.
    8880022    1    1    2    0    0 -0.22978646383E+03 -0.26113066454E+03 -0.72410826541E+03  0.81775025281E+03  0.15294330000E+03 0.  0.
<mgrwt>
<rscale>  0 0.62949304E+03</rscale>
<asrwt>0</asrwt>
<pdfrwt beam="1">  1        2 0.13685362E+00 0.74484982E+03</pdfrwt>
<pdfrwt beam="2">  1       -2 0.14392527E+00 0.74484982E+03</pdfrwt>
<totfact> 0.10131574E+01</totfact>
</mgrwt>
</event>
<event>
 4    1  0.2665544E-007  0.6688572E+03  0.7818608E-02  0.1016496E+00
         -2   -1    0    0    0  501 -0.00000000000E+00  0.00000000000E+00  0.50787664906E+03  0.50787664906E+03  0.25500000000E-02 0.  1.
          2   -1    0    0  501    0  0.00000000000E+00 -0.00000000000E+00 -0.20160104175E+04  0.20160104175E+04  0.25500000000E-02 0. -1.
    8880023    1    1    2    0    0 -0.67265085572E+02 -0.95053715143E+02 -0.19395194966E+04  0.20516105586E+04  0.65864270000E+03 0. -1.
    8880022    1    1    2    0    0  0.67265085572E+02  0.95053715143E+02  0.43138572812E+03  0.47227650793E+03  0.15294330000E+03 0.  0.
<mgrwt>
<rscale>  0 0.48972696E+03</rscale>
<asrwt>0</asrwt>
<pdfrwt beam="1">  1        2 0.31015545E+00 0.66885724E+03</pdfrwt>
<pdfrwt beam="2">  1       -2 0.78134870E-01 0.66885724E+03</pdfrwt>
<totfact> 0.10012192E+01</totfact>
</mgrwt>
</event>
<event>
 4    1  0.2665544E-007  0.1123114E+04  0.7818608E-02  0.9235747E-01
          2   -1    0    0  501    0  0.00000000000E+00  0.00000000000E+00  0.19951131439E+04  0.19951131439E+04  0.25500000000E-02 0. -1.
         -2   -1    0    0    0  501 -0.00000000000E+00 -0.00000000000E+00 -0.91555672849E+03  0.91555672849E+03  0.25500000000E-02 0.  1.
    8880023    1    1    2    0    0 -0.17013863002E+03  0.89366024262E+03  0.15188020514E+04  0.18889535887E+04  0.65864270000E+03 0. -1.
    8880022    1    1    2    0    0  0.17013863002E+03 -0.89366024262E+03 -0.43924563597E+03  0.10217162837E+04  0.15294330000E+03 0.  0.
<mgrwt>
<rscale>  0 0.10691955E+04</rscale>
<asrwt>0</asrwt>
<pdfrwt beam="1">  1        2 0.30694048E+00 0.11231144E+04</pdfrwt>
<pdfrwt beam="2">  1       -2 0.14085488E+00 0.11231144E+04</pdfrwt>
<totfact> 0.23355268E+00</totfact>
</mgrwt>
</event>
<event>
 4    1  0.2665544E-007  0.8083500E+03  0.7818608E-02  0.9693024E-01
         -2   -1    0    0    0  501 -0.00000000000E+00  0.00000000000E+00  0.39231674885E+03  0.39231674885E+03  0.25500000000E-02 0.  1.
          2   -1    0    0  501    0  0.00000000000E+00 -0.00000000000E+00 -0.22970656937E+04  0.22970656937E+04  0.25500000000E-02 0. -1.
    8880023    1    1    2    0    0 -0.11853748300E+02 -0.46848591040E+03 -0.20263593629E+04  0.21816420498E+04  0.65864270000E+03 0. -1.
    8880022    1    1    2    0    0  0.11853748300E+02  0.46848591040E+03  0.12161041809E+03  0.50774039271E+03  0.15294330000E+03 0.  0.
<mgrwt>
<rscale>  0 0.71433657E+03</rscale>
<asrwt>0</asrwt>
<pdfrwt beam="1">  1        2 0.35339471E+00 0.80835003E+03</pdfrwt>
<pdfrwt beam="2">  1       -2 0.60356425E-01 0.80835003E+03</pdfrwt>
<totfact> 0.12028910E+01</totfact>
</mgrwt>
</event>
<event>
 4    1  0.2665544E-007  0.8760581E+03  0.7818608E-02  0.9565614E-01
          2   -1    0    0  501    0  0.00000000000E+00  0.00000000000E+00  0.23591296382E+04  0.23591296382E+04  0.25500000000E-02 0. -1.
         -2   -1    0    0    0  501 -0.00000000000E+00 -0.00000000000E+00 -0.48666077879E+03  0.48666077879E+03  0.25500000000E-02 0.  1.
    8880023    1    1    2    0    0 -0.48063774553E+03 -0.32039812211E+03  0.20442383351E+04  0.22240477010E+04  0.65864270000E+03 0.  0.
    8880022    1    1    2    0    0  0.48063774553E+03  0.32039812211E+03 -0.17176947574E+03  0.62174271600E+03  0.15294330000E+03 0.  0.
<mgrwt>
<rscale>  0 0.79614509E+03</rscale>
<asrwt>0</asrwt>
<pdfrwt beam="1">  1        2 0.36294302E+00 0.87605811E+03</pdfrwt>
<pdfrwt beam="2">  1       -2 0.74870889E-01 0.87605811E+03</pdfrwt>
<totfact> 0.68926131E+00</totfact>
</mgrwt>
</event>
<event>
 4    1  0.2665544E-007  0.1058970E+04  0.7818608E-02  0.9308175E-01
         -2   -1    0    0    0  501 -0.00000000000E+00  0.00000000000E+00  0.25520711876E+04  0.25520711876E+04  0.25500000000E-02 0.  1.
          2   -1    0    0  501    0  0.00000000000E+00 -0.00000000000E+00 -0.67178186663E+03  0.67178186664E+03  0.25500000000E-02 0. -1.
    8880023    1    1    2    0    0  0.22268841697E+03  0.79876020517E+03 -0.10769864535E+03  0.10644328071E+04  0.65864270000E+03 0.  0.
    8880022    1    1    2    0    0 -0.22268841697E+03 -0.79876020517E+03  0.19879879663E+04  0.21594202471E+04  0.15294330000E+03 0.  0.
<mgrwt>
<rscale>  0 0.10003374E+04</rscale>
<asrwt>0</asrwt>
<pdfrwt beam="1">  1        2 0.10335105E+00 0.10589704E+04</pdfrwt>
<pdfrwt beam="2">  1       -2 0.39262634E+00 0.10589704E+04</pdfrwt>
<totfact> 0.36106910E-01</totfact>
</mgrwt>
</event>
<event>
 4    1  0.2665544E-007  0.1006282E+04  0.7818608E-02  0.9373384E-01
          2   -1    0    0  501    0  0.00000000000E+00  0.00000000000E+00  0.11344675814E+04  0.11344675814E+04  0.25500000000E-02 0. -1.
         -2   -1    0    0    0  501 -0.00000000000E+00 -0.00000000000E+00 -0.18074897219E+04  0.18074897219E+04  0.25500000000E-02 0.  1.
    8880023    1    1    2    0    0 -0.74809991236E+03  0.13834847445E+03  0.79434974195E+03  0.12820278851E+04  0.65864270000E+03 0.  0.
    8880022    1    1    2    0    0  0.74809991236E+03 -0.13834847445E+03 -0.14673718825E+04  0.16599294183E+04  0.15294330000E+03 0.  0.
<mgrwt>
<rscale>  0 0.94298795E+03</rscale>
<asrwt>0</asrwt>
<pdfrwt beam="1">  1        2 0.17453347E+00 0.10062823E+04</pdfrwt>
<pdfrwt beam="2">  1       -2 0.27807534E+00 0.10062823E+04</pdfrwt>
<totfact> 0.89748530E-01</totfact>
</mgrwt>
</event>
<event>
 4    1  0.2665544E-007  0.1219880E+04  0.7818608E-02  0.9138036E-01
         -2   -1    0    0    0  501 -0.00000000000E+00  0.00000000000E+00  0.77579491581E+03  0.77579491582E+03  0.25500000000E-02 0.  1.
          2   -1    0    0  501    0  0.00000000000E+00 -0.00000000000E+00 -0.39184869636E+04  0.39184869636E+04  0.25500000000E-02 0. -1.
    8880023    1    1    2    0    0  0.10162463117E+04  0.14676817722E+03 -0.34105630016E+04  0.36221606340E+04  0.65864270000E+03 0.  0.
    8880022    1    1    2    0    0 -0.10162463117E+04 -0.14676817722E+03  0.26787095386E+03  0.10721212454E+04  0.15294330000E+03 0.  0.
<mgrwt>
<rscale>  0 0.11716545E+04</rscale>
<asrwt>0</asrwt>
<pdfrwt beam="1">  1        2 0.60284414E+00 0.12198802E+04</pdfrwt>
<pdfrwt beam="2">  1       -2 0.11935307E+00 0.12198802E+04</pdfrwt>
<totfact> 0.21506827E-01</totfact>
</mgrwt>
</event>
<event>
 4    1  0.2665544E-007  0.8161190E+03  0.7818608E-02  0.9676969E-01
          2   -1    0    0  501    0  0.00000000000E+00  0.00000000000E+00  0.23671418307E+04  0.23671418307E+04  0.25500000000E-02 0. -1.
         -2   -1    0    0    0  501 -0.00000000000E+00 -0.00000000000E+00 -0.28694973990E+03  0.28694973991E+03  0.25500000000E-02 0.  1.
    8880023    1    1    2    0    0  0.21026029955E+03 -0.43362505686E+03  0.19759512255E+04  0.21378572299E+04  0.65864270000E+03 0. -1.
    8880022    1    1    2    0    0 -0.21026029955E+03  0.43362505686E+03  0.10424086526E+03  0.51623434069E+03  0.15294330000E+03 0.  0.
<mgrwt>
<rscale>  0 0.72404737E+03</rscale>
<asrwt>0</asrwt>
<pdfrwt beam="1">  1        2 0.36417566E+00 0.81611904E+03</pdfrwt>
<pdfrwt beam="2">  1       -2 0.44146114E-01 0.81611904E+03</pdfrwt>
<totfact> 0.20858998E+01</totfact>
</mgrwt>
</event>
<event>
 4    1  0.2665544E-007  0.7119938E+03  0.7818608E-02  0.9950670E-01
         -2   -1    0    0    0  501 -0.00000000000E+00  0.00000000000E+00  0.49140544047E+03  0.49140544048E+03  0.25500000000E-02 0.  1.
          2   -1    0    0  501    0  0.00000000000E+00 -0.00000000000E+00 -0.55840897632E+03  0.55840897632E+03  0.25500000000E-02 0. -1.
    8880023    1    1    2    0    0 -0.68828508484E+02 -0.26151031341E+03 -0.15133777487E+03  0.72789994914E+03  0.65864270000E+03 0.  0.
    8880022    1    1    2    0    0  0.68828508484E+02  0.26151031341E+03  0.84334239019E+02  0.32191446766E+03  0.15294330000E+03 0.  0.
<mgrwt>
<rscale>  0 0.57867199E+03</rscale>
<asrwt>0</asrwt>
<pdfrwt beam="1">  1        2 0.85909073E-01 0.71199383E+03</pdfrwt>
<pdfrwt beam="2">  1       -2 0.75600837E-01 0.71199383E+03</pdfrwt>
<totfact> 0.85988451E+01</totfact>
</mgrwt>
</event>
<event>
 4    1  0.2665544E-007  0.9310683E+03  0.7818608E-02  0.9477892E-01
         -2   -1    0    0    0  501 -0.00000000000E+00  0.00000000000E+00  0.42325733916E+03  0.42325733917E+03  0.25500000000E-02 0.  1.
          2   -1    0    0  501    0  0.00000000000E+00 -0.00000000000E+00 -0.25068597886E+04  0.25068597886E+04  0.25500000000E-02 0. -1.
    8880023    1    1    2    0    0 -0.26832919010E+03 -0.60089717658E+03 -0.20524648360E+04  0.22537746294E+04  0.65864270000E+03 0.  0.
    8880022    1    1    2    0    0  0.26832919010E+03  0.60089717658E+03 -0.31137613468E+02  0.67634249835E+03  0.15294330000E+03 0.  0.
<mgrwt>
<rscale>  0 0.85933528E+03</rscale>
<asrwt>0</asrwt>
<pdfrwt beam="1">  1        2 0.38567073E+00 0.93106830E+03</pdfrwt>
<pdfrwt beam="2">  1       -2 0.65116515E-01 0.93106830E+03</pdfrwt>
<totfact> 0.76573406E+00</totfact>
</mgrwt>
</event>
<event>
 4    1  0.2665544E-007  0.1604797E+04  0.7818608E-02  0.8838974E-01
         -2   -1    0    0    0  501 -0.00000000000E+00  0.00000000000E+00  0.10364567740E+04  0.10364567740E+04  0.25500000000E-02 0.  1.
          2   -1    0    0  501    0  0.00000000000E+00 -0.00000000000E+00 -0.36330184196E+04  0.36330184196E+04  0.25500000000E-02 0. -1.
    8880023    1    1    2    0    0  0.38096729366E+03  0.14129499513E+04 -0.27563054970E+04  0.31894503983E+04  0.65864270000E+03 0.  0.
    8880022    1    1    2    0    0 -0.38096729366E+03 -0.14129499513E+04  0.15974385146E+03  0.14800247953E+04  0.15294330000E+03 0.  0.
<mgrwt>
<rscale>  0 0.15703491E+04</rscale>
<asrwt>0</asrwt>
<pdfrwt beam="1">  1        2 0.55892590E+00 0.16047971E+04</pdfrwt>
<pdfrwt beam="2">  1       -2 0.15945489E+00 0.16047971E+04</pdfrwt>
<totfact> 0.15636390E-01</totfact>
</mgrwt>
</event>
<event>
 4    1  0.2665544E-007  0.1911767E+04  0.7818608E-02  0.8663107E-01
         -2   -1    0    0    0  501 -0.00000000000E+00  0.00000000000E+00  0.17292022430E+04  0.17292022430E+04  0.25500000000E-02 0.  1.
          2   -1    0    0  501    0  0.00000000000E+00 -0.00000000000E+00 -0.32722662060E+04  0.32722662060E+04  0.25500000000E-02 0. -1.
    8880023    1    1    2    0    0  0.11116202557E+04 -0.14090227277E+04 -0.23485902616E+04  0.30283214927E+04  0.65864270000E+03 0.  0.
    8880022    1    1    2    0    0 -0.11116202557E+04  0.14090227277E+04  0.80552629860E+03  0.19731469562E+04  0.15294330000E+03 0.  0.
<mgrwt>
<rscale>  0 0.18835134E+04</rscale>
<asrwt>0</asrwt>
<pdfrwt beam="1">  1        2 0.50342557E+00 0.19117675E+04</pdfrwt>
<pdfrwt beam="2">  1       -2 0.26603111E+00 0.19117675E+04</pdfrwt>
<totfact> 0.53321892E-02</totfact>
</mgrwt>
</event>
<event>
 4    1  0.2665544E-007  0.7096519E+03  0.7818608E-02  0.9959296E-01
          2   -1    0    0  501    0  0.00000000000E+00  0.00000000000E+00  0.76351883640E+03  0.76351883640E+03  0.25500000000E-02 0. -1.
         -2   -1    0    0    0  501 -0.00000000000E+00 -0.00000000000E+00 -0.19423866670E+04  0.19423866670E+04  0.25500000000E-02 0.  1.
    8880023    1    1    2    0    0  0.24221567826E+03  0.10548554327E+03  0.58260979347E+03  0.91817210388E+03  0.65864270000E+03 0. -1.
    8880022    1    1    2    0    0 -0.24221567826E+03 -0.10548554327E+03 -0.17614776240E+04  0.17877333995E+04  0.15294330000E+03 0.  0.
<mgrwt>
<rscale>  0 0.57471644E+03</rscale>
<asrwt>0</asrwt>
<pdfrwt beam="1">  1        2 0.11746444E+00 0.70965192E+03</pdfrwt>
<pdfrwt beam="2">  1       -2 0.29882872E+00 0.70965192E+03</pdfrwt>
<totfact> 0.12443150E+00</totfact>
</mgrwt>
</event>
<event>
 4    1  0.2665544E-007  0.7816643E+03  0.7818608E-02  0.9751942E-01
         -2   -1    0    0    0  501 -0.00000000000E+00  0.00000000000E+00  0.16597611973E+03  0.16597611975E+03  0.25500000000E-02 0.  1.
          2   -1    0    0  501    0  0.00000000000E+00 -0.00000000000E+00 -0.26686960409E+04  0.26686960409E+04  0.25500000000E-02 0. -1.
    8880023    1    1    2    0    0 -0.37965693956E+03  0.18179511504E+03 -0.20668518467E+04  0.22097229731E+04  0.65864270000E+03 0. -1.
    8880022    1    1    2    0    0  0.37965693956E+03 -0.18179511504E+03 -0.43586807448E+03  0.62494918751E+03  0.15294330000E+03 0.  0.
<mgrwt>
<rscale>  0 0.68006636E+03</rscale>
<asrwt>0</asrwt>
<pdfrwt beam="1">  1        2 0.41056859E+00 0.78166429E+03</pdfrwt>
<pdfrwt beam="2">  1       -2 0.25534790E-01 0.78166429E+03</pdfrwt>
<totfact> 0.39827717E+01</totfact>
</mgrwt>
</event>
<event>
 4    1  0.2665544E-007  0.9406899E+03  0.7818608E-02  0.9463638E-01
         -2   -1    0    0    0  501 -0.00000000000E+00  0.00000000000E+00  0.70639485519E+03  0.70639485520E+03  0.25500000000E-02 0.  1.
          2   -1    0    0  501    0  0.00000000000E+00 -0.00000000000E+00 -0.18799005016E+04  0.18799005016E+04  0.25500000000E-02 0. -1.
    8880023    1    1    2    0    0  0.36538298343E+03 -0.56354457154E+03 -0.15411060634E+04  0.18055207873E+04  0.65864270000E+03 0. -1.
    8880022    1    1    2    0    0 -0.36538298343E+03  0.56354457154E+03  0.36760041699E+03  0.78077456943E+03  0.15294330000E+03 0.  0.
<mgrwt>
<rscale>  0 0.87018573E+03</rscale>
<asrwt>0</asrwt>
<pdfrwt beam="1">  1        2 0.28921546E+00 0.94068986E+03</pdfrwt>
<pdfrwt beam="2">  1       -2 0.10867613E+00 0.94068986E+03</pdfrwt>
<totfact> 0.53008279E+00</totfact>
</mgrwt>
</event>
<event>
 4    1  0.2665544E-007  0.1080960E+04  0.7818608E-02  0.9282556E-01
         -2   -1    0    0    0  501 -0.00000000000E+00  0.00000000000E+00  0.56018749747E+03  0.56018749748E+03  0.25500000000E-02 0.  1.
          2   -1    0    0  501    0  0.00000000000E+00 -0.00000000000E+00 -0.20898767108E+04  0.20898767108E+04  0.25500000000E-02 0. -1.
    8880023    1    1    2    0    0  0.33156049662E+03  0.79040052326E+03 -0.14016178145E+04  0.17700305235E+04  0.65864270000E+03 0.  0.
    8880022    1    1    2    0    0 -0.33156049662E+03 -0.79040052326E+03 -0.12807139886E+03  0.88003368476E+03  0.15294330000E+03 0.  0.
<mgrwt>
<rscale>  0 0.10240475E+04</rscale>
<asrwt>0</asrwt>
<pdfrwt beam="1">  1        2 0.32151949E+00 0.10809605E+04</pdfrwt>
<pdfrwt beam="2">  1       -2 0.86182693E-01 0.10809605E+04</pdfrwt>
<totfact> 0.69058768E+00</totfact>
</mgrwt>
</event>
<event>
 4    1  0.2665544E-007  0.1001756E+04  0.7818608E-02  0.9379264E-01
         -2   -1    0    0    0  501 -0.00000000000E+00  0.00000000000E+00  0.83697760287E+03  0.83697760288E+03  0.25500000000E-02 0.  1.
          2   -1    0    0  501    0  0.00000000000E+00 -0.00000000000E+00 -0.22211167025E+04  0.22211167025E+04  0.25500000000E-02 0. -1.
    8880023    1    1    2    0    0  0.11247545499E+03  0.74636079611E+03 -0.18883363105E+04  0.21375989787E+04  0.65864270000E+03 0.  0.
    8880022    1    1    2    0    0 -0.11247545499E+03 -0.74636079611E+03  0.50419721088E+03  0.92049532667E+03  0.15294330000E+03 0.  0.
<mgrwt>
<rscale>  0 0.93802024E+03</rscale>
<asrwt>0</asrwt>
<pdfrwt beam="1">  1        2 0.34171026E+00 0.10017561E+04</pdfrwt>
<pdfrwt beam="2">  1       -2 0.12876579E+00 0.10017561E+04</pdfrwt>
<totfact> 0.22387473E+00</totfact>
</mgrwt>
</event>
<event>
 4    1  0.2665544E-007  0.1790170E+04  0.7818608E-02  0.8727993E-01
         -2   -1    0    0    0  501 -0.00000000000E+00  0.00000000000E+00  0.30217889107E+04  0.30217889107E+04  0.25500000000E-02 0.  1.
          2   -1    0    0  501    0  0.00000000000E+00 -0.00000000000E+00 -0.19104156276E+04  0.19104156276E+04  0.25500000000E-02 0. -1.
    8880023    1    1    2    0    0  0.13647459311E+04  0.95308355981E+03  0.22754284943E+04  0.28952175682E+04  0.65864270000E+03 0.  0.
    8880022    1    1    2    0    0 -0.13647459311E+04 -0.95308355981E+03 -0.11640552111E+04  0.20369869700E+04  0.15294330000E+03 0.  0.
<mgrwt>
<rscale>  0 0.17597652E+04</rscale>
<asrwt>0</asrwt>
<pdfrwt beam="1">  1        2 0.29391010E+00 0.17901704E+04</pdfrwt>
<pdfrwt beam="2">  1       -2 0.46489060E+00 0.17901704E+04</pdfrwt>
<totfact> 0.18727254E-02</totfact>
</mgrwt>
</event>
<event>
 4    1  0.2665544E-007  0.8148654E+03  0.7818608E-02  0.9679530E-01
         -2   -1    0    0    0  501 -0.00000000000E+00  0.00000000000E+00  0.19308249173E+04  0.19308249173E+04  0.25500000000E-02 0.  1.
          2   -1    0    0  501    0  0.00000000000E+00 -0.00000000000E+00 -0.78322427061E+03  0.78322427062E+03  0.25500000000E-02 0. -1.
    8880023    1    1    2    0    0  0.37195294717E+03 -0.30306178729E+03 -0.52362605422E+03  0.96860203012E+03  0.65864270000E+03 0. -1.
    8880022    1    1    2    0    0 -0.37195294717E+03  0.30306178729E+03  0.16712267009E+04  0.17454471578E+04  0.15294330000E+03 0.  0.
<mgrwt>
<rscale>  0 0.72248745E+03</rscale>
<asrwt>0</asrwt>
<pdfrwt beam="1">  1        2 0.12049604E+00 0.81486542E+03</pdfrwt>
<pdfrwt beam="2">  1       -2 0.29704998E+00 0.81486542E+03</pdfrwt>
<totfact> 0.12111031E+00</totfact>
</mgrwt>
</event>
<event>
 4    1  0.2665544E-007  0.9159830E+03  0.7818608E-02  0.9500846E-01
         -2   -1    0    0    0  501 -0.00000000000E+00  0.00000000000E+00  0.16892581274E+04  0.16892581274E+04  0.25500000000E-02 0.  1.
          2   -1    0    0  501    0  0.00000000000E+00 -0.00000000000E+00 -0.41122078692E+03  0.41122078693E+03  0.25500000000E-02 0. -1.
    8880023    1    1    2    0    0 -0.55040811006E+03  0.31979001296E+03  0.38602667443E+03  0.99400278654E+03  0.65864270000E+03 0.  0.
    8880022    1    1    2    0    0  0.55040811006E+03 -0.31979001296E+03  0.89201066602E+03  0.11064761278E+04  0.15294330000E+03 0.  0.
<mgrwt>
<rscale>  0 0.84221488E+03</rscale>
<asrwt>0</asrwt>
<pdfrwt beam="1">  1        2 0.63264737E-01 0.91598305E+03</pdfrwt>
<pdfrwt beam="2">  1       -2 0.25988587E+00 0.91598305E+03</pdfrwt>
<totfact> 0.43537937E+00</totfact>
</mgrwt>
</event>
<event>
 4    1  0.2665544E-007  0.9970103E+03  0.7818608E-02  0.9385480E-01
         -2   -1    0    0    0  501 -0.00000000000E+00  0.00000000000E+00  0.18727403734E+04  0.18727403734E+04  0.25500000000E-02 0.  1.
          2   -1    0    0  501    0  0.00000000000E+00 -0.00000000000E+00 -0.99030354272E+03  0.99030354272E+03  0.25500000000E-02 0. -1.
    8880023    1    1    2    0    0  0.71883982370E+03 -0.20853917745E+03 -0.62244547776E+03  0.11753586090E+04  0.65864270000E+03 0.  0.
    8880022    1    1    2    0    0 -0.71883982370E+03  0.20853917745E+03  0.15048823085E+04  0.16876853072E+04  0.15294330000E+03 0.  0.
<mgrwt>
<rscale>  0 0.93280347E+03</rscale>
<asrwt>0</asrwt>
<pdfrwt beam="1">  1        2 0.15235439E+00 0.99701027E+03</pdfrwt>
<pdfrwt beam="2">  1       -2 0.28811390E+00 0.99701027E+03</pdfrwt>
<totfact> 0.96256582E-01</totfact>
</mgrwt>
</event>
<event>
 4    1  0.2665544E-007  0.1187912E+04  0.7818608E-02  0.9168963E-01
          2   -1    0    0  501    0  0.00000000000E+00  0.00000000000E+00  0.12656742717E+04  0.12656742717E+04  0.25500000000E-02 0. -1.
         -2   -1    0    0    0  501 -0.00000000000E+00 -0.00000000000E+00 -0.26203881264E+04  0.26203881264E+04  0.25500000000E-02 0.  1.
    8880023    1    1    2    0    0  0.97220275826E+03  0.17929637817E+03  0.85289024047E+03  0.14623807175E+04  0.65864270000E+03 0. -1.
    8880022    1    1    2    0    0 -0.97220275826E+03 -0.17929637817E+03 -0.22076040952E+04  0.24236816805E+04  0.15294330000E+03 0.  0.
<mgrwt>
<rscale>  0 0.11379605E+04</rscale>
<asrwt>0</asrwt>
<pdfrwt beam="1">  1        2 0.19471912E+00 0.11879123E+04</pdfrwt>
<pdfrwt beam="2">  1       -2 0.40313663E+00 0.11879123E+04</pdfrwt>
<totfact> 0.12086150E-01</totfact>
</mgrwt>
</event>
<event>
 4    1  0.2665544E-007  0.1645647E+04  0.7818608E-02  0.8813097E-01
         -2   -1    0    0    0  501 -0.00000000000E+00  0.00000000000E+00  0.21182273344E+04  0.21182273344E+04  0.25500000000E-02 0.  1.
          2   -1    0    0  501    0  0.00000000000E+00 -0.00000000000E+00 -0.13479120609E+04  0.13479120609E+04  0.25500000000E-02 0. -1.
    8880023    1    1    2    0    0 -0.10170805355E+04 -0.11135042902E+04 -0.21289881077E+03  0.16593615428E+04  0.65864270000E+03 0.  0.
    8880022    1    1    2    0    0  0.10170805355E+04  0.11135042902E+04  0.98321408425E+03  0.18067778525E+04  0.15294330000E+03 0.  0.
<mgrwt>
<rscale>  0 0.16121858E+04</rscale>
<asrwt>0</asrwt>
<pdfrwt beam="1">  1        2 0.20737109E+00 0.16456472E+04</pdfrwt>
<pdfrwt beam="2">  1       -2 0.32588113E+00 0.16456472E+04</pdfrwt>
<totfact> 0.31722821E-01</totfact>
</mgrwt>
</event>
<event>
 4    1  0.2665544E-007  0.7812581E+03  0.7818608E-02  0.9752890E-01
          2   -1    0    0  501    0  0.00000000000E+00  0.00000000000E+00  0.41497533324E+03  0.41497533325E+03  0.25500000000E-02 0. -1.
         -2   -1    0    0    0  501 -0.00000000000E+00 -0.00000000000E+00 -0.11267550293E+04  0.11267550293E+04  0.25500000000E-02 0.  1.
    8880023    1    1    2    0    0 -0.41669433079E+03 -0.54035736922E+02 -0.10543827459E+03  0.78834095555E+03  0.65864270000E+03 0.  0.
    8880022    1    1    2    0    0  0.41669433079E+03  0.54035736922E+02 -0.60634142145E+03  0.75338940699E+03  0.15294330000E+03 0.  0.
<mgrwt>
<rscale>  0 0.67953199E+03</rscale>
<asrwt>0</asrwt>
<pdfrwt beam="1">  1        2 0.63842360E-01 0.78125811E+03</pdfrwt>
<pdfrwt beam="2">  1       -2 0.17334693E+00 0.78125811E+03</pdfrwt>
<totfact> 0.15583554E+01</totfact>
</mgrwt>
</event>
<event>
 4    1  0.2665544E-007  0.8933837E+03  0.7818608E-02  0.9536738E-01
          2   -1    0    0  501    0  0.00000000000E+00  0.00000000000E+00  0.19124592226E+04  0.19124592226E+04  0.25500000000E-02 0. -1.
         -2   -1    0    0    0  501 -0.00000000000E+00 -0.00000000000E+00 -0.45451800780E+03  0.45451800780E+03  0.25500000000E-02 0.  1.
    8880023    1    1    2    0    0 -0.41427360350E+03 -0.43897785131E+03  0.14967515721E+04  0.17431005844E+04  0.65864270000E+03 0.  0.
    8880022    1    1    2    0    0  0.41427360350E+03  0.43897785131E+03 -0.38810357359E+02  0.62387664594E+03  0.15294330000E+03 0.  0.
<mgrwt>
<rscale>  0 0.81628666E+03</rscale>
<asrwt>0</asrwt>
<pdfrwt beam="1">  1        2 0.29422450E+00 0.89338367E+03</pdfrwt>
<pdfrwt beam="2">  1       -2 0.69925847E-01 0.89338367E+03</pdfrwt>
<totfact> 0.14117213E+01</totfact>
</mgrwt>
</event>
<event>
 4    1  0.2665544E-007  0.9495685E+03  0.7818608E-02  0.9450735E-01
         -2   -1    0    0    0  501 -0.00000000000E+00  0.00000000000E+00  0.12231328479E+04  0.12231328479E+04  0.25500000000E-02 0.  1.
          2   -1    0    0  501    0  0.00000000000E+00 -0.00000000000E+00 -0.88267559607E+03  0.88267559607E+03  0.25500000000E-02 0. -1.
    8880023    1    1    2    0    0  0.59463003144E+03 -0.33806100543E+03  0.82158816189E+03  0.12556621487E+04  0.65864270000E+03 0.  0.
    8880022    1    1    2    0    0 -0.59463003144E+03  0.33806100543E+03 -0.48113091007E+03  0.85014629525E+03  0.15294330000E+03 0.  0.
<mgrwt>
<rscale>  0 0.88015436E+03</rscale>
<asrwt>0</asrwt>
<pdfrwt beam="1">  1        2 0.13579625E+00 0.94956849E+03</pdfrwt>
<pdfrwt beam="2">  1       -2 0.18817428E+00 0.94956849E+03</pdfrwt>
<totfact> 0.47900981E+00</totfact>
</mgrwt>
</event>
<event>
 4    1  0.2665544E-007  0.1146551E+04  0.7818608E-02  0.9210915E-01
         -2   -1    0    0    0  501 -0.00000000000E+00  0.00000000000E+00  0.89281923440E+03  0.89281923441E+03  0.25500000000E-02 0.  1.
          2   -1    0    0  501    0  0.00000000000E+00 -0.00000000000E+00 -0.20502903201E+04  0.20502903201E+04  0.25500000000E-02 0. -1.
    8880023    1    1    2    0    0 -0.75859331312E+03 -0.55254426851E+03 -0.15384959446E+04  0.19187362928E+04  0.65864270000E+03 0.  0.
    8880022    1    1    2    0    0  0.75859331312E+03  0.55254426851E+03  0.38102485886E+03  0.10243732618E+04  0.15294330000E+03 0.  0.
<mgrwt>
<rscale>  0 0.10941471E+04</rscale>
<asrwt>0</asrwt>
<pdfrwt beam="1">  1        2 0.31542928E+00 0.11465510E+04</pdfrwt>
<pdfrwt beam="2">  1       -2 0.13735681E+00 0.11465510E+04</pdfrwt>
<totfact> 0.23180832E+00</totfact>
</mgrwt>
</event>
<event>
 4    1  0.2665544E-007  0.7173535E+03  0.7818608E-02  0.9931645E-01
         -2   -1    0    0    0  501 -0.00000000000E+00  0.00000000000E+00  0.25210818797E+03  0.25210818799E+03  0.25500000000E-02 0.  1.
          2   -1    0    0  501    0  0.00000000000E+00 -0.00000000000E+00 -0.10728059175E+04  0.10728059175E+04  0.25500000000E-02 0. -1.
    8880023    1    1    2    0    0 -0.27968384675E+03 -0.50624335958E+02 -0.56468380608E+03  0.91294243226E+03  0.65864270000E+03 0.  0.
    8880022    1    1    2    0    0  0.27968384675E+03  0.50624335958E+02 -0.25601392344E+03  0.41197167322E+03  0.15294330000E+03 0. -1.
<mgrwt>
<rscale>  0 0.58751869E+03</rscale>
<asrwt>0</asrwt>
<pdfrwt beam="1">  1        2 0.16504706E+00 0.71735353E+03</pdfrwt>
<pdfrwt beam="2">  1       -2 0.38785876E-01 0.71735353E+03</pdfrwt>
<totfact> 0.14435615E+02</totfact>
</mgrwt>
</event>
<event>
 4    1  0.2665544E-007  0.1598678E+04  0.7818608E-02  0.8842926E-01
         -2   -1    0    0    0  501 -0.00000000000E+00  0.00000000000E+00  0.83593485648E+03  0.83593485648E+03  0.25500000000E-02 0.  1.
          2   -1    0    0  501    0  0.00000000000E+00 -0.00000000000E+00 -0.30316096120E+04  0.30316096120E+04  0.25500000000E-02 0. -1.
    8880023    1    1    2    0    0 -0.17670906230E+03  0.14459376042E+04 -0.61584095628E+03  0.17131934910E+04  0.65864270000E+03 0.  0.
    8880022    1    1    2    0    0  0.17670906230E+03 -0.14459376042E+04 -0.15798337992E+04  0.21543509775E+04  0.15294330000E+03 0.  0.
<mgrwt>
<rscale>  0 0.15640770E+04</rscale>
<asrwt>0</asrwt>
<pdfrwt beam="1">  1        2 0.46640147E+00 0.15986782E+04</pdfrwt>
<pdfrwt beam="2">  1       -2 0.12860536E+00 0.15986782E+04</pdfrwt>
<totfact> 0.69888477E-01</totfact>
</mgrwt>
</event>
<event>
 4    1  0.2665544E-007  0.6611395E+03  0.7818608E-02  0.1023018E+00
          2   -1    0    0  501    0  0.00000000000E+00  0.00000000000E+00  0.89372072869E+03  0.89372072869E+03  0.25500000000E-02 0. -1.
         -2   -1    0    0    0  501 -0.00000000000E+00 -0.00000000000E+00 -0.38648961854E+03  0.38648961855E+03  0.25500000000E-02 0.  1.
    8880023    1    1    2    0    0  0.44816201711E+02  0.35870784216E+02  0.74224369116E+03  0.99399753945E+03  0.65864270000E+03 0. -1.
    8880022    1    1    2    0    0 -0.44816201711E+02 -0.35870784216E+02 -0.23501258101E+03  0.28621280779E+03  0.15294330000E+03 0.  0.
<mgrwt>
<rscale>  0 0.46612994E+03</rscale>
<asrwt>0</asrwt>
<pdfrwt beam="1">  1        2 0.13749550E+00 0.66113948E+03</pdfrwt>
<pdfrwt beam="2">  1       -2 0.59459941E-01 0.66113948E+03</pdfrwt>
<totfact> 0.79785161E+01</totfact>
</mgrwt>
</event>
<event>
 4    1  0.2665544E-007  0.7833735E+03  0.7818608E-02  0.9747971E-01
         -2   -1    0    0    0  501 -0.00000000000E+00  0.00000000000E+00  0.17495696211E+04  0.17495696211E+04  0.25500000000E-02 0.  1.
          2   -1    0    0  501    0  0.00000000000E+00 -0.00000000000E+00 -0.55993030091E+03  0.55993030092E+03  0.25500000000E-02 0. -1.
    8880023    1    1    2    0    0  0.28021758355E+03  0.31834250985E+03 -0.23287339990E+03  0.81725398400E+03  0.65864270000E+03 0. -1.
    8880022    1    1    2    0    0 -0.28021758355E+03 -0.31834250985E+03  0.14225127200E+04  0.14922459380E+04  0.15294330000E+03 0.  0.
<mgrwt>
<rscale>  0 0.68231033E+03</rscale>
<asrwt>0</asrwt>
<pdfrwt beam="1">  1        2 0.86143124E-01 0.78337351E+03</pdfrwt>
<pdfrwt beam="2">  1       -2 0.26916455E+00 0.78337351E+03</pdfrwt>
<totfact> 0.27200887E+00</totfact>
</mgrwt>
</event>
<event>
 4    1  0.2665544E-007  0.7474107E+03  0.7818608E-02  0.9838863E-01
          2   -1    0    0  501    0  0.00000000000E+00  0.00000000000E+00  0.22570682988E+04  0.22570682988E+04  0.25500000000E-02 0. -1.
         -2   -1    0    0    0  501 -0.00000000000E+00 -0.00000000000E+00 -0.15365843987E+03  0.15365843989E+03  0.25500000000E-02 0.  1.
    8880023    1    1    2    0    0  0.20101094192E+03 -0.29052904295E+03  0.10473585685E+04  0.12866944862E+04  0.65864270000E+03 0.  0.
    8880022    1    1    2    0    0 -0.20101094192E+03  0.29052904295E+03  0.10560512905E+04  0.11240322525E+04  0.15294330000E+03 0.  0.
<mgrwt>
<rscale>  0 0.63317977E+03</rscale>
<asrwt>0</asrwt>
<pdfrwt beam="1">  1        2 0.34724122E+00 0.74741068E+03</pdfrwt>
<pdfrwt beam="2">  1       -2 0.23639764E-01 0.74741068E+03</pdfrwt>
<totfact> 0.78551262E+01</totfact>
</mgrwt>
</event>
<event>
 4    1  0.3284085E-007  0.1121388E+04  0.7818608E-02  0.9237608E-01
         -2   -1    0    0    0  501 -0.00000000000E+00  0.00000000000E+00  0.20649344156E+04  0.20649344156E+04  0.25500000000E-02 0.  1.
          2   -1    0    0  501    0  0.00000000000E+00 -0.00000000000E+00 -0.41328155451E+04  0.41328155451E+04  0.25500000000E-02 0. -1.
    8880023    1    1    2    0    0  0.34683556451E+03  0.83869356660E+03 -0.39481456411E+04  0.41043106628E+04  0.65864270000E+03 0. -1.
    8880022    1    1    2    0    0 -0.34683556451E+03 -0.83869356660E+03  0.18802645116E+04  0.20934392979E+04  0.15294330000E+03 0.  0.
<mgrwt>
<rscale>  0 0.10673540E+04</rscale>
<asrwt>0</asrwt>
<pdfrwt beam="1">  1        2 0.63581778E+00 0.11213884E+04</pdfrwt>
<pdfrwt beam="2">  1       -2 0.31768222E+00 0.11213884E+04</pdfrwt>
<totfact> 0.68100832E-03</totfact>
</mgrwt>
</event>
<event>
 4    1  0.2665544E-007  0.7535729E+03  0.7818608E-02  0.9822040E-01
          2   -1    0    0  501    0  0.00000000000E+00  0.00000000000E+00  0.12837763496E+04  0.12837763496E+04  0.25500000000E-02 0. -1.
         -2   -1    0    0    0  501 -0.00000000000E+00 -0.00000000000E+00 -0.37588763098E+03  0.37588763099E+03  0.25500000000E-02 0.  1.
    8880023    1    1    2    0    0  0.33574389333E+03 -0.14607522652E+03  0.10001580502E+04  0.12522732391E+04  0.65864270000E+03 0. -1.
    8880022    1    1    2    0    0 -0.33574389333E+03  0.14607522652E+03 -0.92269331565E+02  0.40739074152E+03  0.15294330000E+03 0.  0.
<mgrwt>
<rscale>  0 0.64193053E+03</rscale>
<asrwt>0</asrwt>
<pdfrwt beam="1">  1        2 0.19750405E+00 0.75357292E+03</pdfrwt>
<pdfrwt beam="2">  1       -2 0.57828867E-01 0.75357292E+03</pdfrwt>
<totfact> 0.48174335E+01</totfact>
</mgrwt>
</event>
<event>
 4    1  0.2665544E-007  0.8360455E+03  0.7818608E-02  0.9637682E-01
          2   -1    0    0  501    0  0.00000000000E+00  0.00000000000E+00  0.11634280575E+04  0.11634280575E+04  0.25500000000E-02 0. -1.
         -2   -1    0    0    0  501 -0.00000000000E+00 -0.00000000000E+00 -0.10246689248E+04  0.10246689248E+04  0.25500000000E-02 0.  1.
    8880023    1    1    2    0    0 -0.49185061297E+03 -0.15246276586E+03  0.91799692944E+03  0.12416482953E+04  0.65864270000E+03 0. -1.
    8880022    1    1    2    0    0  0.49185061297E+03  0.15246276586E+03 -0.77923779672E+03  0.94644868709E+03  0.15294330000E+03 0.  0.
<mgrwt>
<rscale>  0 0.74851542E+03</rscale>
<asrwt>0</asrwt>
<pdfrwt beam="1">  1        2 0.17898893E+00 0.83604553E+03</pdfrwt>
<pdfrwt beam="2">  1       -2 0.15764137E+00 0.83604553E+03</pdfrwt>
<totfact> 0.52770753E+00</totfact>
</mgrwt>
</event>
<event>
 4    1  0.2665544E-007  0.8464953E+03  0.7818608E-02  0.9618052E-01
          2   -1    0    0  501    0  0.00000000000E+00  0.00000000000E+00  0.35089311744E+04  0.35089311744E+04  0.25500000000E-02 0. -1.
         -2   -1    0    0    0  501 -0.00000000000E+00 -0.00000000000E+00 -0.51994132510E+03  0.51994132511E+03  0.25500000000E-02 0.  1.
    8880023    1    1    2    0    0  0.47915398759E+03  0.23055482367E+03  0.32912738231E+04  0.33983875081E+04  0.65864270000E+03 0. -1.
    8880022    1    1    2    0    0 -0.47915398759E+03 -0.23055482367E+03 -0.30228397379E+03  0.63048499139E+03  0.15294330000E+03 0.  0.
<mgrwt>
<rscale>  0 0.76112793E+03</rscale>
<asrwt>0</asrwt>
<pdfrwt beam="1">  1        2 0.53983558E+00 0.84649529E+03</pdfrwt>
<pdfrwt beam="2">  1       -2 0.79990971E-01 0.84649529E+03</pdfrwt>
<totfact> 0.11808636E+00</totfact>
</mgrwt>
</event>
<event>
 4    1  0.2665544E-007  0.1085294E+04  0.7818608E-02  0.9277609E-01
         -2   -1    0    0    0  501 -0.00000000000E+00  0.00000000000E+00  0.91795103224E+03  0.91795103224E+03  0.25500000000E-02 0.  1.
          2   -1    0    0  501    0  0.00000000000E+00 -0.00000000000E+00 -0.16842013205E+04  0.16842013205E+04  0.25500000000E-02 0. -1.
    8880023    1    1    2    0    0  0.16871207925E+03 -0.84592448778E+03 -0.12055808038E+04  0.16221243126E+04  0.65864270000E+03 0. -1.
    8880022    1    1    2    0    0 -0.16871207925E+03  0.84592448778E+03  0.43933051550E+03  0.98002804020E+03  0.15294330000E+03 0.  0.
<mgrwt>
<rscale>  0 0.10287059E+04</rscale>
<asrwt>0</asrwt>
<pdfrwt beam="1">  1        2 0.25910790E+00 0.10852936E+04</pdfrwt>
<pdfrwt beam="2">  1       -2 0.14122324E+00 0.10852936E+04</pdfrwt>
<totfact> 0.34598928E+00</totfact>
</mgrwt>
</event>
<event>
 4    1  0.2665544E-007  0.7151514E+03  0.7818608E-02  0.9939347E-01
         -2   -1    0    0    0  501 -0.00000000000E+00  0.00000000000E+00  0.12892103530E+03  0.12892103533E+03  0.25500000000E-02 0.  1.
          2   -1    0    0  501    0  0.00000000000E+00 -0.00000000000E+00 -0.24118760762E+04  0.24118760762E+04  0.25500000000E-02 0. -1.
    8880023    1    1    2    0    0  0.19858352609E+03 -0.19543788626E+03 -0.19655544063E+04  0.20916131847E+04  0.65864270000E+03 0. -1.
    8880022    1    1    2    0    0 -0.19858352609E+03  0.19543788626E+03 -0.31740063460E+03  0.44918392679E+03  0.15294330000E+03 0.  0.
<mgrwt>
<rscale>  0 0.58391693E+03</rscale>
<asrwt>0</asrwt>
<pdfrwt beam="1">  1        2 0.37105782E+00 0.71515145E+03</pdfrwt>
<pdfrwt beam="2">  1       -2 0.19834007E-01 0.71515145E+03</pdfrwt>
<totfact> 0.88187024E+01</totfact>
</mgrwt>
</event>
<event>
 4    1  0.2665544E-007  0.7647863E+03  0.7818608E-02  0.9792870E-01
          2   -1    0    0  501    0  0.00000000000E+00  0.00000000000E+00  0.11883506991E+04  0.11883506991E+04  0.25500000000E-02 0. -1.
         -2   -1    0    0    0  501 -0.00000000000E+00 -0.00000000000E+00 -0.12512663268E+04  0.12512663268E+04  0.25500000000E-02 0.  1.
    8880023    1    1    2    0    0  0.14170164915E+03  0.36195093539E+03  0.10223431484E+04  0.12767472562E+04  0.65864270000E+03 0.  0.
    8880022    1    1    2    0    0 -0.14170164915E+03 -0.36195093539E+03 -0.10852587761E+04  0.11628697696E+04  0.15294330000E+03 0.  0.
<mgrwt>
<rscale>  0 0.65746572E+03</rscale>
<asrwt>0</asrwt>
<pdfrwt beam="1">  1        2 0.18282319E+00 0.76478627E+03</pdfrwt>
<pdfrwt beam="2">  1       -2 0.19250251E+00 0.76478627E+03</pdfrwt>
<totfact> 0.29376088E+00</totfact>
</mgrwt>
</event>
<event>
 4    1  0.2665544E-007  0.1108830E+04  0.7818608E-02  0.9251288E-01
          2   -1    0    0  501    0  0.00000000000E+00  0.00000000000E+00  0.19947233293E+04  0.19947233293E+04  0.25500000000E-02 0. -1.
         -2   -1    0    0    0  501 -0.00000000000E+00 -0.00000000000E+00 -0.70938722712E+03  0.70938722712E+03  0.25500000000E-02 0.  1.
    8880023    1    1    2    0    0  0.27362729227E+03  0.84901290615E+03  0.14064820757E+04  0.17910044236E+04  0.65864270000E+03 0.  0.
    8880022    1    1    2    0    0 -0.27362729227E+03 -0.84901290615E+03 -0.12114597351E+03  0.91310613282E+03  0.15294330000E+03 0.  0.
<mgrwt>
<rscale>  0 0.10539380E+04</rscale>
<asrwt>0</asrwt>
<pdfrwt beam="1">  1        2 0.30688051E+00 0.11088305E+04</pdfrwt>
<pdfrwt beam="2">  1       -2 0.10913650E+00 0.11088305E+04</pdfrwt>
<totfact> 0.44467803E+00</totfact>
</mgrwt>
</event>
<event>
 4    1  0.2665544E-007  0.9527373E+03  0.7818608E-02  0.9446187E-01
          2   -1    0    0  501    0  0.00000000000E+00  0.00000000000E+00  0.16416539629E+04  0.16416539629E+04  0.25500000000E-02 0. -1.
         -2   -1    0    0    0  501 -0.00000000000E+00 -0.00000000000E+00 -0.48000372654E+03  0.48000372655E+03  0.25500000000E-02 0.  1.
    8880023    1    1    2    0    0  0.13344373042E+03  0.67534497896E+03  0.10322001430E+04  0.14046869442E+04  0.65864270000E+03 0. -1.
    8880022    1    1    2    0    0 -0.13344373042E+03 -0.67534497896E+03  0.12945009333E+03  0.71697074520E+03  0.15294330000E+03 0.  0.
<mgrwt>
<rscale>  0 0.88370242E+03</rscale>
<asrwt>0</asrwt>
<pdfrwt beam="1">  1        2 0.25256215E+00 0.95273725E+03</pdfrwt>
<pdfrwt beam="2">  1       -2 0.73846727E-01 0.95273725E+03</pdfrwt>
<totfact> 0.17526148E+01</totfact>
</mgrwt>
</event>
<event>
 4    1  0.2665544E-007  0.1315691E+04  0.7818608E-02  0.9052127E-01
         -2   -1    0    0    0  501 -0.00000000000E+00  0.00000000000E+00  0.46244392572E+03  0.46244392573E+03  0.25500000000E-02 0.  1.
          2   -1    0    0  501    0  0.00000000000E+00 -0.00000000000E+00 -0.35782069445E+04  0.35782069445E+04  0.25500000000E-02 0. -1.
    8880023    1    1    2    0    0  0.14310491492E+03 -0.11299356282E+04 -0.10768854062E+04  0.17002134939E+04  0.65864270000E+03 0.  0.
    8880022    1    1    2    0    0 -0.14310491492E+03  0.11299356282E+04 -0.20388776126E+04  0.23404373763E+04  0.15294330000E+03 0.  0.
<mgrwt>
<rscale>  0 0.12719293E+04</rscale>
<asrwt>0</asrwt>
<pdfrwt beam="1">  1        2 0.55049336E+00 0.13156914E+04</pdfrwt>
<pdfrwt beam="2">  1       -2 0.71145222E-01 0.13156914E+04</pdfrwt>
<totfact> 0.12725657E+00</totfact>
</mgrwt>
</event>
<event>
 4    1  0.2665544E-007  0.6900743E+03  0.7818608E-02  0.1004117E+00
          2   -1    0    0  501    0  0.00000000000E+00  0.00000000000E+00  0.74509294731E+03  0.74509294731E+03  0.25500000000E-02 0. -1.
         -2   -1    0    0    0  501 -0.00000000000E+00 -0.00000000000E+00 -0.46078643076E+03  0.46078643076E+03  0.25500000000E-02 0.  1.
    8880023    1    1    2    0    0  0.16592082229E+03  0.12191215990E+03  0.51488063061E+03  0.86099045525E+03  0.65864270000E+03 0. -1.
    8880022    1    1    2    0    0 -0.16592082229E+03 -0.12191215990E+03 -0.23057411405E+03  0.34488892282E+03  0.15294330000E+03 0.  1.
<mgrwt>
<rscale>  0 0.53881151E+03</rscale>
<asrwt>0</asrwt>
<pdfrwt beam="1">  1        2 0.11462968E+00 0.69007427E+03</pdfrwt>
<pdfrwt beam="2">  1       -2 0.70890221E-01 0.69007427E+03</pdfrwt>
<totfact> 0.69569819E+01</totfact>
</mgrwt>
</event>
<event>
 4    1  0.2665544E-007  0.8572128E+03  0.7818608E-02  0.9598541E-01
          2   -1    0    0  501    0  0.00000000000E+00  0.00000000000E+00  0.12166572355E+04  0.12166572355E+04  0.25500000000E-02 0. -1.
         -2   -1    0    0    0  501 -0.00000000000E+00 -0.00000000000E+00 -0.48460947054E+03  0.48460947055E+03  0.25500000000E-02 0.  1.
    8880023    1    1    2    0    0 -0.48421969228E+02  0.54649689389E+03  0.73882462270E+03  0.11316693738E+04  0.65864270000E+03 0. -1.
    8880022    1    1    2    0    0  0.48421969228E+02 -0.54649689389E+03 -0.67768577298E+01  0.56959733229E+03  0.15294330000E+03 0.  0.
<mgrwt>
<rscale>  0 0.77392839E+03</rscale>
<asrwt>0</asrwt>
<pdfrwt beam="1">  1        2 0.18717803E+00 0.85721278E+03</pdfrwt>
<pdfrwt beam="2">  1       -2 0.74555304E-01 0.85721278E+03</pdfrwt>
<totfact> 0.30200738E+01</totfact>
</mgrwt>
</event>
<event>
 4    1  0.2665544E-007  0.6769076E+03  0.7818608E-02  0.1011130E+00
          2   -1    0    0  501    0  0.00000000000E+00  0.00000000000E+00  0.28814693329E+04  0.28814693329E+04  0.25500000000E-02 0. -1.
         -2   -1    0    0    0  501 -0.00000000000E+00 -0.00000000000E+00 -0.58750592215E+03  0.58750592215E+03  0.25500000000E-02 0.  1.
    8880023    1    1    2    0    0  0.82970854001E+02 -0.13232354289E+03  0.28195897552E+04  0.28997052051E+04  0.65864270000E+03 0. -1.
    8880022    1    1    2    0    0 -0.82970854001E+02  0.13232354289E+03 -0.52562634452E+03  0.56927004988E+03  0.15294330000E+03 0.  0.
<mgrwt>
<rscale>  0 0.51028038E+03</rscale>
<asrwt>0</asrwt>
<pdfrwt beam="1">  1        2 0.44330298E+00 0.67690759E+03</pdfrwt>
<pdfrwt beam="2">  1       -2 0.90385526E-01 0.67690759E+03</pdfrwt>
<totfact> 0.23311985E+00</totfact>
</mgrwt>
</event>
<event>
 4    1  0.2665544E-007  0.7849911E+03  0.7818608E-02  0.9744241E-01
         -2   -1    0    0    0  501 -0.00000000000E+00  0.00000000000E+00  0.14034537988E+04  0.14034537988E+04  0.25500000000E-02 0.  1.
          2   -1    0    0  501    0  0.00000000000E+00 -0.00000000000E+00 -0.16268544170E+04  0.16268544170E+04  0.25500000000E-02 0. -1.
    8880023    1    1    2    0    0 -0.17689617931E+03  0.38872678489E+03 -0.14904304233E+04  0.16845159021E+04  0.65864270000E+03 0. -1.
    8880022    1    1    2    0    0  0.17689617931E+03 -0.38872678489E+03  0.12670298051E+04  0.13457923137E+04  0.15294330000E+03 0.  0.
<mgrwt>
<rscale>  0 0.68442712E+03</rscale>
<asrwt>0</asrwt>
<pdfrwt beam="1">  1        2 0.25028530E+00 0.78499107E+03</pdfrwt>
<pdfrwt beam="2">  1       -2 0.21591597E+00 0.78499107E+03</pdfrwt>
<totfact> 0.11653451E+00</totfact>
</mgrwt>
</event>
<event>
 4    1  0.2665544E-007  0.9032874E+03  0.7818608E-02  0.9520775E-01
         -2   -1    0    0    0  501 -0.00000000000E+00  0.00000000000E+00  0.89884140596E+03  0.89884140596E+03  0.25500000000E-02 0.  1.
          2   -1    0    0  501    0  0.00000000000E+00 -0.00000000000E+00 -0.21579075127E+04  0.21579075127E+04  0.25500000000E-02 0. -1.
    8880023    1    1    2    0    0  0.61528245121E+03  0.59542905342E+02 -0.19304948267E+04  0.21313700604E+04  0.65864270000E+03 0. -1.
    8880022    1    1    2    0    0 -0.61528245121E+03 -0.59542905342E+02  0.67142871993E+03  0.92537885825E+03  0.15294330000E+03 0.  0.
<mgrwt>
<rscale>  0 0.82769357E+03</rscale>
<asrwt>0</asrwt>
<pdfrwt beam="1">  1        2 0.33198577E+00 0.90328736E+03</pdfrwt>
<pdfrwt beam="2">  1       -2 0.13828329E+00 0.90328736E+03</pdfrwt>
<totfact> 0.20517245E+00</totfact>
</mgrwt>
</event>
<event>
 4    1  0.2665544E-007  0.9257504E+03  0.7818608E-02  0.9485898E-01
         -2   -1    0    0    0  501 -0.00000000000E+00  0.00000000000E+00  0.39437116473E+03  0.39437116474E+03  0.25500000000E-02 0.  1.
          2   -1    0    0  501    0  0.00000000000E+00 -0.00000000000E+00 -0.16666842840E+04  0.16666842840E+04  0.25500000000E-02 0. -1.
    8880023    1    1    2    0    0  0.25520105383E+03  0.59839454215E+03 -0.92186143641E+03  0.13064617561E+04  0.65864270000E+03 0.  0.
    8880022    1    1    2    0    0 -0.25520105383E+03 -0.59839454215E+03 -0.35045168288E+03  0.75459369266E+03  0.15294330000E+03 0. -1.
<mgrwt>
<rscale>  0 0.85331562E+03</rscale>
<asrwt>0</asrwt>
<pdfrwt beam="1">  1        2 0.25641296E+00 0.92575040E+03</pdfrwt>
<pdfrwt beam="2">  1       -2 0.60672488E-01 0.92575040E+03</pdfrwt>
<totfact> 0.26068670E+01</totfact>
</mgrwt>
</event>
<event>
 4    1  0.2665544E-007  0.9917042E+03  0.7818608E-02  0.9392492E-01
         -2   -1    0    0    0  501 -0.00000000000E+00  0.00000000000E+00  0.60294238755E+03  0.60294238755E+03  0.25500000000E-02 0.  1.
          2   -1    0    0  501    0  0.00000000000E+00 -0.00000000000E+00 -0.16837372385E+04  0.16837372385E+04  0.25500000000E-02 0. -1.
    8880023    1    1    2    0    0 -0.48731031843E+03 -0.55874479391E+03 -0.11593161216E+04  0.15256117354E+04  0.65864270000E+03 0. -1.
    8880022    1    1    2    0    0  0.48731031843E+03  0.55874479391E+03  0.78521270664E+02  0.76106789062E+03  0.15294330000E+03 0.  0.
<mgrwt>
<rscale>  0 0.92696112E+03</rscale>
<asrwt>0</asrwt>
<pdfrwt beam="1">  1        2 0.25903650E+00 0.99170424E+03</pdfrwt>
<pdfrwt beam="2">  1       -2 0.92760368E-01 0.99170424E+03</pdfrwt>
<totfact> 0.98510945E+00</totfact>
</mgrwt>
</event>
<event>
 4    1  0.2665544E-007  0.8154101E+03  0.7818608E-02  0.9678416E-01
          2   -1    0    0  501    0  0.00000000000E+00  0.00000000000E+00  0.12214708559E+04  0.12214708559E+04  0.25500000000E-02 0. -1.
         -2   -1    0    0    0  501 -0.00000000000E+00 -0.00000000000E+00 -0.74099592297E+03  0.74099592297E+03  0.25500000000E-02 0.  1.
    8880023    1    1    2    0    0  0.35298243132E+03 -0.32632316443E+03  0.96474887214E+03  0.12631840709E+04  0.65864270000E+03 0.  0.
    8880022    1    1    2    0    0 -0.35298243132E+03  0.32632316443E+03 -0.48427393920E+03  0.69928270797E+03  0.15294330000E+03 0.  0.
<mgrwt>
<rscale>  0 0.72316552E+03</rscale>
<asrwt>0</asrwt>
<pdfrwt beam="1">  1        2 0.18791859E+00 0.81541009E+03</pdfrwt>
<pdfrwt beam="2">  1       -2 0.11399937E+00 0.81541009E+03</pdfrwt>
<totfact> 0.11211558E+01</totfact>
</mgrwt>
</event>
<event>
 4    1  0.2665544E-007  0.1313509E+04  0.7818608E-02  0.9053981E-01
          2   -1    0    0  501    0  0.00000000000E+00  0.00000000000E+00  0.92359829198E+03  0.92359829198E+03  0.25500000000E-02 0. -1.
         -2   -1    0    0    0  501 -0.00000000000E+00 -0.00000000000E+00 -0.24155186261E+04  0.24155186261E+04  0.25500000000E-02 0.  1.
    8880023    1    1    2    0    0  0.93538291709E+03 -0.64540942183E+03  0.16528932078E+03  0.13238675497E+04  0.65864270000E+03 0. -1.
    8880022    1    1    2    0    0 -0.93538291709E+03  0.64540942183E+03 -0.16572096549E+04  0.20152493684E+04  0.15294330000E+03 0.  0.
<mgrwt>
<rscale>  0 0.12696549E+04</rscale>
<asrwt>0</asrwt>
<pdfrwt beam="1">  1        2 0.14209205E+00 0.13135086E+04</pdfrwt>
<pdfrwt beam="2">  1       -2 0.37161825E+00 0.13135086E+04</pdfrwt>
<totfact> 0.31124534E-01</totfact>
</mgrwt>
</event>
<event>
 4    1  0.2665544E-007  0.1022647E+04  0.7818608E-02  0.9352510E-01
         -2   -1    0    0    0  501 -0.00000000000E+00  0.00000000000E+00  0.54496060106E+03  0.54496060107E+03  0.25500000000E-02 0.  1.
          2   -1    0    0  501    0  0.00000000000E+00 -0.00000000000E+00 -0.30835428982E+04  0.30835428982E+04  0.25500000000E-02 0. -1.
    8880023    1    1    2    0    0  0.77737216183E+03  0.87686083094E+02 -0.26341382528E+04  0.28256841417E+04  0.65864270000E+03 0.  0.
    8880022    1    1    2    0    0 -0.77737216183E+03 -0.87686083094E+02  0.95555955752E+02  0.80281935754E+03  0.15294330000E+03 0.  0.
<mgrwt>
<rscale>  0 0.96089101E+03</rscale>
<asrwt>0</asrwt>
<pdfrwt beam="1">  1        2 0.47439120E+00 0.10226468E+04</pdfrwt>
<pdfrwt beam="2">  1       -2 0.83840095E-01 0.10226468E+04</pdfrwt>
<totfact> 0.19538240E+00</totfact>
</mgrwt>
</event>
<event>
 4    1  0.2665544E-007  0.1052891E+04  0.7818608E-02  0.9315414E-01
          2   -1    0    0  501    0  0.00000000000E+00  0.00000000000E+00  0.15599270715E+04  0.15599270715E+04  0.25500000000E-02 0. -1.
         -2   -1    0    0    0  501 -0.00000000000E+00 -0.00000000000E+00 -0.96091266678E+03  0.96091266678E+03  0.25500000000E-02 0.  1.
    8880023    1    1    2    0    0 -0.79895826395E+03  0.19088190953E+03  0.11191762501E+04  0.15365988078E+04  0.65864270000E+03 0.  0.
    8880022    1    1    2    0    0  0.79895826395E+03 -0.19088190953E+03 -0.52016184539E+03  0.98424093053E+03  0.15294330000E+03 0.  0.
<mgrwt>
<rscale>  0 0.99376161E+03</rscale>
<asrwt>0</asrwt>
<pdfrwt beam="1">  1        2 0.23998878E+00 0.10528915E+04</pdfrwt>
<pdfrwt beam="2">  1       -2 0.14783272E+00 0.10528915E+04</pdfrwt>
<totfact> 0.36100664E+00</totfact>
</mgrwt>
</event>
<event>
 4    1  0.2665544E-007  0.7297290E+03  0.7818608E-02  0.9890944E-01
         -2   -1    0    0    0  501 -0.00000000000E+00  0.00000000000E+00  0.25588414171E+03  0.25588414173E+03  0.25500000000E-02 0.  1.
          2   -1    0    0  501    0  0.00000000000E+00 -0.00000000000E+00 -0.12478898425E+04  0.12478898425E+04  0.25500000000E-02 0. -1.
    8880023    1    1    2    0    0  0.28881390514E+03 -0.12361516905E+03 -0.86572295992E+03  0.11322458352E+04  0.65864270000E+03 0.  0.
    8880022    1    1    2    0    0 -0.28881390514E+03  0.12361516905E+03 -0.12628274083E+03  0.37152814895E+03  0.15294330000E+03 0.  0.
<mgrwt>
<rscale>  0 0.60702190E+03</rscale>
<asrwt>0</asrwt>
<pdfrwt beam="1">  1        2 0.19198305E+00 0.72972898E+03</pdfrwt>
<pdfrwt beam="2">  1       -2 0.39366792E-01 0.72972898E+03</pdfrwt>
<totfact> 0.11005081E+02</totfact>
</mgrwt>
</event>
<event>
 4    1  0.2665544E-007  0.1070426E+04  0.7818608E-02  0.9294720E-01
          2   -1    0    0  501    0  0.00000000000E+00  0.00000000000E+00  0.13517957452E+04  0.13517957452E+04  0.25500000000E-02 0. -1.
         -2   -1    0    0    0  501 -0.00000000000E+00 -0.00000000000E+00 -0.95156604640E+03  0.95156604641E+03  0.25500000000E-02 0.  1.
    8880023    1    1    2    0    0 -0.19941853296E+03 -0.81989910108E+03  0.82016479240E+03  0.13485113200E+04  0.65864270000E+03 0.  0.
    8880022    1    1    2    0    0  0.19941853296E+03  0.81989910108E+03 -0.41993509361E+03  0.95485047159E+03  0.15294330000E+03 0.  0.
<mgrwt>
<rscale>  0 0.10127041E+04</rscale>
<asrwt>0</asrwt>
<pdfrwt beam="1">  1        2 0.20796858E+00 0.10704263E+04</pdfrwt>
<pdfrwt beam="2">  1       -2 0.14639478E+00 0.10704263E+04</pdfrwt>
<totfact> 0.48531803E+00</totfact>
</mgrwt>
</event>
<event>
 4    1  0.2665544E-007  0.6871348E+03  0.7818608E-02  0.1005545E+00
         -2   -1    0    0    0  501 -0.00000000000E+00  0.00000000000E+00  0.45571687898E+03  0.45571687899E+03  0.25500000000E-02 0.  1.
          2   -1    0    0  501    0  0.00000000000E+00 -0.00000000000E+00 -0.90272633524E+03  0.90272633524E+03  0.25500000000E-02 0. -1.
    8880023    1    1    2    0    0 -0.10160043445E+03 -0.16739606486E+03 -0.71591885440E+03  0.99231754150E+03  0.65864270000E+03 0. -1.
    8880022    1    1    2    0    0  0.10160043445E+03  0.16739606486E+03  0.26890939815E+03  0.36612567274E+03  0.15294330000E+03 0.  0.
<mgrwt>
<rscale>  0 0.53284214E+03</rscale>
<asrwt>0</asrwt>
<pdfrwt beam="1">  1        2 0.13888097E+00 0.68713485E+03</pdfrwt>
<pdfrwt beam="2">  1       -2 0.70110289E-01 0.68713485E+03</pdfrwt>
<totfact> 0.55160802E+01</totfact>
</mgrwt>
</event>
<event>
 4    1  0.2665544E-007  0.7688774E+03  0.7818608E-02  0.9782644E-01
         -2   -1    0    0    0  501 -0.00000000000E+00  0.00000000000E+00  0.28710541773E+03  0.28710541774E+03  0.25500000000E-02 0.  1.
          2   -1    0    0  501    0  0.00000000000E+00 -0.00000000000E+00 -0.15515546672E+04  0.15515546672E+04  0.25500000000E-02 0. -1.
    8880023    1    1    2    0    0  0.29413825508E+02  0.39559705381E+03 -0.11749898313E+04  0.14041985301E+04  0.65864270000E+03 0. -1.
    8880022    1    1    2    0    0 -0.29413825508E+02 -0.39559705381E+03 -0.89459418198E+02  0.43446155484E+03  0.15294330000E+03 0.  0.
<mgrwt>
<rscale>  0 0.66302325E+03</rscale>
<asrwt>0</asrwt>
<pdfrwt beam="1">  1        2 0.23870071E+00 0.76887737E+03</pdfrwt>
<pdfrwt beam="2">  1       -2 0.44170065E-01 0.76887737E+03</pdfrwt>
<totfact> 0.58849965E+01</totfact>
</mgrwt>
</event>
<event>
 4    1  0.2665544E-007  0.7177190E+03  0.7818608E-02  0.9930381E-01
          2   -1    0    0  501    0  0.00000000000E+00  0.00000000000E+00  0.34737549711E+04  0.34737549711E+04  0.25500000000E-02 0. -1.
         -2   -1    0    0    0  501 -0.00000000000E+00 -0.00000000000E+00 -0.79867183195E+03  0.79867183195E+03  0.25500000000E-02 0.  1.
    8880023    1    1    2    0    0 -0.13896570841E+03 -0.24899574081E+03  0.34019261702E+04  0.34768120772E+04  0.65864270000E+03 0. -1.
    8880022    1    1    2    0    0  0.13896570841E+03  0.24899574081E+03 -0.72684303104E+03  0.79561472576E+03  0.15294330000E+03 0.  0.
<mgrwt>
<rscale>  0 0.58811222E+03</rscale>
<asrwt>0</asrwt>
<pdfrwt beam="1">  1        2 0.53442385E+00 0.71771899E+03</pdfrwt>
<pdfrwt beam="2">  1       -2 0.12287259E+00 0.71771899E+03</pdfrwt>
<totfact> 0.46575482E-01</totfact>
</mgrwt>
</event>
<event>
 4    1  0.2665544E-007  0.6741103E+03  0.7818608E-02  0.1012873E+00
          2   -1    0    0  501    0  0.00000000000E+00  0.00000000000E+00  0.29392143162E+04  0.29392143162E+04  0.25500000000E-02 0. -1.
         -2   -1    0    0    0  501 -0.00000000000E+00 -0.00000000000E+00 -0.12829479118E+04  0.12829479118E+04  0.25500000000E-02 0.  1.
    8880023    1    1    2    0    0 -0.10146947020E+03 -0.10157939260E+03  0.28916034142E+04  0.29691404375E+04  0.65864270000E+03 0. -1.
    8880022    1    1    2    0    0  0.10146947020E+03  0.10157939260E+03 -0.12353370099E+04  0.12530217905E+04  0.15294330000E+03 0.  0.
<mgrwt>
<rscale>  0 0.50348587E+03</rscale>
<asrwt>0</asrwt>
<pdfrwt beam="1">  1        2 0.45218682E+00 0.67411025E+03</pdfrwt>
<pdfrwt beam="2">  1       -2 0.19737660E+00 0.67411025E+03</pdfrwt>
<totfact> 0.28808634E-01</totfact>
</mgrwt>
</event>
<event>
 4    1  0.3620962E-007  0.8274065E+03  0.7818608E-02  0.9654400E-01
         -2   -1    0    0    0  501 -0.00000000000E+00  0.00000000000E+00  0.10130556889E+04  0.10130556890E+04  0.25500000000E-02 0.  1.
          2   -1    0    0  501    0  0.00000000000E+00 -0.00000000000E+00 -0.19634079215E+04  0.19634079215E+04  0.25500000000E-02 0. -1.
    8880023    1    1    2    0    0  0.21975445354E+03 -0.44999914294E+03 -0.17985012488E+04  0.19796990167E+04  0.65864270000E+03 0.  0.
    8880022    1    1    2    0    0 -0.21975445354E+03  0.44999914294E+03  0.84814901627E+03  0.99676459373E+03  0.15294330000E+03 0.  0.
<mgrwt>
<rscale>  0 0.73797938E+03</rscale>
<asrwt>0</asrwt>
<pdfrwt beam="1">  1        2 0.30206276E+00 0.82740646E+03</pdfrwt>
<pdfrwt beam="2">  1       -2 0.15585472E+00 0.82740646E+03</pdfrwt>
<totfact> 0.19383334E+00</totfact>
</mgrwt>
</event>
<event>
 4    1  0.2665544E-007  0.8809623E+03  0.7818608E-02  0.9557311E-01
          2   -1    0    0  501    0  0.00000000000E+00  0.00000000000E+00  0.22364802569E+04  0.22364802569E+04  0.25500000000E-02 0. -1.
         -2   -1    0    0    0  501 -0.00000000000E+00 -0.00000000000E+00 -0.44714315664E+03  0.44714315664E+03  0.25500000000E-02 0.  1.
    8880023    1    1    2    0    0  0.11636533192E+03  0.57336154160E+03  0.18761736303E+04  0.20727088665E+04  0.65864270000E+03 0.  0.
    8880022    1    1    2    0    0 -0.11636533192E+03 -0.57336154160E+03 -0.86836530043E+02  0.61091454707E+03  0.15294330000E+03 0.  0.
<mgrwt>
<rscale>  0 0.80187199E+03</rscale>
<asrwt>0</asrwt>
<pdfrwt beam="1">  1        2 0.34407389E+00 0.88096229E+03</pdfrwt>
<pdfrwt beam="2">  1       -2 0.68791253E-01 0.88096229E+03</pdfrwt>
<totfact> 0.97156989E+00</totfact>
</mgrwt>
</event>
<event>
 4    1  0.2665544E-007  0.7971469E+03  0.7818608E-02  0.9716999E-01
          2   -1    0    0  501    0  0.00000000000E+00  0.00000000000E+00  0.34993675053E+04  0.34993675053E+04  0.25500000000E-02 0. -1.
         -2   -1    0    0    0  501 -0.00000000000E+00 -0.00000000000E+00 -0.12964103060E+03  0.12964103062E+03  0.25500000000E-02 0.  1.
    8880023    1    1    2    0    0 -0.75786544367E+02  0.44259398403E+03  0.26476863415E+04  0.27650833991E+04  0.65864270000E+03 0. -1.
    8880022    1    1    2    0    0  0.75786544367E+02 -0.44259398403E+03  0.72204013325E+03  0.86392513683E+03  0.15294330000E+03 0.  0.
<mgrwt>
<rscale>  0 0.70013624E+03</rscale>
<asrwt>0</asrwt>
<pdfrwt beam="1">  1        2 0.53836432E+00 0.79714694E+03</pdfrwt>
<pdfrwt beam="2">  1       -2 0.19944771E-01 0.79714694E+03</pdfrwt>
<totfact> 0.18643794E+01</totfact>
</mgrwt>
</event>
<event>
 4    1  0.2665544E-007  0.1598300E+04  0.7818608E-02  0.8843171E-01
         -2   -1    0    0    0  501 -0.00000000000E+00  0.00000000000E+00  0.24068889489E+04  0.24068889489E+04  0.25500000000E-02 0.  1.
          2   -1    0    0  501    0  0.00000000000E+00 -0.00000000000E+00 -0.14885716297E+04  0.14885716297E+04  0.25500000000E-02 0. -1.
    8880023    1    1    2    0    0  0.84897700763E+03  0.11832122399E+04 -0.67187985577E+03  0.17337779301E+04  0.65864270000E+03 0.  0.
    8880022    1    1    2    0    0 -0.84897700763E+03 -0.11832122399E+04  0.15901971750E+04  0.21616826484E+04  0.15294330000E+03 0.  0.
<mgrwt>
<rscale>  0 0.15636895E+04</rscale>
<asrwt>0</asrwt>
<pdfrwt beam="1">  1        2 0.22901102E+00 0.15983002E+04</pdfrwt>
<pdfrwt beam="2">  1       -2 0.37029060E+00 0.15983002E+04</pdfrwt>
<totfact> 0.13882487E-01</totfact>
</mgrwt>
</event>
<event>
 4    1  0.2665544E-007  0.9448590E+03  0.7818608E-02  0.9457550E-01
         -2   -1    0    0    0  501 -0.00000000000E+00  0.00000000000E+00  0.14500201536E+04  0.14500201536E+04  0.25500000000E-02 0.  1.
          2   -1    0    0  501    0  0.00000000000E+00 -0.00000000000E+00 -0.55153189972E+03  0.55153189973E+03  0.25500000000E-02 0. -1.
    8880023    1    1    2    0    0 -0.63808510193E+03 -0.22758690656E+03  0.90308814749E+03  0.13070297647E+04  0.65864270000E+03 0.  0.
    8880022    1    1    2    0    0  0.63808510193E+03  0.22758690656E+03 -0.45998936618E+01  0.69452228861E+03  0.15294330000E+03 0.  0.
<mgrwt>
<rscale>  0 0.87487183E+03</rscale>
<asrwt>0</asrwt>
<pdfrwt beam="1">  1        2 0.84851063E-01 0.94485904E+03</pdfrwt>
<pdfrwt beam="2">  1       -2 0.22308002E+00 0.94485904E+03</pdfrwt>
<totfact> 0.51949705E+00</totfact>
</mgrwt>
</event>
<event>
 4    1  0.2665544E-007  0.9855672E+03  0.7818608E-02  0.9400689E-01
         -2   -1    0    0    0  501 -0.00000000000E+00  0.00000000000E+00  0.42039273868E+03  0.42039273869E+03  0.25500000000E-02 0.  1.
          2   -1    0    0  501    0  0.00000000000E+00 -0.00000000000E+00 -0.21602224462E+04  0.21602224462E+04  0.25500000000E-02 0. -1.
    8880023    1    1    2    0    0 -0.20132037813E+03  0.70498410315E+03 -0.14988569355E+04  0.17938547320E+04  0.65864270000E+03 0.  1.
    8880022    1    1    2    0    0  0.20132037813E+03 -0.70498410315E+03 -0.24097277207E+03  0.78676045289E+03  0.15294330000E+03 0. -1.
<mgrwt>
<rscale>  0 0.92019039E+03</rscale>
<asrwt>0</asrwt>
<pdfrwt beam="1">  1        2 0.33234191E+00 0.98556719E+03</pdfrwt>
<pdfrwt beam="2">  1       -2 0.64675807E-01 0.98556719E+03</pdfrwt>
<totfact> 0.12084742E+01</totfact>
</mgrwt>
</event>
<event>
 4    1  0.2665544E-007  0.8182591E+03  0.7818608E-02  0.9672624E-01
          2   -1    0    0  501    0  0.00000000000E+00  0.00000000000E+00  0.79516900740E+03  0.79516900741E+03  0.25500000000E-02 0. -1.
         -2   -1    0    0    0  501 -0.00000000000E+00 -0.00000000000E+00 -0.81476861598E+03  0.81476861599E+03  0.25500000000E-02 0.  1.
    8880023    1    1    2    0    0  0.35490478124E+03 -0.33133116982E+03 -0.45836320822E+03  0.93789380249E+03  0.65864270000E+03 0.  0.
    8880022    1    1    2    0    0 -0.35490478124E+03  0.33133116982E+03  0.43876359964E+03  0.67204382091E+03  0.15294330000E+03 0.  0.
<mgrwt>
<rscale>  0 0.72670428E+03</rscale>
<asrwt>0</asrwt>
<pdfrwt beam="1">  1        2 0.12233369E+00 0.81825910E+03</pdfrwt>
<pdfrwt beam="2">  1       -2 0.12534902E+00 0.81825910E+03</pdfrwt>
<totfact> 0.16668570E+01</totfact>
</mgrwt>
</event>
<event>
 4    1  0.2665544E-007  0.1306942E+04  0.7818608E-02  0.9059588E-01
         -2   -1    0    0    0  501 -0.00000000000E+00  0.00000000000E+00  0.12712524909E+04  0.12712524909E+04  0.25500000000E-02 0.  1.
          2   -1    0    0  501    0  0.00000000000E+00 -0.00000000000E+00 -0.15572190258E+04  0.15572190258E+04  0.25500000000E-02 0. -1.
    8880023    1    1    2    0    0  0.11002353651E+04 -0.25252704369E+03  0.54747845989E+03  0.14169794059E+04  0.65864270000E+03 0. -1.
    8880022    1    1    2    0    0 -0.11002353651E+04  0.25252704369E+03 -0.83344499477E+03  0.14114921108E+04  0.15294330000E+03 0.  0.
<mgrwt>
<rscale>  0 0.12628106E+04</rscale>
<asrwt>0</asrwt>
<pdfrwt beam="1">  1        2 0.23957216E+00 0.13069422E+04</pdfrwt>
<pdfrwt beam="2">  1       -2 0.19557730E+00 0.13069422E+04</pdfrwt>
<totfact> 0.16082095E+00</totfact>
</mgrwt>
</event>
<event>
 4    1  0.2665544E-007  0.6621999E+03  0.7818608E-02  0.1022008E+00
         -2   -1    0    0    0  501 -0.00000000000E+00  0.00000000000E+00  0.19479613579E+03  0.19479613581E+03  0.25500000000E-02 0.  1.
          2   -1    0    0  501    0  0.00000000000E+00 -0.00000000000E+00 -0.38008717460E+04  0.38008717460E+04  0.25500000000E-02 0. -1.
    8880023    1    1    2    0    0  0.66888246775E+02 -0.14984156931E+02 -0.37293041985E+04  0.37876402382E+04  0.65864270000E+03 0. -1.
    8880022    1    1    2    0    0 -0.66888246775E+02  0.14984156931E+02  0.12322858832E+03  0.20802764362E+03  0.15294330000E+03 0.  0.
<mgrwt>
<rscale>  0 0.46968992E+03</rscale>
<asrwt>0</asrwt>
<pdfrwt beam="1">  1        2 0.58474944E+00 0.66219995E+03</pdfrwt>
<pdfrwt beam="2">  1       -2 0.29968639E-01 0.66219995E+03</pdfrwt>
<totfact> 0.56261160E+00</totfact>
</mgrwt>
</event>
<event>
 4    1  0.2665544E-007  0.1049752E+04  0.7818608E-02  0.9319179E-01
         -2   -1    0    0    0  501 -0.00000000000E+00  0.00000000000E+00  0.21055038490E+04  0.21055038490E+04  0.25500000000E-02 0.  1.
          2   -1    0    0  501    0  0.00000000000E+00 -0.00000000000E+00 -0.47553989972E+03  0.47553989973E+03  0.25500000000E-02 0. -1.
    8880023    1    1    2    0    0  0.19977731550E+03 -0.79262771739E+03  0.46114409078E+03  0.11465747917E+04  0.65864270000E+03 0.  0.
    8880022    1    1    2    0    0 -0.19977731550E+03  0.79262771739E+03  0.11688198585E+04  0.14344689571E+04  0.15294330000E+03 0.  0.
<mgrwt>
<rscale>  0 0.99036199E+03</rscale>
<asrwt>0</asrwt>
<pdfrwt beam="1">  1        2 0.73159986E-01 0.10497523E+04</pdfrwt>
<pdfrwt beam="2">  1       -2 0.32392366E+00 0.10497523E+04</pdfrwt>
<totfact> 0.14852993E+00</totfact>
</mgrwt>
</event>
<event>
 4    1  0.2665544E-007  0.6722096E+03  0.7818608E-02  0.1014126E+00
          2   -1    0    0  501    0  0.00000000000E+00  0.00000000000E+00  0.37752069525E+03  0.37752069526E+03  0.25500000000E-02 0. -1.
         -2   -1    0    0    0  501 -0.00000000000E+00 -0.00000000000E+00 -0.54455143175E+03  0.54455143175E+03  0.25500000000E-02 0.  1.
    8880023    1    1    2    0    0  0.70818157404E+01  0.13418416538E+03 -0.22842139448E+02  0.67259758545E+03  0.65864270000E+03 0.  0.
    8880022    1    1    2    0    0 -0.70818157404E+01 -0.13418416538E+03 -0.14418859705E+03  0.24947454156E+03  0.15294330000E+03 0.  0.
<mgrwt>
<rscale>  0 0.49867251E+03</rscale>
<asrwt>0</asrwt>
<pdfrwt beam="1">  1        2 0.58080107E-01 0.67220960E+03</pdfrwt>
<pdfrwt beam="2">  1       -2 0.83777143E-01 0.67220960E+03</pdfrwt>
<totfact> 0.10719214E+02</totfact>
</mgrwt>
</event>
<event>
 4    1  0.2665544E-007  0.7379522E+03  0.7818608E-02  0.9865953E-01
          2   -1    0    0  501    0  0.00000000000E+00  0.00000000000E+00  0.20452157909E+04  0.20452157909E+04  0.25500000000E-02 0. -1.
         -2   -1    0    0    0  501 -0.00000000000E+00 -0.00000000000E+00 -0.33654698512E+03  0.33654698513E+03  0.25500000000E-02 0.  1.
    8880023    1    1    2    0    0 -0.29602314195E+03  0.15209701776E+03  0.18479932854E+04  0.19898875829E+04  0.65864270000E+03 0. -1.
    8880022    1    1    2    0    0  0.29602314195E+03 -0.15209701776E+03 -0.13932447960E+03  0.39187519316E+03  0.15294330000E+03 0.  0.
<mgrwt>
<rscale>  0 0.61940109E+03</rscale>
<asrwt>0</asrwt>
<pdfrwt beam="1">  1        2 0.31464858E+00 0.73795217E+03</pdfrwt>
<pdfrwt beam="2">  1       -2 0.51776459E-01 0.73795217E+03</pdfrwt>
<totfact> 0.23015966E+01</totfact>
</mgrwt>
</event>
<event>
 4    1  0.2665544E-007  0.8620703E+03  0.7818608E-02  0.9589891E-01
          2   -1    0    0  501    0  0.00000000000E+00  0.00000000000E+00  0.31375931907E+04  0.31375931907E+04  0.25500000000E-02 0. -1.
         -2   -1    0    0    0  501 -0.00000000000E+00 -0.00000000000E+00 -0.53218584951E+03  0.53218584951E+03  0.25500000000E-02 0.  1.
    8880023    1    1    2    0    0  0.20830405436E+03  0.51571730315E+03  0.28976249871E+04  0.30231433456E+04  0.65864270000E+03 0.  0.
    8880022    1    1    2    0    0 -0.20830405436E+03 -0.51571730315E+03 -0.29221764599E+03  0.64663569455E+03  0.15294330000E+03 0.  0.
<mgrwt>
<rscale>  0 0.77968862E+03</rscale>
<asrwt>0</asrwt>
<pdfrwt beam="1">  1        2 0.48270664E+00 0.86207025E+03</pdfrwt>
<pdfrwt beam="2">  1       -2 0.81874747E-01 0.86207025E+03</pdfrwt>
<totfact> 0.19588825E+00</totfact>
</mgrwt>
</event>
<event>
 4    1  0.2665544E-007  0.1030859E+04  0.7818608E-02  0.9342253E-01
         -2   -1    0    0    0  501 -0.00000000000E+00  0.00000000000E+00  0.14814056007E+04  0.14814056007E+04  0.25500000000E-02 0.  1.
          2   -1    0    0  501    0  0.00000000000E+00 -0.00000000000E+00 -0.89269953767E+03  0.89269953767E+03  0.25500000000E-02 0. -1.
    8880023    1    1    2    0    0 -0.60541230996E+03 -0.51218780757E+03 -0.39269357234E+03  0.11031223247E+04  0.65864270000E+03 0.  0.
    8880022    1    1    2    0    0  0.60541230996E+03  0.51218780757E+03  0.98139963538E+03  0.12709828137E+04  0.15294330000E+03 0.  0.
<mgrwt>
<rscale>  0 0.96984300E+03</rscale>
<asrwt>0</asrwt>
<pdfrwt beam="1">  1        2 0.13733839E+00 0.10308592E+04</pdfrwt>
<pdfrwt beam="2">  1       -2 0.22790855E+00 0.10308592E+04</pdfrwt>
<totfact> 0.25904305E+00</totfact>
</mgrwt>
</event>
<event>
 4    1  0.2665544E-007  0.1045276E+04  0.7818608E-02  0.9324581E-01
          2   -1    0    0  501    0  0.00000000000E+00  0.00000000000E+00  0.14283865399E+04  0.14283865399E+04  0.25500000000E-02 0. -1.
         -2   -1    0    0    0  501 -0.00000000000E+00 -0.00000000000E+00 -0.13830655481E+04  0.13830655481E+04  0.25500000000E-02 0.  1.
    8880023    1    1    2    0    0  0.76996024792E+03  0.25681498864E+03  0.10696728666E+04  0.14955945204E+04  0.65864270000E+03 0.  0.
    8880022    1    1    2    0    0 -0.76996024792E+03 -0.25681498864E+03 -0.10243518748E+04  0.13158575676E+04  0.15294330000E+03 0.  0.
<mgrwt>
<rscale>  0 0.98551016E+03</rscale>
<asrwt>0</asrwt>
<pdfrwt beam="1">  1        2 0.21975178E+00 0.10452765E+04</pdfrwt>
<pdfrwt beam="2">  1       -2 0.21277932E+00 0.10452765E+04</pdfrwt>
<totfact> 0.15136964E+00</totfact>
</mgrwt>
</event>
<event>
 4    1  0.2665544E-007  0.6951640E+03  0.7818608E-02  0.1001789E+00
          2   -1    0    0  501    0  0.00000000000E+00  0.00000000000E+00  0.11201159615E+04  0.11201159615E+04  0.25500000000E-02 0. -1.
         -2   -1    0    0    0  501 -0.00000000000E+00 -0.00000000000E+00 -0.24551012192E+03  0.24551012193E+03  0.25500000000E-02 0.  1.
    8880023    1    1    2    0    0 -0.22156307324E+03 -0.18776136706E+02  0.84488929916E+03  0.10941164805E+04  0.65864270000E+03 0.  0.
    8880022    1    1    2    0    0  0.22156307324E+03  0.18776136706E+02  0.29716540460E+02  0.27150960300E+03  0.15294330000E+03 0.  0.
<mgrwt>
<rscale>  0 0.54872848E+03</rscale>
<asrwt>0</asrwt>
<pdfrwt beam="1">  1        2 0.17232554E+00 0.69516397E+03</pdfrwt>
<pdfrwt beam="2">  1       -2 0.37770787E-01 0.69516397E+03</pdfrwt>
<totfact> 0.14238894E+02</totfact>
</mgrwt>
</event>
<event>
 4    1  0.2665544E-007  0.8490832E+03  0.7818608E-02  0.9613285E-01
         -2   -1    0    0    0  501 -0.00000000000E+00  0.00000000000E+00  0.74616521140E+03  0.74616521140E+03  0.25500000000E-02 0.  1.
          2   -1    0    0  501    0  0.00000000000E+00 -0.00000000000E+00 -0.85763610580E+03  0.85763610581E+03  0.25500000000E-02 0. -1.
    8880023    1    1    2    0    0  0.30578073814E+03  0.44003424670E+03 -0.44062289239E+03  0.95660375164E+03  0.65864270000E+03 0. -1.
    8880022    1    1    2    0    0 -0.30578073814E+03 -0.44003424670E+03  0.32915199799E+03  0.64719756557E+03  0.15294330000E+03 0.  0.
<mgrwt>
<rscale>  0 0.76423074E+03</rscale>
<asrwt>0</asrwt>
<pdfrwt beam="1">  1        2 0.13194402E+00 0.84908316E+03</pdfrwt>
<pdfrwt beam="2">  1       -2 0.11479465E+00 0.84908316E+03</pdfrwt>
<totfact> 0.18672827E+01</totfact>
</mgrwt>
</event>
<event>
 4    1  0.2665544E-007  0.7838439E+03  0.7818608E-02  0.9746884E-01
         -2   -1    0    0    0  501 -0.00000000000E+00  0.00000000000E+00  0.32901611571E+03  0.32901611572E+03  0.25500000000E-02 0.  1.
          2   -1    0    0  501    0  0.00000000000E+00 -0.00000000000E+00 -0.14274831695E+04  0.14274831695E+04  0.25500000000E-02 0. -1.
    8880023    1    1    2    0    0 -0.71919648667E+02 -0.41884193297E+03 -0.10381515088E+04  0.13008342562E+04  0.65864270000E+03 0. -1.
    8880022    1    1    2    0    0  0.71919648667E+02  0.41884193297E+03 -0.60315545004E+02  0.45566502901E+03  0.15294330000E+03 0.  0.
<mgrwt>
<rscale>  0 0.68292654E+03</rscale>
<asrwt>0</asrwt>
<pdfrwt beam="1">  1        2 0.21961279E+00 0.78384387E+03</pdfrwt>
<pdfrwt beam="2">  1       -2 0.50617864E-01 0.78384387E+03</pdfrwt>
<totfact> 0.52384347E+01</totfact>
</mgrwt>
</event>
<event>
 4    1  0.2665544E-007  0.8807381E+03  0.7818608E-02  0.9557689E-01
         -2   -1    0    0    0  501 -0.00000000000E+00  0.00000000000E+00  0.56855274771E+03  0.56855274771E+03  0.25500000000E-02 0.  1.
          2   -1    0    0  501    0  0.00000000000E+00 -0.00000000000E+00 -0.23435633357E+04  0.23435633357E+04  0.25500000000E-02 0. -1.
    8880023    1    1    2    0    0  0.58427525894E+03  0.22621679368E+02 -0.20626195068E+04  0.22427881654E+04  0.65864270000E+03 0.  0.
    8880022    1    1    2    0    0 -0.58427525894E+03 -0.22621679368E+02  0.28760891887E+03  0.66932791800E+03  0.15294330000E+03 0.  0.
<mgrwt>
<rscale>  0 0.80161060E+03</rscale>
<asrwt>0</asrwt>
<pdfrwt beam="1">  1        2 0.36054820E+00 0.88073806E+03</pdfrwt>
<pdfrwt beam="2">  1       -2 0.87469655E-01 0.88073806E+03</pdfrwt>
<totfact> 0.49458431E+00</totfact>
</mgrwt>
</event>
<event>
 4    1  0.2665544E-007  0.9128049E+03  0.7818608E-02  0.9505780E-01
          2   -1    0    0  501    0  0.00000000000E+00  0.00000000000E+00  0.18191472220E+04  0.18191472220E+04  0.25500000000E-02 0. -1.
         -2   -1    0    0    0  501 -0.00000000000E+00 -0.00000000000E+00 -0.17122645620E+04  0.17122645620E+04  0.25500000000E-02 0.  1.
    8880023    1    1    2    0    0  0.63043750958E+03 -0.44172052598E+02  0.16339736556E+04  0.18716524082E+04  0.65864270000E+03 0. -1.
    8880022    1    1    2    0    0 -0.63043750958E+03  0.44172052598E+02 -0.15270909956E+04  0.16597593758E+04  0.15294330000E+03 0.  0.
<mgrwt>
<rscale>  0 0.83858988E+03</rscale>
<asrwt>0</asrwt>
<pdfrwt beam="1">  1        2 0.27986880E+00 0.91280492E+03</pdfrwt>
<pdfrwt beam="2">  1       -2 0.26342532E+00 0.91280492E+03</pdfrwt>
<totfact> 0.45582571E-01</totfact>
</mgrwt>
</event>
<event>
 4    1  0.2665544E-007  0.1063455E+04  0.7818608E-02  0.9302878E-01
          2   -1    0    0  501    0  0.00000000000E+00  0.00000000000E+00  0.24772363426E+04  0.24772363426E+04  0.25500000000E-02 0. -1.
         -2   -1    0    0    0  501 -0.00000000000E+00 -0.00000000000E+00 -0.57240408617E+03  0.57240408618E+03  0.25500000000E-02 0.  1.
    8880023    1    1    2    0    0  0.53263185172E+03  0.64298550201E+03  0.19264983953E+04  0.22005302358E+04  0.65864270000E+03 0.  0.
    8880022    1    1    2    0    0 -0.53263185172E+03 -0.64298550201E+03 -0.21666138873E+02  0.84911019299E+03  0.15294330000E+03 0.  0.
<mgrwt>
<rscale>  0 0.10051829E+04</rscale>
<asrwt>0</asrwt>
<pdfrwt beam="1">  1        2 0.38111328E+00 0.10634553E+04</pdfrwt>
<pdfrwt beam="2">  1       -2 0.88062169E-01 0.10634553E+04</pdfrwt>
<totfact> 0.39905641E+00</totfact>
</mgrwt>
</event>
<event>
 4    1  0.2665544E-007  0.1067072E+04  0.7818608E-02  0.9298635E-01
          2   -1    0    0  501    0  0.00000000000E+00  0.00000000000E+00  0.26388825093E+04  0.26388825093E+04  0.25500000000E-02 0. -1.
         -2   -1    0    0    0  501 -0.00000000000E+00 -0.00000000000E+00 -0.40549959202E+03  0.40549959203E+03  0.25500000000E-02 0.  1.
    8880023    1    1    2    0    0  0.83506008501E+03 -0.86639170953E+02  0.17869382024E+04  0.20812952787E+04  0.65864270000E+03 0.  1.
    8880022    1    1    2    0    0 -0.83506008501E+03  0.86639170953E+02  0.44644471487E+03  0.96308682266E+03  0.15294330000E+03 0.  0.
<mgrwt>
<rscale>  0 0.10090862E+04</rscale>
<asrwt>0</asrwt>
<pdfrwt beam="1">  1        2 0.40598192E+00 0.10670716E+04</pdfrwt>
<pdfrwt beam="2">  1       -2 0.62384553E-01 0.10670716E+04</pdfrwt>
<totfact> 0.69224031E+00</totfact>
</mgrwt>
</event>
<event>
 4    1  0.2665544E-007  0.8777060E+03  0.7818608E-02  0.9562812E-01
          2   -1    0    0  501    0  0.00000000000E+00  0.00000000000E+00  0.15726687232E+04  0.15726687232E+04  0.25500000000E-02 0. -1.
         -2   -1    0    0    0  501 -0.00000000000E+00 -0.00000000000E+00 -0.18283591567E+04  0.18283591567E+04  0.25500000000E-02 0.  1.
    8880023    1    1    2    0    0  0.13925206041E+03 -0.56317541329E+03  0.13930627961E+04  0.16465089865E+04  0.65864270000E+03 0. -1.
    8880022    1    1    2    0    0 -0.13925206041E+03  0.56317541329E+03 -0.16487532295E+04  0.17545188934E+04  0.15294330000E+03 0.  0.
<mgrwt>
<rscale>  0 0.79807184E+03</rscale>
<asrwt>0</asrwt>
<pdfrwt beam="1">  1        2 0.24194903E+00 0.87770604E+03</pdfrwt>
<pdfrwt beam="2">  1       -2 0.28128602E+00 0.87770604E+03</pdfrwt>
<totfact> 0.48951155E-01</totfact>
</mgrwt>
</event>
<event>
 4    1  0.2665544E-007  0.1935224E+04  0.7818608E-02  0.8651207E-01
          2   -1    0    0  501    0  0.00000000000E+00  0.00000000000E+00  0.22599183256E+04  0.22599183256E+04  0.25500000000E-02 0. -1.
         -2   -1    0    0    0  501 -0.00000000000E+00 -0.00000000000E+00 -0.19651293177E+04  0.19651293177E+04  0.25500000000E-02 0.  1.
    8880023    1    1    2    0    0 -0.48460622194E+03 -0.17539776312E+04  0.11036590492E+04  0.22278137768E+04  0.65864270000E+03 0.  0.
    8880022    1    1    2    0    0  0.48460622194E+03  0.17539776312E+04 -0.80887004119E+03  0.19972338665E+04  0.15294330000E+03 0.  0.
<mgrwt>
<rscale>  0 0.19073484E+04</rscale>
<asrwt>0</asrwt>
<pdfrwt beam="1">  1        2 0.34767974E+00 0.19352237E+04</pdfrwt>
<pdfrwt beam="2">  1       -2 0.30232759E+00 0.19352237E+04</pdfrwt>
<totfact> 0.13131153E-01</totfact>
</mgrwt>
</event>
<event>
 4    1  0.2665544E-007  0.7059360E+03  0.7818608E-02  0.9973413E-01
         -2   -1    0    0    0  501 -0.00000000000E+00  0.00000000000E+00  0.11862364504E+04  0.11862364504E+04  0.25500000000E-02 0.  1.
          2   -1    0    0  501    0  0.00000000000E+00 -0.00000000000E+00 -0.60034094870E+03  0.60034094870E+03  0.25500000000E-02 0. -1.
    8880023    1    1    2    0    0  0.18681504479E+03 -0.17214995747E+03 -0.36203064482E+03  0.79335481524E+03  0.65864270000E+03 0. -1.
    8880022    1    1    2    0    0 -0.18681504479E+03  0.17214995747E+03  0.94792614653E+03  0.99322258387E+03  0.15294330000E+03 0.  0.
<mgrwt>
<rscale>  0 0.56831533E+03</rscale>
<asrwt>0</asrwt>
<pdfrwt beam="1">  1        2 0.92360147E-01 0.70593603E+03</pdfrwt>
<pdfrwt beam="2">  1       -2 0.18249791E+00 0.70593603E+03</pdfrwt>
<totfact> 0.88348720E+00</totfact>
</mgrwt>
</event>
<event>
 4    1  0.2665544E-007  0.7972301E+03  0.7818608E-02  0.9716817E-01
         -2   -1    0    0    0  501 -0.00000000000E+00  0.00000000000E+00  0.21523691909E+03  0.21523691911E+03  0.25500000000E-02 0.  1.
          2   -1    0    0  501    0  0.00000000000E+00 -0.00000000000E+00 -0.20108979139E+04  0.20108979139E+04  0.25500000000E-02 0. -1.
    8880023    1    1    2    0    0 -0.72533910767E+02  0.44328827748E+03 -0.13875211154E+04  0.16002470800E+04  0.65864270000E+03 0. -1.
    8880022    1    1    2    0    0  0.72533910767E+02 -0.44328827748E+03 -0.40813987943E+03  0.62588775300E+03  0.15294330000E+03 0.  0.
<mgrwt>
<rscale>  0 0.70024261E+03</rscale>
<asrwt>0</asrwt>
<pdfrwt beam="1">  1        2 0.30936890E+00 0.79723012E+03</pdfrwt>
<pdfrwt beam="2">  1       -2 0.33113374E-01 0.79723012E+03</pdfrwt>
<totfact> 0.57427585E+01</totfact>
</mgrwt>
</event>
<event>
 4    1  0.2665544E-007  0.8072406E+03  0.7818608E-02  0.9695354E-01
         -2   -1    0    0    0  501 -0.00000000000E+00  0.00000000000E+00  0.15837169455E+04  0.15837169455E+04  0.25500000000E-02 0.  1.
          2   -1    0    0  501    0  0.00000000000E+00 -0.00000000000E+00 -0.73619633554E+03  0.73619633554E+03  0.25500000000E-02 0. -1.
    8880023    1    1    2    0    0 -0.30873762640E+03  0.35001177959E+03 -0.45586307020E+03  0.92706445992E+03  0.65864270000E+03 0. -1.
    8880022    1    1    2    0    0  0.30873762640E+03 -0.35001177959E+03  0.13033836802E+04  0.13928488212E+04  0.15294330000E+03 0.  0.
<mgrwt>
<rscale>  0 0.71294109E+03</rscale>
<asrwt>0</asrwt>
<pdfrwt beam="1">  1        2 0.11326097E+00 0.80724059E+03</pdfrwt>
<pdfrwt beam="2">  1       -2 0.24364876E+00 0.80724059E+03</pdfrwt>
<totfact> 0.27587524E+00</totfact>
</mgrwt>
</event>
<event>
 4    1  0.2665544E-007  0.7909941E+03  0.7818608E-02  0.9730618E-01
          2   -1    0    0  501    0  0.00000000000E+00  0.00000000000E+00  0.94847329254E+03  0.94847329255E+03  0.25500000000E-02 0. -1.
         -2   -1    0    0    0  501 -0.00000000000E+00 -0.00000000000E+00 -0.48051501389E+03  0.48051501389E+03  0.25500000000E-02 0.  1.
    8880023    1    1    2    0    0 -0.26082280958E+03  0.35189911579E+03  0.54240278902E+03  0.95909984751E+03  0.65864270000E+03 0. -1.
    8880022    1    1    2    0    0  0.26082280958E+03 -0.35189911579E+03 -0.74444510366E+02  0.46988845893E+03  0.15294330000E+03 0.  1.
<mgrwt>
<rscale>  0 0.69222718E+03</rscale>
<asrwt>0</asrwt>
<pdfrwt beam="1">  1        2 0.14591897E+00 0.79099414E+03</pdfrwt>
<pdfrwt beam="2">  1       -2 0.73925387E-01 0.79099414E+03</pdfrwt>
<totfact> 0.45386437E+01</totfact>
</mgrwt>
</event>
<event>
 4    1  0.2665544E-007  0.7323626E+03  0.7818608E-02  0.9882780E-01
          2   -1    0    0  501    0  0.00000000000E+00  0.00000000000E+00  0.79151167208E+03  0.79151167209E+03  0.25500000000E-02 0. -1.
         -2   -1    0    0    0  501 -0.00000000000E+00 -0.00000000000E+00 -0.63812262315E+03  0.63812262316E+03  0.25500000000E-02 0.  1.
    8880023    1    1    2    0    0 -0.14889092743E+03  0.28350706235E+03  0.53617522373E+03  0.90765568333E+03  0.65864270000E+03 0.  0.
    8880022    1    1    2    0    0  0.14889092743E+03 -0.28350706235E+03 -0.38278617480E+03  0.52197861192E+03  0.15294330000E+03 0.  0.
<mgrwt>
<rscale>  0 0.61103140E+03</rscale>
<asrwt>0</asrwt>
<pdfrwt beam="1">  1        2 0.12177103E+00 0.73236259E+03</pdfrwt>
<pdfrwt beam="2">  1       -2 0.98172711E-01 0.73236259E+03</pdfrwt>
<totfact> 0.30617602E+01</totfact>
</mgrwt>
</event>
<event>
 4    1  0.2665544E-007  0.1237248E+04  0.7818608E-02  0.9121738E-01
         -2   -1    0    0    0  501 -0.00000000000E+00  0.00000000000E+00  0.43486843869E+03  0.43486843869E+03  0.25500000000E-02 0.  1.
          2   -1    0    0  501    0  0.00000000000E+00 -0.00000000000E+00 -0.34742481485E+04  0.34742481485E+04  0.25500000000E-02 0. -1.
    8880023    1    1    2    0    0 -0.26751669633E+03  0.10126244007E+04 -0.23200918701E+04  0.26293744221E+04  0.65864270000E+03 0.  0.
    8880022    1    1    2    0    0  0.26751669633E+03 -0.10126244007E+04 -0.71928783968E+03  0.12797421651E+04  0.15294330000E+03 0.  0.
<mgrwt>
<rscale>  0 0.11899059E+04</rscale>
<asrwt>0</asrwt>
<pdfrwt beam="1">  1        2 0.53449970E+00 0.12372484E+04</pdfrwt>
<pdfrwt beam="2">  1       -2 0.66902839E-01 0.12372484E+04</pdfrwt>
<totfact> 0.17379226E+00</totfact>
</mgrwt>
</event>
<event>
 4    1  0.2665544E-007  0.1041363E+04  0.7818608E-02  0.9329337E-01
         -2   -1    0    0    0  501 -0.00000000000E+00  0.00000000000E+00  0.12373608487E+04  0.12373608487E+04  0.25500000000E-02 0.  1.
          2   -1    0    0  501    0  0.00000000000E+00 -0.00000000000E+00 -0.21189840304E+04  0.21189840304E+04  0.25500000000E-02 0. -1.
    8880023    1    1    2    0    0 -0.52238531733E+03  0.61460562632E+03 -0.18278019084E+04  0.21036388755E+04  0.65864270000E+03 0.  0.
    8880022    1    1    2    0    0  0.52238531733E+03 -0.61460562632E+03  0.94617872668E+03  0.12527060036E+04  0.15294330000E+03 0.  0.
<mgrwt>
<rscale>  0 0.98126323E+03</rscale>
<asrwt>0</asrwt>
<pdfrwt beam="1">  1        2 0.32599754E+00 0.10413629E+04</pdfrwt>
<pdfrwt beam="2">  1       -2 0.19036321E+00 0.10413629E+04</pdfrwt>
<totfact> 0.87805048E-01</totfact>
</mgrwt>
</event>
<event>
 4    1  0.2665544E-007  0.6932361E+03  0.7818608E-02  0.1002651E+00
          2   -1    0    0  501    0  0.00000000000E+00  0.00000000000E+00  0.13079999425E+03  0.13079999427E+03  0.25500000000E-02 0. -1.
         -2   -1    0    0    0  501 -0.00000000000E+00 -0.00000000000E+00 -0.18081990581E+04  0.18081990581E+04  0.25500000000E-02 0.  1.
    8880023    1    1    2    0    0  0.15088082260E+03  0.15492270617E+03 -0.10525987241E+04  0.12603730987E+04  0.65864270000E+03 0.  0.
    8880022    1    1    2    0    0 -0.15088082260E+03 -0.15492270617E+03 -0.62480033967E+03  0.67862595366E+03  0.15294330000E+03 0. -1.
<mgrwt>
<rscale>  0 0.54502987E+03</rscale>
<asrwt>0</asrwt>
<pdfrwt beam="1">  1        2 0.20123077E-01 0.69323609E+03</pdfrwt>
<pdfrwt beam="2">  1       -2 0.27818445E+00 0.69323609E+03</pdfrwt>
<totfact> 0.12665862E+01</totfact>
</mgrwt>
</event>
<event>
 4    1  0.2665544E-007  0.1157252E+04  0.7818608E-02  0.9199840E-01
         -2   -1    0    0    0  501 -0.00000000000E+00  0.00000000000E+00  0.22846137829E+04  0.22846137829E+04  0.25500000000E-02 0.  1.
          2   -1    0    0  501    0  0.00000000000E+00 -0.00000000000E+00 -0.76653545827E+03  0.76653545827E+03  0.25500000000E-02 0. -1.
    8880023    1    1    2    0    0  0.53313827096E+03  0.78815255125E+03 -0.10657850424E+03  0.11621488906E+04  0.65864270000E+03 0.  0.
    8880022    1    1    2    0    0 -0.53313827096E+03 -0.78815255125E+03  0.16246568289E+04  0.18890003506E+04  0.15294330000E+03 0.  0.
<mgrwt>
<rscale>  0 0.11055078E+04</rscale>
<asrwt>0</asrwt>
<pdfrwt beam="1">  1        2 0.11792853E+00 0.11572515E+04</pdfrwt>
<pdfrwt beam="2">  1       -2 0.35147904E+00 0.11572515E+04</pdfrwt>
<totfact> 0.55004959E-01</totfact>
</mgrwt>
</event>
<event>
 4    1  0.2665544E-007  0.1087984E+04  0.7818608E-02  0.9274554E-01
          2   -1    0    0  501    0  0.00000000000E+00  0.00000000000E+00  0.32740163956E+04  0.32740163956E+04  0.25500000000E-02 0. -1.
         -2   -1    0    0    0  501 -0.00000000000E+00 -0.00000000000E+00 -0.39775054182E+03  0.39775054183E+03  0.25500000000E-02 0.  1.
    8880023    1    1    2    0    0 -0.19126774348E+03  0.84457984057E+03  0.24781782522E+04  0.27064877818E+04  0.65864270000E+03 0.  0.
    8880022    1    1    2    0    0  0.19126774348E+03 -0.84457984057E+03  0.39808760154E+03  0.96527915564E+03  0.15294330000E+03 0.  1.
<mgrwt>
<rscale>  0 0.10315959E+04</rscale>
<asrwt>0</asrwt>
<pdfrwt beam="1">  1        2 0.50369481E+00 0.10879838E+04</pdfrwt>
<pdfrwt beam="2">  1       -2 0.61192393E-01 0.10879838E+04</pdfrwt>
<totfact> 0.29271540E+00</totfact>
</mgrwt>
</event>
<event>
 4    1  0.2665544E-007  0.7890640E+03  0.7818608E-02  0.9734961E-01
          2   -1    0    0  501    0  0.00000000000E+00  0.00000000000E+00  0.98449539348E+03  0.98449539348E+03  0.25500000000E-02 0. -1.
         -2   -1    0    0    0  501 -0.00000000000E+00 -0.00000000000E+00 -0.84175355211E+03  0.84175355211E+03  0.25500000000E-02 0.  1.
    8880023    1    1    2    0    0 -0.10076672111E+03 -0.42267931562E+03  0.73335372967E+03  0.10772323960E+04  0.65864270000E+03 0. -1.
    8880022    1    1    2    0    0  0.10076672111E+03  0.42267931562E+03 -0.59061188830E+03  0.74901654958E+03  0.15294330000E+03 0.  0.
<mgrwt>
<rscale>  0 0.68972854E+03</rscale>
<asrwt>0</asrwt>
<pdfrwt beam="1">  1        2 0.15146083E+00 0.78906397E+03</pdfrwt>
<pdfrwt beam="2">  1       -2 0.12950055E+00 0.78906397E+03</pdfrwt>
<totfact> 0.11447133E+01</totfact>
</mgrwt>
</event>
<event>
 4    1  0.3609106E-007  0.1170040E+04  0.7818608E-02  0.9186810E-01
          2   -1    0    0  501    0  0.00000000000E+00  0.00000000000E+00  0.35835851807E+04  0.35835851807E+04  0.25500000000E-02 0. -1.
         -2   -1    0    0    0  501 -0.00000000000E+00 -0.00000000000E+00 -0.18093129288E+04  0.18093129288E+04  0.25500000000E-02 0.  1.
    8880023    1    1    2    0    0  0.23434294477E+03  0.93822555597E+03  0.33440445598E+04  0.35428276890E+04  0.65864270000E+03 0.  0.
    8880022    1    1    2    0    0 -0.23434294477E+03 -0.93822555597E+03 -0.15697723078E+04  0.18500704206E+04  0.15294330000E+03 0.  0.
<mgrwt>
<rscale>  0 0.11190613E+04</rscale>
<asrwt>0</asrwt>
<pdfrwt beam="1">  1        2 0.55132080E+00 0.11700402E+04</pdfrwt>
<pdfrwt beam="2">  1       -2 0.27835584E+00 0.11700402E+04</pdfrwt>
<totfact> 0.30710328E-02</totfact>
</mgrwt>
</event>
<event>
 4    1  0.2665544E-007  0.1099603E+04  0.7818608E-02  0.9261498E-01
         -2   -1    0    0    0  501 -0.00000000000E+00  0.00000000000E+00  0.36934489268E+03  0.36934489269E+03  0.25500000000E-02 0.  1.
          2   -1    0    0  501    0  0.00000000000E+00 -0.00000000000E+00 -0.34220601007E+04  0.34220601007E+04  0.25500000000E-02 0. -1.
    8880023    1    1    2    0    0 -0.69038574941E+03 -0.54652075567E+03 -0.25237330604E+04  0.27528814333E+04  0.65864270000E+03 0. -1.
    8880022    1    1    2    0    0  0.69038574941E+03  0.54652075567E+03 -0.52898214764E+03  0.10385235601E+04  0.15294330000E+03 0.  0.
<mgrwt>
<rscale>  0 0.10440604E+04</rscale>
<asrwt>0</asrwt>
<pdfrwt beam="1">  1        2 0.52647076E+00 0.10996034E+04</pdfrwt>
<pdfrwt beam="2">  1       -2 0.56822294E-01 0.10996034E+04</pdfrwt>
<totfact> 0.27254312E+00</totfact>
</mgrwt>
</event>
<event>
 4    1  0.2665544E-007  0.8636772E+03  0.7818608E-02  0.9587056E-01
          2   -1    0    0  501    0  0.00000000000E+00  0.00000000000E+00  0.24234013354E+04  0.24234013354E+04  0.25500000000E-02 0. -1.
         -2   -1    0    0    0  501 -0.00000000000E+00 -0.00000000000E+00 -0.28711568768E+03  0.28711568769E+03  0.25500000000E-02 0.  1.
    8880023    1    1    2    0    0  0.16796542116E+03 -0.53283739202E+03  0.18959379985E+04  0.20833912665E+04  0.65864270000E+03 0. -1.
    8880022    1    1    2    0    0 -0.16796542116E+03  0.53283739202E+03  0.24034764923E+03  0.62712575656E+03  0.15294330000E+03 0.  0.
<mgrwt>
<rscale>  0 0.78158882E+03</rscale>
<asrwt>0</asrwt>
<pdfrwt beam="1">  1        2 0.37283098E+00 0.86367718E+03</pdfrwt>
<pdfrwt beam="2">  1       -2 0.44171643E-01 0.86367718E+03</pdfrwt>
<totfact> 0.19247845E+01</totfact>
</mgrwt>
</event>
<event>
 4    1  0.2665544E-007  0.7991818E+03  0.7818608E-02  0.9712568E-01
         -2   -1    0    0    0  501 -0.00000000000E+00  0.00000000000E+00  0.13488420500E+03  0.13488420503E+03  0.25500000000E-02 0.  1.
          2   -1    0    0  501    0  0.00000000000E+00 -0.00000000000E+00 -0.33713339941E+04  0.33713339941E+04  0.25500000000E-02 0. -1.
    8880023    1    1    2    0    0  0.43801779445E+03  0.11411307840E+03 -0.25311994817E+04  0.26543666675E+04  0.65864270000E+03 0. -1.
    8880022    1    1    2    0    0 -0.43801779445E+03 -0.11411307840E+03 -0.70525030742E+03  0.85185153169E+03  0.15294330000E+03 0.  0.
<mgrwt>
<rscale>  0 0.70273410E+03</rscale>
<asrwt>0</asrwt>
<pdfrwt beam="1">  1        2 0.51866670E+00 0.79918182E+03</pdfrwt>
<pdfrwt beam="2">  1       -2 0.20751419E-01 0.79918182E+03</pdfrwt>
<totfact> 0.21197165E+01</totfact>
</mgrwt>
</event>
<event>
 4    1  0.2665544E-007  0.2033795E+04  0.7818608E-02  0.8603168E-01
          2   -1    0    0  501    0  0.00000000000E+00  0.00000000000E+00  0.13814793336E+04  0.13814793336E+04  0.25500000000E-02 0. -1.
         -2   -1    0    0    0  501 -0.00000000000E+00 -0.00000000000E+00 -0.31786208053E+04  0.31786208053E+04  0.25500000000E-02 0.  1.
    8880023    1    1    2    0    0  0.70136625139E+03  0.17918143161E+04 -0.16595133403E+04  0.26249395984E+04  0.65864270000E+03 0.  0.
    8880022    1    1    2    0    0 -0.70136625139E+03 -0.17918143161E+04 -0.13762813135E+03  0.19351605405E+04  0.15294330000E+03 0.  0.
<mgrwt>
<rscale>  0 0.20074022E+04</rscale>
<asrwt>0</asrwt>
<pdfrwt beam="1">  1        2 0.21253528E+00 0.20337953E+04</pdfrwt>
<pdfrwt beam="2">  1       -2 0.48901858E+00 0.20337953E+04</pdfrwt>
<totfact> 0.25383885E-02</totfact>
</mgrwt>
</event>
<event>
 4    1  0.2665544E-007  0.8118435E+03  0.7818608E-02  0.9685750E-01
         -2   -1    0    0    0  501 -0.00000000000E+00  0.00000000000E+00  0.17264979535E+03  0.17264979537E+03  0.25500000000E-02 0.  1.
          2   -1    0    0  501    0  0.00000000000E+00 -0.00000000000E+00 -0.28306435484E+04  0.28306435484E+04  0.25500000000E-02 0. -1.
    8880023    1    1    2    0    0 -0.32654843242E+03  0.34445002242E+03 -0.10980188016E+04  0.13655530717E+04  0.65864270000E+03 0.  1.
    8880022    1    1    2    0    0  0.32654843242E+03 -0.34445002242E+03 -0.15599749515E+04  0.16377402722E+04  0.15294330000E+03 0.  0.
<mgrwt>
<rscale>  0 0.71871625E+03</rscale>
<asrwt>0</asrwt>
<pdfrwt beam="1">  1        2 0.43548359E+00 0.81184352E+03</pdfrwt>
<pdfrwt beam="2">  1       -2 0.26561509E-01 0.81184352E+03</pdfrwt>
<totfact> 0.29655509E+01</totfact>
</mgrwt>
</event>
<event>
 4    1  0.2665544E-007  0.9745169E+03  0.7818608E-02  0.9415684E-01
         -2   -1    0    0    0  501 -0.00000000000E+00  0.00000000000E+00  0.70244911140E+03  0.70244911140E+03  0.25500000000E-02 0.  1.
          2   -1    0    0  501    0  0.00000000000E+00 -0.00000000000E+00 -0.21982320183E+04  0.21982320183E+04  0.25500000000E-02 0. -1.
    8880023    1    1    2    0    0  0.63593789892E+03  0.33385011710E+03 -0.18457415007E+04  0.20872098135E+04  0.65864270000E+03 0.  0.
    8880022    1    1    2    0    0 -0.63593789892E+03 -0.33385011710E+03  0.34995859376E+03  0.81347131623E+03  0.15294330000E+03 0.  0.
<mgrwt>
<rscale>  0 0.90796113E+03</rscale>
<asrwt>0</asrwt>
<pdfrwt beam="1">  1        2 0.33818954E+00 0.97451686E+03</pdfrwt>
<pdfrwt beam="2">  1       -2 0.10806909E+00 0.97451686E+03</pdfrwt>
<totfact> 0.35712637E+00</totfact>
</mgrwt>
</event>
<event>
 4    1  0.2665544E-007  0.1020408E+04  0.7818608E-02  0.9355331E-01
          2   -1    0    0  501    0  0.00000000000E+00  0.00000000000E+00  0.34363490112E+04  0.34363490112E+04  0.25500000000E-02 0. -1.
         -2   -1    0    0    0  501 -0.00000000000E+00 -0.00000000000E+00 -0.37426507227E+03  0.37426507228E+03  0.25500000000E-02 0.  1.
    8880023    1    1    2    0    0 -0.73034719019E+02 -0.77594370323E+03  0.27905167752E+04  0.29712315258E+04  0.65864270000E+03 0. -1.
    8880022    1    1    2    0    0  0.73034719019E+02  0.77594370323E+03  0.27156716373E+03  0.83938255771E+03  0.15294330000E+03 0.  0.
<mgrwt>
<rscale>  0 0.95844711E+03</rscale>
<asrwt>0</asrwt>
<pdfrwt beam="1">  1        2 0.52866910E+00 0.10204082E+04</pdfrwt>
<pdfrwt beam="2">  1       -2 0.57579240E-01 0.10204082E+04</pdfrwt>
<totfact> 0.26230630E+00</totfact>
</mgrwt>
</event>
<event>
 4    1  0.2665544E-007  0.1570710E+04  0.7818608E-02  0.8861254E-01
         -2   -1    0    0    0  501 -0.00000000000E+00  0.00000000000E+00  0.95636786995E+03  0.95636786996E+03  0.25500000000E-02 0.  1.
          2   -1    0    0  501    0  0.00000000000E+00 -0.00000000000E+00 -0.34509674178E+04  0.34509674178E+04  0.25500000000E-02 0. -1.
    8880023    1    1    2    0    0  0.55964187988E+03 -0.13115336048E+04 -0.48058546531E+02  0.15714449594E+04  0.65864270000E+03 0.  0.
    8880022    1    1    2    0    0 -0.55964187988E+03  0.13115336048E+04 -0.24465410013E+04  0.28358903283E+04  0.15294330000E+03 0.  0.
<mgrwt>
<rscale>  0 0.15353898E+04</rscale>
<asrwt>0</asrwt>
<pdfrwt beam="1">  1        2 0.53091806E+00 0.15707099E+04</pdfrwt>
<pdfrwt beam="2">  1       -2 0.14713352E+00 0.15707099E+04</pdfrwt>
<totfact> 0.26198690E-01</totfact>
</mgrwt>
</event>
<event>
 4    1  0.4731163E-007  0.1429221E+04  0.7818608E-02  0.8961303E-01
         -2   -1    0    0    0  501 -0.00000000000E+00  0.00000000000E+00  0.19307237126E+04  0.19307237126E+04  0.25500000000E-02 0.  1.
          2   -1    0    0  501    0  0.00000000000E+00 -0.00000000000E+00 -0.28481300712E+04  0.28481300712E+04  0.25500000000E-02 0. -1.
    8880023    1    1    2    0    0 -0.10380756483E+04 -0.72887705610E+03 -0.24175382988E+04  0.28084095939E+04  0.65864270000E+03 0. -1.
    8880022    1    1    2    0    0  0.10380756483E+04  0.72887705610E+03  0.15001319402E+04  0.19704441899E+04  0.15294330000E+03 0.  0.
<mgrwt>
<rscale>  0 0.13897064E+04</rscale>
<asrwt>0</asrwt>
<pdfrwt beam="1">  1        2 0.43817386E+00 0.14292211E+04</pdfrwt>
<pdfrwt beam="2">  1       -2 0.29703442E+00 0.14292211E+04</pdfrwt>
<totfact> 0.68036559E-02</totfact>
</mgrwt>
</event>
<event>
 4    1  0.2665544E-007  0.7920974E+03  0.7818608E-02  0.9728151E-01
         -2   -1    0    0    0  501 -0.00000000000E+00  0.00000000000E+00  0.14958686344E+04  0.14958686344E+04  0.25500000000E-02 0.  1.
          2   -1    0    0  501    0  0.00000000000E+00 -0.00000000000E+00 -0.18888147014E+04  0.18888147014E+04  0.25500000000E-02 0. -1.
    8880023    1    1    2    0    0  0.28452394084E+03  0.33563991176E+03 -0.17656002419E+04  0.19351388694E+04  0.65864270000E+03 0.  0.
    8880022    1    1    2    0    0 -0.28452394084E+03 -0.33563991176E+03  0.13726541749E+04  0.14495444664E+04  0.15294330000E+03 0.  1.
<mgrwt>
<rscale>  0 0.69365147E+03</rscale>
<asrwt>0</asrwt>
<pdfrwt beam="1">  1        2 0.29058688E+00 0.79209736E+03</pdfrwt>
<pdfrwt beam="2">  1       -2 0.23013364E+00 0.79209736E+03</pdfrwt>
<totfact> 0.68196672E-01</totfact>
</mgrwt>
</event>
<event>
 4    1  0.2665544E-007  0.7375443E+03  0.7818608E-02  0.9867159E-01
          2   -1    0    0  501    0  0.00000000000E+00  0.00000000000E+00  0.23169060114E+04  0.23169060114E+04  0.25500000000E-02 0. -1.
         -2   -1    0    0    0  501 -0.00000000000E+00 -0.00000000000E+00 -0.27847068516E+03  0.27847068517E+03  0.25500000000E-02 0.  1.
    8880023    1    1    2    0    0 -0.23254322935E+03  0.23682292295E+03  0.20991214564E+04  0.22249230426E+04  0.65864270000E+03 0. -1.
    8880022    1    1    2    0    0  0.23254322935E+03 -0.23682292295E+03 -0.60686130175E+02  0.37045365400E+03  0.15294330000E+03 0.  0.
<mgrwt>
<rscale>  0 0.61879650E+03</rscale>
<asrwt>0</asrwt>
<pdfrwt beam="1">  1        2 0.35644708E+00 0.73754434E+03</pdfrwt>
<pdfrwt beam="2">  1       -2 0.42841643E-01 0.73754434E+03</pdfrwt>
<totfact> 0.23875157E+01</totfact>
</mgrwt>
</event>
<event>
 4    1  0.2665544E-007  0.8026268E+03  0.7818608E-02  0.9705145E-01
         -2   -1    0    0    0  501 -0.00000000000E+00  0.00000000000E+00  0.12100440727E+04  0.12100440727E+04  0.25500000000E-02 0.  1.
          2   -1    0    0  501    0  0.00000000000E+00 -0.00000000000E+00 -0.27463295300E+04  0.27463295300E+04  0.25500000000E-02 0. -1.
    8880023    1    1    2    0    0  0.24379151502E+03 -0.38854245107E+03 -0.26357702064E+04  0.27552666525E+04  0.65864270000E+03 0. -1.
    8880022    1    1    2    0    0 -0.24379151502E+03  0.38854245107E+03  0.10994847491E+04  0.12011069501E+04  0.15294330000E+03 0.  0.
<mgrwt>
<rscale>  0 0.70711289E+03</rscale>
<asrwt>0</asrwt>
<pdfrwt beam="1">  1        2 0.42251223E+00 0.80262678E+03</pdfrwt>
<pdfrwt beam="2">  1       -2 0.18616063E+00 0.80262678E+03</pdfrwt>
<totfact> 0.43105515E-01</totfact>
</mgrwt>
</event>
<event>
 4    1  0.2665544E-007  0.7402808E+03  0.7818608E-02  0.9859130E-01
         -2   -1    0    0    0  501 -0.00000000000E+00  0.00000000000E+00  0.23135299381E+03  0.23135299383E+03  0.25500000000E-02 0.  1.
          2   -1    0    0  501    0  0.00000000000E+00 -0.00000000000E+00 -0.13913137702E+04  0.13913137702E+04  0.25500000000E-02 0. -1.
    8880023    1    1    2    0    0 -0.17265151717E+02  0.33750162338E+03 -0.92009809534E+03  0.11809302022E+04  0.65864270000E+03 0.  0.
    8880022    1    1    2    0    0  0.17265151717E+02 -0.33750162338E+03 -0.23986268104E+03  0.44173656178E+03  0.15294330000E+03 0. -1.
<mgrwt>
<rscale>  0 0.62283572E+03</rscale>
<asrwt>0</asrwt>
<pdfrwt beam="1">  1        2 0.21404827E+00 0.74028078E+03</pdfrwt>
<pdfrwt beam="2">  1       -2 0.35592769E-01 0.74028078E+03</pdfrwt>
<totfact> 0.11045413E+02</totfact>
</mgrwt>
</event>
<event>
 4    1  0.2665544E-007  0.7446642E+03  0.7818608E-02  0.9846563E-01
          2   -1    0    0  501    0  0.00000000000E+00  0.00000000000E+00  0.25364145993E+04  0.25364145993E+04  0.25500000000E-02 0. -1.
         -2   -1    0    0    0  501 -0.00000000000E+00 -0.00000000000E+00 -0.44944468824E+03  0.44944468824E+03  0.25500000000E-02 0.  1.
    8880023    1    1    2    0    0  0.26020575930E+03 -0.23023371272E+03  0.23879754346E+04  0.25013899100E+04  0.65864270000E+03 0.  0.
    8880022    1    1    2    0    0 -0.26020575930E+03  0.23023371272E+03 -0.30100552345E+03  0.48446937757E+03  0.15294330000E+03 0.  0.
<mgrwt>
<rscale>  0 0.62922464E+03</rscale>
<asrwt>0</asrwt>
<pdfrwt beam="1">  1        2 0.39021764E+00 0.74466422E+03</pdfrwt>
<pdfrwt beam="2">  1       -2 0.69145336E-01 0.74466422E+03</pdfrwt>
<totfact> 0.66568513E+00</totfact>
</mgrwt>
</event>
<event>
 4    1  0.2665544E-007  0.1146127E+04  0.7818608E-02  0.9211357E-01
         -2   -1    0    0    0  501 -0.00000000000E+00  0.00000000000E+00  0.47878339997E+03  0.47878339997E+03  0.25500000000E-02 0.  1.
          2   -1    0    0  501    0  0.00000000000E+00 -0.00000000000E+00 -0.24952088983E+04  0.24952088983E+04  0.25500000000E-02 0. -1.
    8880023    1    1    2    0    0 -0.17243497858E+03 -0.92198894255E+03 -0.15143000386E+04  0.18991346042E+04  0.65864270000E+03 0.  0.
    8880022    1    1    2    0    0  0.17243497858E+03  0.92198894255E+03 -0.50212545976E+03  0.10748576940E+04  0.15294330000E+03 0.  0.
<mgrwt>
<rscale>  0 0.10936968E+04</rscale>
<asrwt>0</asrwt>
<pdfrwt beam="1">  1        2 0.38387829E+00 0.11461272E+04</pdfrwt>
<pdfrwt beam="2">  1       -2 0.73658986E-01 0.11461272E+04</pdfrwt>
<totfact> 0.57821379E+00</totfact>
</mgrwt>
</event>
<event>
 4    1  0.2690173E-007  0.1095478E+04  0.7818608E-02  0.9266107E-01
          2   -1    0    0  501    0  0.00000000000E+00  0.00000000000E+00  0.27873360470E+04  0.27873360470E+04  0.25500000000E-02 0. -1.
         -2   -1    0    0    0  501 -0.00000000000E+00 -0.00000000000E+00 -0.13565326931E+04  0.13565326931E+04  0.25500000000E-02 0.  1.
    8880023    1    1    2    0    0 -0.84606919571E+03  0.22456589461E+03  0.25142944967E+04  0.27425808916E+04  0.65864270000E+03 0. -1.
    8880022    1    1    2    0    0  0.84606919571E+03 -0.22456589461E+03 -0.10834911427E+04  0.14012878485E+04  0.15294330000E+03 0.  0.
<mgrwt>
<rscale>  0 0.10396389E+04</rscale>
<asrwt>0</asrwt>
<pdfrwt beam="1">  1        2 0.42882092E+00 0.10954785E+04</pdfrwt>
<pdfrwt beam="2">  1       -2 0.20869734E+00 0.10954785E+04</pdfrwt>
<totfact> 0.27372257E-01</totfact>
</mgrwt>
</event>
<event>
 4    1  0.2665544E-007  0.9502438E+03  0.7818608E-02  0.9449763E-01
         -2   -1    0    0    0  501 -0.00000000000E+00  0.00000000000E+00  0.62253268360E+03  0.62253268360E+03  0.25500000000E-02 0.  1.
          2   -1    0    0  501    0  0.00000000000E+00 -0.00000000000E+00 -0.31465557840E+04  0.31465557840E+04  0.25500000000E-02 0. -1.
    8880023    1    1    2    0    0 -0.42833175151E+03 -0.53449502279E+03 -0.28434291691E+04  0.29980081161E+04  0.65864270000E+03 0. -1.
    8880022    1    1    2    0    0  0.42833175151E+03  0.53449502279E+03  0.31940606864E+03  0.77108035148E+03  0.15294330000E+03 0.  0.
<mgrwt>
<rscale>  0 0.88091089E+03</rscale>
<asrwt>0</asrwt>
<pdfrwt beam="1">  1        2 0.48408550E+00 0.95024377E+03</pdfrwt>
<pdfrwt beam="2">  1       -2 0.95774261E-01 0.95024377E+03</pdfrwt>
<totfact> 0.13259785E+00</totfact>
</mgrwt>
</event>
<event>
 4    1  0.2665544E-007  0.9703282E+03  0.7818608E-02  0.9421450E-01
         -2   -1    0    0    0  501 -0.00000000000E+00  0.00000000000E+00  0.14218007844E+04  0.14218007844E+04  0.25500000000E-02 0.  1.
          2   -1    0    0  501    0  0.00000000000E+00 -0.00000000000E+00 -0.16546777723E+04  0.16546777723E+04  0.25500000000E-02 0. -1.
    8880023    1    1    2    0    0  0.60740144762E+03  0.37254539687E+03 -0.13982742652E+04  0.17019717149E+04  0.65864270000E+03 0. -1.
    8880022    1    1    2    0    0 -0.60740144762E+03 -0.37254539687E+03  0.11653972773E+04  0.13745068418E+04  0.15294330000E+03 0.  0.
<mgrwt>
<rscale>  0 0.90331223E+03</rscale>
<asrwt>0</asrwt>
<pdfrwt beam="1">  1        2 0.25456581E+00 0.97032819E+03</pdfrwt>
<pdfrwt beam="2">  1       -2 0.21873858E+00 0.97032819E+03</pdfrwt>
<totfact> 0.10469879E+00</totfact>
</mgrwt>
</event>
<event>
 4    1  0.2665544E-007  0.7183890E+03  0.7818608E-02  0.9928075E-01
         -2   -1    0    0    0  501 -0.00000000000E+00  0.00000000000E+00  0.26092818136E+03  0.26092818138E+03  0.25500000000E-02 0.  1.
          2   -1    0    0  501    0  0.00000000000E+00 -0.00000000000E+00 -0.22237789938E+04  0.22237789938E+04  0.25500000000E-02 0. -1.
    8880023    1    1    2    0    0  0.28322396079E+03  0.45351374189E+02 -0.20294915522E+04  0.21528861386E+04  0.65864270000E+03 0. -1.
    8880022    1    1    2    0    0 -0.28322396079E+03 -0.45351374189E+02  0.66640739752E+02  0.33182103658E+03  0.15294330000E+03 0.  0.
<mgrwt>
<rscale>  0 0.58919730E+03</rscale>
<asrwt>0</asrwt>
<pdfrwt beam="1">  1        2 0.34211983E+00 0.71838901E+03</pdfrwt>
<pdfrwt beam="2">  1       -2 0.40142799E-01 0.71838901E+03</pdfrwt>
<totfact> 0.30630740E+01</totfact>
</mgrwt>
</event>
<event>
 4    1  0.2665544E-007  0.1587198E+04  0.7818608E-02  0.8850397E-01
          2   -1    0    0  501    0  0.00000000000E+00  0.00000000000E+00  0.23215634318E+04  0.23215634318E+04  0.25500000000E-02 0. -1.
         -2   -1    0    0    0  501 -0.00000000000E+00 -0.00000000000E+00 -0.12943230672E+04  0.12943230672E+04  0.25500000000E-02 0.  1.
    8880023    1    1    2    0    0  0.85480744788E+03  0.11639119755E+04  0.14002555059E+04  0.21165803901E+04  0.65864270000E+03 0.  0.
    8880022    1    1    2    0    0 -0.85480744788E+03 -0.11639119755E+04 -0.37301514132E+03  0.14993061089E+04  0.15294330000E+03 0.  0.
<mgrwt>
<rscale>  0 0.15523054E+04</rscale>
<asrwt>0</asrwt>
<pdfrwt beam="1">  1        2 0.35716360E+00 0.15871979E+04</pdfrwt>
<pdfrwt beam="2">  1       -2 0.19912663E+00 0.15871979E+04</pdfrwt>
<totfact> 0.55292874E-01</totfact>
</mgrwt>
</event>
<event>
 4    1  0.2665544E-007  0.8576497E+03  0.7818608E-02  0.9597758E-01
          2   -1    0    0  501    0  0.00000000000E+00  0.00000000000E+00  0.88715598487E+03  0.88715598487E+03  0.25500000000E-02 0. -1.
         -2   -1    0    0    0  501 -0.00000000000E+00 -0.00000000000E+00 -0.71785241291E+03  0.71785241291E+03  0.25500000000E-02 0.  1.
    8880023    1    1    2    0    0 -0.12218526557E+03  0.53555916324E+03  0.45100630481E+03  0.96900451480E+03  0.65864270000E+03 0.  0.
    8880022    1    1    2    0    0  0.12218526557E+03 -0.53555916324E+03 -0.28170273285E+03  0.63600388298E+03  0.15294330000E+03 0.  0.
<mgrwt>
<rscale>  0 0.77444757E+03</rscale>
<asrwt>0</asrwt>
<pdfrwt beam="1">  1        2 0.13648554E+00 0.85764973E+03</pdfrwt>
<pdfrwt beam="2">  1       -2 0.11043883E+00 0.85764973E+03</pdfrwt>
<totfact> 0.19567156E+01</totfact>
</mgrwt>
</event>
<event>
 4    1  0.2665544E-007  0.2014297E+04  0.7818608E-02  0.8612429E-01
         -2   -1    0    0    0  501 -0.00000000000E+00  0.00000000000E+00  0.12913120608E+04  0.12913120608E+04  0.25500000000E-02 0.  1.
          2   -1    0    0  501    0  0.00000000000E+00 -0.00000000000E+00 -0.34014498811E+04  0.34014498811E+04  0.25500000000E-02 0. -1.
    8880023    1    1    2    0    0 -0.12575092003E+04 -0.14290740640E+04 -0.19043651494E+04  0.27720026872E+04  0.65864270000E+03 0.  0.
    8880022    1    1    2    0    0  0.12575092003E+04  0.14290740640E+04 -0.20577267093E+03  0.19207592547E+04  0.15294330000E+03 0.  0.
<mgrwt>
<rscale>  0 0.19876239E+04</rscale>
<asrwt>0</asrwt>
<pdfrwt beam="1">  1        2 0.52329998E+00 0.20142970E+04</pdfrwt>
<pdfrwt beam="2">  1       -2 0.19866340E+00 0.20142970E+04</pdfrwt>
<totfact> 0.11526780E-01</totfact>
</mgrwt>
</event>
<event>
 4    1  0.2665544E-007  0.1772527E+04  0.7818608E-02  0.8737888E-01
         -2   -1    0    0    0  501 -0.00000000000E+00  0.00000000000E+00  0.20771089550E+04  0.20771089550E+04  0.25500000000E-02 0.  1.
          2   -1    0    0  501    0  0.00000000000E+00 -0.00000000000E+00 -0.23617966570E+04  0.23617966570E+04  0.25500000000E-02 0. -1.
    8880023    1    1    2    0    0 -0.59499108529E+03 -0.15342841762E+04 -0.15522159472E+04  0.23561041739E+04  0.65864270000E+03 0.  0.
    8880022    1    1    2    0    0  0.59499108529E+03  0.15342841762E+04  0.12675282453E+04  0.20828014381E+04  0.15294330000E+03 0.  0.
<mgrwt>
<rscale>  0 0.17417809E+04</rscale>
<asrwt>0</asrwt>
<pdfrwt beam="1">  1        2 0.36335333E+00 0.17725272E+04</pdfrwt>
<pdfrwt beam="2">  1       -2 0.31955522E+00 0.17725272E+04</pdfrwt>
<totfact> 0.91451191E-02</totfact>
</mgrwt>
</event>
<event>
 4    1  0.2665544E-007  0.8878354E+03  0.7818608E-02  0.9545849E-01
          2   -1    0    0  501    0  0.00000000000E+00  0.00000000000E+00  0.16457984840E+04  0.16457984840E+04  0.25500000000E-02 0. -1.
         -2   -1    0    0    0  501 -0.00000000000E+00 -0.00000000000E+00 -0.77516034027E+03  0.77516034027E+03  0.25500000000E-02 0.  1.
    8880023    1    1    2    0    0 -0.59531818682E+03 -0.61413295451E+01  0.13675983380E+04  0.16305142992E+04  0.65864270000E+03 0.  0.
    8880022    1    1    2    0    0  0.59531818682E+03  0.61413295451E+01 -0.49696019429E+03  0.79044452507E+03  0.15294330000E+03 0.  0.
<mgrwt>
<rscale>  0 0.80986352E+03</rscale>
<asrwt>0</asrwt>
<pdfrwt beam="1">  1        2 0.25319977E+00 0.88783538E+03</pdfrwt>
<pdfrwt beam="2">  1       -2 0.11925544E+00 0.88783538E+03</pdfrwt>
<totfact> 0.57183509E+00</totfact>
</mgrwt>
</event>
<event>
 4    1  0.2665544E-007  0.7838923E+03  0.7818608E-02  0.9746772E-01
         -2   -1    0    0    0  501 -0.00000000000E+00  0.00000000000E+00  0.71799206014E+03  0.71799206014E+03  0.25500000000E-02 0.  1.
          2   -1    0    0  501    0  0.00000000000E+00 -0.00000000000E+00 -0.23443632310E+04  0.23443632310E+04  0.25500000000E-02 0. -1.
    8880023    1    1    2    0    0 -0.16717425416E+03  0.39080642466E+03 -0.21981015632E+04  0.23336961202E+04  0.65864270000E+03 0. -1.
    8880022    1    1    2    0    0  0.16717425416E+03 -0.39080642466E+03  0.57173039238E+03  0.72865917094E+03  0.15294330000E+03 0.  0.
<mgrwt>
<rscale>  0 0.68298992E+03</rscale>
<asrwt>0</asrwt>
<pdfrwt beam="1">  1        2 0.36067126E+00 0.78389228E+03</pdfrwt>
<pdfrwt beam="2">  1       -2 0.11046032E+00 0.78389228E+03</pdfrwt>
<totfact> 0.28918019E+00</totfact>
</mgrwt>
</event>
<event>
 4    1  0.2665544E-007  0.8386005E+03  0.7818608E-02  0.9632825E-01
          2   -1    0    0  501    0  0.00000000000E+00  0.00000000000E+00  0.32630109859E+04  0.32630109859E+04  0.25500000000E-02 0. -1.
         -2   -1    0    0    0  501 -0.00000000000E+00 -0.00000000000E+00 -0.62592687574E+03  0.62592687575E+03  0.25500000000E-02 0.  1.
    8880023    1    1    2    0    0  0.51000223910E+03  0.96635010643E+02  0.30784504257E+04  0.31906281261E+04  0.65864270000E+03 0.  0.
    8880022    1    1    2    0    0 -0.51000223910E+03 -0.96635010643E+02 -0.44136631559E+03  0.69830973552E+03  0.15294330000E+03 0.  0.
<mgrwt>
<rscale>  0 0.75161200E+03</rscale>
<asrwt>0</asrwt>
<pdfrwt beam="1">  1        2 0.50200168E+00 0.83860051E+03</pdfrwt>
<pdfrwt beam="2">  1       -2 0.96296444E-01 0.83860051E+03</pdfrwt>
<totfact> 0.11258332E+00</totfact>
</mgrwt>
</event>
<event>
 4    1  0.2665544E-007  0.6605897E+03  0.7818608E-02  0.1023560E+00
         -2   -1    0    0    0  501 -0.00000000000E+00  0.00000000000E+00  0.21871651179E+03  0.21871651180E+03  0.25500000000E-02 0.  1.
          2   -1    0    0  501    0  0.00000000000E+00 -0.00000000000E+00 -0.14935620818E+04  0.14935620818E+04  0.25500000000E-02 0. -1.
    8880023    1    1    2    0    0 -0.18644580802E+02  0.47126706168E+02 -0.13729747299E+04  0.15236267135E+04  0.65864270000E+03 0. -1.
    8880022    1    1    2    0    0  0.18644580802E+02 -0.47126706168E+02  0.98129159905E+02  0.18865188010E+03  0.15294330000E+03 0.  0.
<mgrwt>
<rscale>  0 0.46423444E+03</rscale>
<asrwt>0</asrwt>
<pdfrwt beam="1">  1        2 0.22977877E+00 0.66058970E+03</pdfrwt>
<pdfrwt beam="2">  1       -2 0.33648695E-01 0.66058970E+03</pdfrwt>
<totfact> 0.10850110E+02</totfact>
</mgrwt>
</event>
<event>
 4    1  0.2665544E-007  0.1330183E+04  0.7818608E-02  0.9039923E-01
         -2   -1    0    0    0  501 -0.00000000000E+00  0.00000000000E+00  0.12963306142E+04  0.12963306142E+04  0.25500000000E-02 0.  1.
          2   -1    0    0  501    0  0.00000000000E+00 -0.00000000000E+00 -0.15209441031E+04  0.15209441031E+04  0.25500000000E-02 0. -1.
    8880023    1    1    2    0    0  0.11485587715E+04  0.12802426155E+03 -0.76270401245E+03  0.15333313666E+04  0.65864270000E+03 0.  0.
    8880022    1    1    2    0    0 -0.11485587715E+04 -0.12802426155E+03  0.53809052364E+03  0.12839433507E+04  0.15294330000E+03 0.  0.
<mgrwt>
<rscale>  0 0.12870186E+04</rscale>
<asrwt>0</asrwt>
<pdfrwt beam="1">  1        2 0.23399140E+00 0.13301833E+04</pdfrwt>
<pdfrwt beam="2">  1       -2 0.19943548E+00 0.13301833E+04</pdfrwt>
<totfact> 0.15858735E+00</totfact>
</mgrwt>
</event>
<event>
 4    1  0.2665544E-007  0.1943670E+04  0.7818608E-02  0.8646968E-01
          2   -1    0    0  501    0  0.00000000000E+00  0.00000000000E+00  0.13772588168E+04  0.13772588168E+04  0.25500000000E-02 0. -1.
         -2   -1    0    0    0  501 -0.00000000000E+00 -0.00000000000E+00 -0.28504156249E+04  0.28504156249E+04  0.25500000000E-02 0.  1.
    8880023    1    1    2    0    0 -0.15471057820E+03  0.18221160442E+04 -0.11945676276E+03  0.19473372502E+04  0.65864270000E+03 0.  0.
    8880022    1    1    2    0    0  0.15471057820E+03 -0.18221160442E+04 -0.13537000452E+04  0.22803371915E+04  0.15294330000E+03 0.  0.
<mgrwt>
<rscale>  0 0.19159283E+04</rscale>
<asrwt>0</asrwt>
<pdfrwt beam="1">  1        2 0.21188597E+00 0.19436698E+04</pdfrwt>
<pdfrwt beam="2">  1       -2 0.43852548E+00 0.19436698E+04</pdfrwt>
<totfact> 0.55392363E-02</totfact>
</mgrwt>
</event>
<event>
 4    1  0.2665544E-007  0.7321938E+03  0.7818608E-02  0.9883299E-01
         -2   -1    0    0    0  501 -0.00000000000E+00  0.00000000000E+00  0.46807891504E+03  0.46807891505E+03  0.25500000000E-02 0.  1.
          2   -1    0    0  501    0  0.00000000000E+00 -0.00000000000E+00 -0.11039394234E+04  0.11039394234E+04  0.25500000000E-02 0. -1.
    8880023    1    1    2    0    0 -0.15545105240E+03 -0.27952204595E+03 -0.87759067224E+03  0.11429230937E+04  0.65864270000E+03 0. -1.
    8880022    1    1    2    0    0  0.15545105240E+03  0.27952204595E+03  0.24173016392E+03  0.42909524471E+03  0.15294330000E+03 0.  0.
<mgrwt>
<rscale>  0 0.61077580E+03</rscale>
<asrwt>0</asrwt>
<pdfrwt beam="1">  1        2 0.16983683E+00 0.73219383E+03</pdfrwt>
<pdfrwt beam="2">  1       -2 0.72012141E-01 0.73219383E+03</pdfrwt>
<totfact> 0.38557741E+01</totfact>
</mgrwt>
</event>
<event>
 4    1  0.2665544E-007  0.8778787E+03  0.7818608E-02  0.9562519E-01
         -2   -1    0    0    0  501 -0.00000000000E+00  0.00000000000E+00  0.60261965362E+03  0.60261965362E+03  0.25500000000E-02 0.  1.
          2   -1    0    0  501    0  0.00000000000E+00 -0.00000000000E+00 -0.14414473855E+04  0.14414473855E+04  0.25500000000E-02 0. -1.
    8880023    1    1    2    0    0  0.44002881704E+03  0.37846468335E+03 -0.10847099169E+04  0.13954449779E+04  0.65864270000E+03 0. -1.
    8880022    1    1    2    0    0 -0.44002881704E+03 -0.37846468335E+03  0.24588218500E+03  0.64862206121E+03  0.15294330000E+03 0.  0.
<mgrwt>
<rscale>  0 0.79827362E+03</rscale>
<asrwt>0</asrwt>
<pdfrwt beam="1">  1        2 0.22176114E+00 0.87787874E+03</pdfrwt>
<pdfrwt beam="2">  1       -2 0.92710716E-01 0.87787874E+03</pdfrwt>
<totfact> 0.13627756E+01</totfact>
</mgrwt>
</event>
<event>
 4    1  0.2665544E-007  0.7608028E+03  0.7818608E-02  0.9803033E-01
         -2   -1    0    0    0  501 -0.00000000000E+00  0.00000000000E+00  0.29420120134E+03  0.29420120135E+03  0.25500000000E-02 0.  1.
          2   -1    0    0  501    0  0.00000000000E+00 -0.00000000000E+00 -0.13394975577E+04  0.13394975577E+04  0.25500000000E-02 0. -1.
    8880023    1    1    2    0    0 -0.31847342854E+03 -0.20877118215E+03 -0.94137701246E+03  0.12103766426E+04  0.65864270000E+03 0. -1.
    8880022    1    1    2    0    0  0.31847342854E+03  0.20877118215E+03 -0.10391934387E+03  0.42332211639E+03  0.15294330000E+03 0.  0.
<mgrwt>
<rscale>  0 0.65200003E+03</rscale>
<asrwt>0</asrwt>
<pdfrwt beam="1">  1        2 0.20607654E+00 0.76080282E+03</pdfrwt>
<pdfrwt beam="2">  1       -2 0.45261724E-01 0.76080282E+03</pdfrwt>
<totfact> 0.73815426E+01</totfact>
</mgrwt>
</event>
<event>
 4    1  0.2665544E-007  0.1257974E+04  0.7818608E-02  0.9102729E-01
         -2   -1    0    0    0  501 -0.00000000000E+00  0.00000000000E+00  0.28466010721E+04  0.28466010721E+04  0.25500000000E-02 0.  1.
          2   -1    0    0  501    0  0.00000000000E+00 -0.00000000000E+00 -0.73148793126E+03  0.73148793127E+03  0.25500000000E-02 0. -1.
    8880023    1    1    2    0    0 -0.10577083832E+04 -0.17303925175E+03  0.64973595438E+02  0.12596512934E+04  0.65864270000E+03 0.  0.
    8880022    1    1    2    0    0  0.10577083832E+04  0.17303925175E+03  0.20501395454E+04  0.23184377100E+04  0.15294330000E+03 0.  0.
<mgrwt>
<rscale>  0 0.12116400E+04</rscale>
<asrwt>0</asrwt>
<pdfrwt beam="1">  1        2 0.11253661E+00 0.12579745E+04</pdfrwt>
<pdfrwt beam="2">  1       -2 0.43793862E+00 0.12579745E+04</pdfrwt>
<totfact> 0.15863870E-01</totfact>
</mgrwt>
</event>
<event>
 4    1  0.2665544E-007  0.7743125E+03  0.7818608E-02  0.9769371E-01
         -2   -1    0    0    0  501 -0.00000000000E+00  0.00000000000E+00  0.35287092409E+03  0.35287092410E+03  0.25500000000E-02 0.  1.
          2   -1    0    0  501    0  0.00000000000E+00 -0.00000000000E+00 -0.35448364502E+04  0.35448364502E+04  0.25500000000E-02 0. -1.
    8880023    1    1    2    0    0  0.30036030915E+03  0.27483324162E+03 -0.33474556239E+04  0.34358432715E+04  0.65864270000E+03 0.  0.
    8880022    1    1    2    0    0 -0.30036030915E+03 -0.27483324162E+03  0.15549009773E+03  0.46186410287E+03  0.15294330000E+03 0.  0.
<mgrwt>
<rscale>  0 0.67032511E+03</rscale>
<asrwt>0</asrwt>
<pdfrwt beam="1">  1        2 0.54535943E+00 0.77431249E+03</pdfrwt>
<pdfrwt beam="2">  1       -2 0.54287837E-01 0.77431249E+03</pdfrwt>
<totfact> 0.26147211E+00</totfact>
</mgrwt>
</event>
<event>
 4    1  0.2665544E-007  0.1464633E+04  0.7818608E-02  0.8935022E-01
         -2   -1    0    0    0  501 -0.00000000000E+00  0.00000000000E+00  0.91897216294E+03  0.91897216295E+03  0.25500000000E-02 0.  1.
          2   -1    0    0  501    0  0.00000000000E+00 -0.00000000000E+00 -0.37902003623E+04  0.37902003623E+04  0.25500000000E-02 0. -1.
    8880023    1    1    2    0    0 -0.14874549897E+03  0.12996980654E+04 -0.30466804101E+04  0.33804455345E+04  0.65864270000E+03 0. -1.
    8880022    1    1    2    0    0  0.14874549897E+03 -0.12996980654E+04  0.17545221072E+03  0.13287269907E+04  0.15294330000E+03 0.  0.
<mgrwt>
<rscale>  0 0.14262666E+04</rscale>
<asrwt>0</asrwt>
<pdfrwt beam="1">  1        2 0.58310774E+00 0.14646332E+04</pdfrwt>
<pdfrwt beam="2">  1       -2 0.14138034E+00 0.14646332E+04</pdfrwt>
<totfact> 0.16849810E-01</totfact>
</mgrwt>
</event>
<event>
 4    1  0.2665544E-007  0.7843311E+03  0.7818608E-02  0.9745760E-01
          2   -1    0    0  501    0  0.00000000000E+00  0.00000000000E+00  0.33530888885E+04  0.33530888885E+04  0.25500000000E-02 0. -1.
         -2   -1    0    0    0  501 -0.00000000000E+00 -0.00000000000E+00 -0.32690145362E+03  0.32690145363E+03  0.25500000000E-02 0.  1.
    8880023    1    1    2    0    0  0.30990523297E+03 -0.29210248363E+03  0.31206747716E+04  0.32177299997E+04  0.65864270000E+03 0. -1.
    8880022    1    1    2    0    0 -0.30990523297E+03  0.29210248363E+03 -0.94487336751E+02  0.46226034243E+03  0.15294330000E+03 0.  0.
<mgrwt>
<rscale>  0 0.68356430E+03</rscale>
<asrwt>0</asrwt>
<pdfrwt beam="1">  1        2 0.51585983E+00 0.78433113E+03</pdfrwt>
<pdfrwt beam="2">  1       -2 0.50292531E-01 0.78433113E+03</pdfrwt>
<totfact> 0.41124948E+00</totfact>
</mgrwt>
</event>
<event>
 4    1  0.3453365E-007  0.1436308E+04  0.7818608E-02  0.8955972E-01
         -2   -1    0    0    0  501 -0.00000000000E+00  0.00000000000E+00  0.14988860444E+04  0.14988860444E+04  0.25500000000E-02 0.  1.
          2   -1    0    0  501    0  0.00000000000E+00 -0.00000000000E+00 -0.33458688347E+04  0.33458688347E+04  0.25500000000E-02 0. -1.
    8880023    1    1    2    0    0  0.71424168047E+03 -0.10578423753E+04 -0.28650588363E+04  0.32049249618E+04  0.65864270000E+03 0.  0.
    8880022    1    1    2    0    0 -0.71424168047E+03  0.10578423753E+04  0.10180760461E+04  0.16398299173E+04  0.15294330000E+03 0.  0.
<mgrwt>
<rscale>  0 0.13970294E+04</rscale>
<asrwt>0</asrwt>
<pdfrwt beam="1">  1        2 0.51474905E+00 0.14363084E+04</pdfrwt>
<pdfrwt beam="2">  1       -2 0.23059785E+00 0.14363084E+04</pdfrwt>
<totfact> 0.83836576E-02</totfact>
</mgrwt>
</event>
<event>
 4    1  0.2665544E-007  0.7624313E+03  0.7818608E-02  0.9798853E-01
          2   -1    0    0  501    0  0.00000000000E+00  0.00000000000E+00  0.14641213763E+04  0.14641213763E+04  0.25500000000E-02 0. -1.
         -2   -1    0    0    0  501 -0.00000000000E+00 -0.00000000000E+00 -0.18796702199E+04  0.18796702199E+04  0.25500000000E-02 0.  1.
    8880023    1    1    2    0    0 -0.24052745922E+03 -0.29939574865E+03  0.13391911016E+04  0.15410172893E+04  0.65864270000E+03 0. -1.
    8880022    1    1    2    0    0  0.24052745922E+03  0.29939574865E+03 -0.17547399453E+04  0.18027743069E+04  0.15294330000E+03 0.  0.
<mgrwt>
<rscale>  0 0.65424117E+03</rscale>
<asrwt>0</asrwt>
<pdfrwt beam="1">  1        2 0.22524944E+00 0.76243129E+03</pdfrwt>
<pdfrwt beam="2">  1       -2 0.28918004E+00 0.76243129E+03</pdfrwt>
<totfact> 0.51623237E-01</totfact>
</mgrwt>
</event>
<event>
 4    1  0.2665544E-007  0.7831577E+03  0.7818608E-02  0.9748471E-01
          2   -1    0    0  501    0  0.00000000000E+00  0.00000000000E+00  0.26634518708E+04  0.26634518708E+04  0.25500000000E-02 0. -1.
         -2   -1    0    0    0  501 -0.00000000000E+00 -0.00000000000E+00 -0.31542944526E+03  0.31542944527E+03  0.25500000000E-02 0.  1.
    8880023    1    1    2    0    0  0.12768114483E+03  0.40400911893E+03  0.24008273438E+04  0.25253332422E+04  0.65864270000E+03 0. -1.
    8880022    1    1    2    0    0 -0.12768114483E+03 -0.40400911893E+03 -0.52804918288E+02  0.45354807390E+03  0.15294330000E+03 0.  0.
<mgrwt>
<rscale>  0 0.68202748E+03</rscale>
<asrwt>0</asrwt>
<pdfrwt beam="1">  1        2 0.40976182E+00 0.78315774E+03</pdfrwt>
<pdfrwt beam="2">  1       -2 0.48527607E-01 0.78315774E+03</pdfrwt>
<totfact> 0.11754455E+01</totfact>
</mgrwt>
</event>
<event>
 4    1  0.2665544E-007  0.1402631E+04  0.7818608E-02  0.8981641E-01
         -2   -1    0    0    0  501 -0.00000000000E+00  0.00000000000E+00  0.18744971079E+04  0.18744971079E+04  0.25500000000E-02 0.  1.
          2   -1    0    0  501    0  0.00000000000E+00 -0.00000000000E+00 -0.12645392592E+04  0.12645392592E+04  0.25500000000E-02 0. -1.
    8880023    1    1    2    0    0 -0.70069794042E+03 -0.10210709455E+04  0.11161102999E+04  0.17925054776E+04  0.65864270000E+03 0.  0.
    8880022    1    1    2    0    0  0.70069794042E+03  0.10210709455E+04 -0.50615245117E+03  0.13465308895E+04  0.15294330000E+03 0.  0.
<mgrwt>
<rscale>  0 0.13622038E+04</rscale>
<asrwt>0</asrwt>
<pdfrwt beam="1">  1        2 0.19454450E+00 0.14026310E+04</pdfrwt>
<pdfrwt beam="2">  1       -2 0.28838417E+00 0.14026310E+04</pdfrwt>
<totfact> 0.61852709E-01</totfact>
</mgrwt>
</event>
<event>
 4    1  0.2665544E-007  0.1029374E+04  0.7818608E-02  0.9344097E-01
          2   -1    0    0  501    0  0.00000000000E+00  0.00000000000E+00  0.26579747936E+04  0.26579747936E+04  0.25500000000E-02 0. -1.
         -2   -1    0    0    0  501 -0.00000000000E+00 -0.00000000000E+00 -0.86055266046E+03  0.86055266046E+03  0.25500000000E-02 0.  1.
    8880023    1    1    2    0    0 -0.62612244962E+03 -0.48349985687E+03 -0.45565565405E+03  0.11257147573E+04  0.65864270000E+03 0.  1.
    8880022    1    1    2    0    0  0.62612244962E+03  0.48349985687E+03  0.22530777872E+04  0.23928126968E+04  0.15294330000E+03 0.  0.
<mgrwt>
<rscale>  0 0.96822603E+03</rscale>
<asrwt>0</asrwt>
<pdfrwt beam="1">  1        2 0.40891920E+00 0.10293744E+04</pdfrwt>
<pdfrwt beam="2">  1       -2 0.13239272E+00 0.10293744E+04</pdfrwt>
<totfact> 0.11720721E+00</totfact>
</mgrwt>
</event>
<event>
 4    1  0.2665544E-007  0.9337166E+03  0.7818608E-02  0.9473940E-01
          2   -1    0    0  501    0  0.00000000000E+00  0.00000000000E+00  0.12407990745E+04  0.12407990745E+04  0.25500000000E-02 0. -1.
         -2   -1    0    0    0  501 -0.00000000000E+00 -0.00000000000E+00 -0.82255261859E+03  0.82255261859E+03  0.25500000000E-02 0.  1.
    8880023    1    1    2    0    0 -0.19865142536E+03  0.63131144915E+03  0.84653191917E+03  0.12603344917E+04  0.65864270000E+03 0.  0.
    8880022    1    1    2    0    0  0.19865142536E+03 -0.63131144915E+03 -0.42828546325E+03  0.80301720136E+03  0.15294330000E+03 0.  0.
<mgrwt>
<rscale>  0 0.86232699E+03</rscale>
<asrwt>0</asrwt>
<pdfrwt beam="1">  1        2 0.19089217E+00 0.93371663E+03</pdfrwt>
<pdfrwt beam="2">  1       -2 0.12654656E+00 0.93371663E+03</pdfrwt>
<totfact> 0.83184160E+00</totfact>
</mgrwt>
</event>
<event>
 4    1  0.2665544E-007  0.6800203E+03  0.7818608E-02  0.1009312E+00
         -2   -1    0    0    0  501 -0.00000000000E+00  0.00000000000E+00  0.24391801317E+03  0.24391801318E+03  0.25500000000E-02 0.  1.
          2   -1    0    0  501    0  0.00000000000E+00 -0.00000000000E+00 -0.20672811821E+04  0.20672811821E+04  0.25500000000E-02 0. -1.
    8880023    1    1    2    0    0  0.15828280893E+03 -0.59699278369E+02 -0.19395121916E+04  0.20552701037E+04  0.65864270000E+03 0. -1.
    8880022    1    1    2    0    0 -0.15828280893E+03  0.59699278369E+02  0.11614902269E+03  0.25592909160E+03  0.15294330000E+03 0.  0.
<mgrwt>
<rscale>  0 0.51748927E+03</rscale>
<asrwt>0</asrwt>
<pdfrwt beam="1">  1        2 0.31804325E+00 0.68002034E+03</pdfrwt>
<pdfrwt beam="2">  1       -2 0.37525850E-01 0.68002034E+03</pdfrwt>
<totfact> 0.42759611E+01</totfact>
</mgrwt>
</event>
<event>
 4    1  0.2665544E-007  0.1011824E+04  0.7818608E-02  0.9366249E-01
         -2   -1    0    0    0  501 -0.00000000000E+00  0.00000000000E+00  0.14876156549E+04  0.14876156549E+04  0.25500000000E-02 0.  1.
          2   -1    0    0  501    0  0.00000000000E+00 -0.00000000000E+00 -0.18479021507E+04  0.18479021507E+04  0.25500000000E-02 0. -1.
    8880023    1    1    2    0    0 -0.71311692390E+03  0.28538042179E+03 -0.15858140430E+04  0.18811151261E+04  0.65864270000E+03 0.  0.
    8880022    1    1    2    0    0  0.71311692390E+03 -0.28538042179E+03  0.12255275472E+04  0.14544026795E+04  0.15294330000E+03 0.  0.
<mgrwt>
<rscale>  0 0.94906076E+03</rscale>
<asrwt>0</asrwt>
<pdfrwt beam="1">  1        2 0.28429264E+00 0.10118241E+04</pdfrwt>
<pdfrwt beam="2">  1       -2 0.22886395E+00 0.10118241E+04</pdfrwt>
<totfact> 0.70344016E-01</totfact>
</mgrwt>
</event>
<event>
 4    1  0.2665544E-007  0.8167996E+03  0.7818608E-02  0.9675584E-01
         -2   -1    0    0    0  501 -0.00000000000E+00  0.00000000000E+00  0.38122982647E+03  0.38122982648E+03  0.25500000000E-02 0.  1.
          2   -1    0    0  501    0  0.00000000000E+00 -0.00000000000E+00 -0.28697121711E+04  0.28697121711E+04  0.25500000000E-02 0. -1.
    8880023    1    1    2    0    0 -0.37428890361E+03  0.30538365643E+03 -0.26058201773E+04  0.27308351037E+04  0.65864270000E+03 0. -1.
    8880022    1    1    2    0    0  0.37428890361E+03 -0.30538365643E+03  0.11733783273E+03  0.52010689381E+03  0.15294330000E+03 0.  0.
<mgrwt>
<rscale>  0 0.72489309E+03</rscale>
<asrwt>0</asrwt>
<pdfrwt beam="1">  1        2 0.44149417E+00 0.81679959E+03</pdfrwt>
<pdfrwt beam="2">  1       -2 0.58650744E-01 0.81679959E+03</pdfrwt>
<totfact> 0.59754622E+00</totfact>
</mgrwt>
</event>
<event>
 4    1  0.2665544E-007  0.6978761E+03  0.7818608E-02  0.1000613E+00
         -2   -1    0    0    0  501 -0.00000000000E+00  0.00000000000E+00  0.38755669136E+03  0.38755669137E+03  0.25500000000E-02 0.  1.
          2   -1    0    0  501    0  0.00000000000E+00 -0.00000000000E+00 -0.86836462604E+03  0.86836462605E+03  0.25500000000E-02 0. -1.
    8880023    1    1    2    0    0  0.21635281126E+03  0.80076580839E+02 -0.63114116447E+03  0.94094111053E+03  0.65864270000E+03 0.  0.
    8880022    1    1    2    0    0 -0.21635281126E+03 -0.80076580839E+02  0.15033322979E+03  0.31498020689E+03  0.15294330000E+03 0.  0.
<mgrwt>
<rscale>  0 0.55382320E+03</rscale>
<asrwt>0</asrwt>
<pdfrwt beam="1">  1        2 0.13359456E+00 0.69787607E+03</pdfrwt>
<pdfrwt beam="2">  1       -2 0.59624106E-01 0.69787607E+03</pdfrwt>
<totfact> 0.82284534E+01</totfact>
</mgrwt>
</event>
<event>
 4    1  0.2665544E-007  0.6648560E+03  0.7818608E-02  0.1019655E+00
         -2   -1    0    0    0  501 -0.00000000000E+00  0.00000000000E+00  0.12141085216E+03  0.12141085219E+03  0.25500000000E-02 0.  1.
          2   -1    0    0  501    0  0.00000000000E+00 -0.00000000000E+00 -0.18313584242E+04  0.18313584242E+04  0.25500000000E-02 0. -1.
    8880023    1    1    2    0    0  0.48204954985E+02  0.76808814218E+02 -0.16249255061E+04  0.17556811835E+04  0.65864270000E+03 0. -1.
    8880022    1    1    2    0    0 -0.48204954985E+02 -0.76808814218E+02 -0.85022065921E+02  0.19708809283E+03  0.15294330000E+03 0.  1.
<mgrwt>
<rscale>  0 0.47811491E+03</rscale>
<asrwt>0</asrwt>
<pdfrwt beam="1">  1        2 0.28174743E+00 0.66485601E+03</pdfrwt>
<pdfrwt beam="2">  1       -2 0.18678594E-01 0.66485601E+03</pdfrwt>
<totfact> 0.20495700E+02</totfact>
</mgrwt>
</event>
<event>
 4    1  0.2665544E-007  0.1268520E+04  0.7818608E-02  0.9093233E-01
          2   -1    0    0  501    0  0.00000000000E+00  0.00000000000E+00  0.41213291466E+04  0.41213291466E+04  0.25500000000E-02 0. -1.
         -2   -1    0    0    0  501 -0.00000000000E+00 -0.00000000000E+00 -0.53850600032E+03  0.53850600032E+03  0.25500000000E-02 0.  1.
    8880023    1    1    2    0    0  0.10283827737E+04 -0.34316314202E+03  0.32906083939E+04  0.35266479665E+04  0.65864270000E+03 0.  0.
    8880022    1    1    2    0    0 -0.10283827737E+04  0.34316314202E+03  0.29221475237E+03  0.11331871804E+04  0.15294330000E+03 0.  0.
<mgrwt>
<rscale>  0 0.12226800E+04</rscale>
<asrwt>0</asrwt>
<pdfrwt beam="1">  1        2 0.63405065E+00 0.12685197E+04</pdfrwt>
<pdfrwt beam="2">  1       -2 0.82847075E-01 0.12685197E+04</pdfrwt>
<totfact> 0.34980645E-01</totfact>
</mgrwt>
</event>
<event>
 4    1  0.2665544E-007  0.9689555E+03  0.7818608E-02  0.9423350E-01
         -2   -1    0    0    0  501 -0.00000000000E+00  0.00000000000E+00  0.61433195012E+03  0.61433195013E+03  0.25500000000E-02 0.  1.
          2   -1    0    0  501    0  0.00000000000E+00 -0.00000000000E+00 -0.13408244592E+04  0.13408244592E+04  0.25500000000E-02 0. -1.
    8880023    1    1    2    0    0  0.39324420729E+03 -0.59196578165E+03 -0.75388933162E+03  0.12276904430E+04  0.65864270000E+03 0. -1.
    8880022    1    1    2    0    0 -0.39324420729E+03  0.59196578165E+03  0.27396822592E+02  0.72746596629E+03  0.15294330000E+03 0.  0.
<mgrwt>
<rscale>  0 0.90178703E+03</rscale>
<asrwt>0</asrwt>
<pdfrwt beam="1">  1        2 0.20628068E+00 0.96895547E+03</pdfrwt>
<pdfrwt beam="2">  1       -2 0.94512608E-01 0.96895547E+03</pdfrwt>
<totfact> 0.14733437E+01</totfact>
</mgrwt>
</event>
<event>
 4    1  0.2665544E-007  0.7441394E+03  0.7818608E-02  0.9848049E-01
         -2   -1    0    0    0  501 -0.00000000000E+00  0.00000000000E+00  0.17276705998E+03  0.17276705999E+03  0.25500000000E-02 0.  1.
          2   -1    0    0  501    0  0.00000000000E+00 -0.00000000000E+00 -0.30530335397E+04  0.30530335397E+04  0.25500000000E-02 0. -1.
    8880023    1    1    2    0    0 -0.14101739655E+03 -0.31630254163E+03 -0.27106873122E+04  0.28109729836E+04  0.65864270000E+03 0. -1.
    8880022    1    1    2    0    0  0.14101739655E+03  0.31630254163E+03 -0.16957916754E+03  0.41482761607E+03  0.15294330000E+03 0.  0.
<mgrwt>
<rscale>  0 0.62846472E+03</rscale>
<asrwt>0</asrwt>
<pdfrwt beam="1">  1        2 0.46969743E+00 0.74413938E+03</pdfrwt>
<pdfrwt beam="2">  1       -2 0.26579550E-01 0.74413938E+03</pdfrwt>
<totfact> 0.21939319E+01</totfact>
</mgrwt>
</event>
<event>
 4    1  0.2665544E-007  0.1075756E+04  0.7818608E-02  0.9288541E-01
         -2   -1    0    0    0  501 -0.00000000000E+00  0.00000000000E+00  0.12346197288E+04  0.12346197288E+04  0.25500000000E-02 0.  1.
          2   -1    0    0  501    0  0.00000000000E+00 -0.00000000000E+00 -0.88790272649E+03  0.88790272649E+03  0.25500000000E-02 0. -1.
    8880023    1    1    2    0    0  0.83424541837E+03  0.16575564477E+03 -0.20790832548E+03  0.10956625529E+04  0.65864270000E+03 0. -1.
    8880022    1    1    2    0    0 -0.83424541837E+03 -0.16575564477E+03  0.55462532782E+03  0.10268599024E+04  0.15294330000E+03 0.  1.
<mgrwt>
<rscale>  0 0.10184463E+04</rscale>
<asrwt>0</asrwt>
<pdfrwt beam="1">  1        2 0.13660042E+00 0.10757558E+04</pdfrwt>
<pdfrwt beam="2">  1       -2 0.18994150E+00 0.10757558E+04</pdfrwt>
<totfact> 0.45649773E+00</totfact>
</mgrwt>
</event>
<event>
 4    1  0.2665544E-007  0.6707285E+03  0.7818608E-02  0.1015146E+00
         -2   -1    0    0    0  501 -0.00000000000E+00  0.00000000000E+00  0.20062344768E+03  0.20062344770E+03  0.25500000000E-02 0.  1.
          2   -1    0    0  501    0  0.00000000000E+00 -0.00000000000E+00 -0.42850594678E+04  0.42850594678E+04  0.25500000000E-02 0. -1.
    8880023    1    1    2    0    0  0.44649918303E+02  0.11862931344E+03 -0.42017760669E+04  0.42549734255E+04  0.65864270000E+03 0. -1.
    8880022    1    1    2    0    0 -0.44649918303E+02 -0.11862931344E+03  0.11734004673E+03  0.23070949003E+03  0.15294330000E+03 0.  0.
<mgrwt>
<rscale>  0 0.49479717E+03</rscale>
<asrwt>0</asrwt>
<pdfrwt beam="1">  1        2 0.65923985E+00 0.67072851E+03</pdfrwt>
<pdfrwt beam="2">  1       -2 0.30865149E-01 0.67072851E+03</pdfrwt>
<totfact> 0.21792911E+00</totfact>
</mgrwt>
</event>
<event>
 4    1  0.2665544E-007  0.8515686E+03  0.7818608E-02  0.9608741E-01
          2   -1    0    0  501    0  0.00000000000E+00  0.00000000000E+00  0.11044508645E+04  0.11044508645E+04  0.25500000000E-02 0. -1.
         -2   -1    0    0    0  501 -0.00000000000E+00 -0.00000000000E+00 -0.59106628696E+03  0.59106628696E+03  0.25500000000E-02 0.  1.
    8880023    1    1    2    0    0  0.34940658018E+02 -0.53864459504E+03  0.70201604025E+03  0.11036283688E+04  0.65864270000E+03 0. -1.
    8880022    1    1    2    0    0 -0.34940658018E+02  0.53864459504E+03 -0.18863146270E+03  0.59188878270E+03  0.15294330000E+03 0.  0.
<mgrwt>
<rscale>  0 0.76720342E+03</rscale>
<asrwt>0</asrwt>
<pdfrwt beam="1">  1        2 0.16991552E+00 0.85156859E+03</pdfrwt>
<pdfrwt beam="2">  1       -2 0.90933276E-01 0.85156859E+03</pdfrwt>
<totfact> 0.22506152E+01</totfact>
</mgrwt>
</event>
<event>
 4    1  0.2665544E-007  0.9250717E+03  0.7818608E-02  0.9486926E-01
         -2   -1    0    0    0  501 -0.00000000000E+00  0.00000000000E+00  0.77137738289E+03  0.77137738289E+03  0.25500000000E-02 0.  1.
          2   -1    0    0  501    0  0.00000000000E+00 -0.00000000000E+00 -0.20252723771E+04  0.20252723771E+04  0.25500000000E-02 0. -1.
    8880023    1    1    2    0    0  0.62003318536E+02 -0.64660887441E+03 -0.17402805096E+04  0.19708713571E+04  0.65864270000E+03 0. -1.
    8880022    1    1    2    0    0 -0.62003318536E+02  0.64660887441E+03  0.48638551541E+03  0.82577840284E+03  0.15294330000E+03 0.  0.
<mgrwt>
<rscale>  0 0.85254616E+03</rscale>
<asrwt>0</asrwt>
<pdfrwt beam="1">  1        2 0.31158036E+00 0.92507170E+03</pdfrwt>
<pdfrwt beam="2">  1       -2 0.11867344E+00 0.92507170E+03</pdfrwt>
<totfact> 0.35641666E+00</totfact>
</mgrwt>
</event>
<event>
 4    1  0.2665544E-007  0.9400967E+03  0.7818608E-02  0.9464508E-01
         -2   -1    0    0    0  501 -0.00000000000E+00  0.00000000000E+00  0.13435436662E+04  0.13435436662E+04  0.25500000000E-02 0.  1.
          2   -1    0    0  501    0  0.00000000000E+00 -0.00000000000E+00 -0.76555999435E+03  0.76555999436E+03  0.25500000000E-02 0. -1.
    8880023    1    1    2    0    0 -0.65638071966E+03 -0.13833280318E+03 -0.30625932557E+03  0.98872473133E+03  0.65864270000E+03 0.  0.
    8880022    1    1    2    0    0  0.65638071966E+03  0.13833280318E+03  0.88424299744E+03  0.11203789293E+04  0.15294330000E+03 0.  0.
<mgrwt>
<rscale>  0 0.86951828E+03</rscale>
<asrwt>0</asrwt>
<pdfrwt beam="1">  1        2 0.11777846E+00 0.94009671E+03</pdfrwt>
<pdfrwt beam="2">  1       -2 0.20669902E+00 0.94009671E+03</pdfrwt>
<totfact> 0.43893488E+00</totfact>
</mgrwt>
</event>
<event>
 4    1  0.2665544E-007  0.8396843E+03  0.7818608E-02  0.9630776E-01
         -2   -1    0    0    0  501 -0.00000000000E+00  0.00000000000E+00  0.13836059487E+04  0.13836059487E+04  0.25500000000E-02 0.  1.
          2   -1    0    0  501    0  0.00000000000E+00 -0.00000000000E+00 -0.13507920385E+04  0.13507920385E+04  0.25500000000E-02 0. -1.
    8880023    1    1    2    0    0 -0.19533302263E+03 -0.48280905839E+03 -0.11552682459E+04  0.14281857382E+04  0.65864270000E+03 0.  0.
    8880022    1    1    2    0    0  0.19533302263E+03  0.48280905839E+03  0.11880821562E+04  0.13062122490E+04  0.15294330000E+03 0.  1.
<mgrwt>
<rscale>  0 0.75292301E+03</rscale>
<asrwt>0</asrwt>
<pdfrwt beam="1">  1        2 0.20781416E+00 0.83968434E+03</pdfrwt>
<pdfrwt beam="2">  1       -2 0.21286245E+00 0.83968434E+03</pdfrwt>
<totfact> 0.17233223E+00</totfact>
</mgrwt>
</event>
<event>
 4    1  0.2665544E-007  0.6856116E+03  0.7818608E-02  0.1006312E+00
         -2   -1    0    0    0  501 -0.00000000000E+00  0.00000000000E+00  0.24519788536E+03  0.24519788538E+03  0.25500000000E-02 0.  1.
          2   -1    0    0  501    0  0.00000000000E+00 -0.00000000000E+00 -0.24382429261E+04  0.24382429261E+04  0.25500000000E-02 0. -1.
    8880023    1    1    2    0    0  0.18547586574E+03  0.43032585341E+02 -0.23121953099E+04  0.24117028129E+04  0.65864270000E+03 0. -1.
    8880022    1    1    2    0    0 -0.18547586574E+03 -0.43032585341E+02  0.11915026925E+03  0.27173799853E+03  0.15294330000E+03 0.  0.
<mgrwt>
<rscale>  0 0.52966974E+03</rscale>
<asrwt>0</asrwt>
<pdfrwt beam="1">  1        2 0.37511428E+00 0.68561163E+03</pdfrwt>
<pdfrwt beam="2">  1       -2 0.37722753E-01 0.68561163E+03</pdfrwt>
<totfact> 0.26388713E+01</totfact>
</mgrwt>
</event>
<event>
 4    1  0.2665544E-007  0.7171812E+03  0.7818608E-02  0.9932242E-01
          2   -1    0    0  501    0  0.00000000000E+00  0.00000000000E+00  0.15722289095E+04  0.15722289095E+04  0.25500000000E-02 0. -1.
         -2   -1    0    0    0  501 -0.00000000000E+00 -0.00000000000E+00 -0.55580858348E+03  0.55580858349E+03  0.25500000000E-02 0.  1.
    8880023    1    1    2    0    0 -0.20720860332E+03  0.19391575333E+03  0.14323095647E+04  0.16018300847E+04  0.65864270000E+03 0.  0.
    8880022    1    1    2    0    0  0.20720860332E+03 -0.19391575333E+03 -0.41588923871E+03  0.52620740832E+03  0.15294330000E+03 0.  0.
<mgrwt>
<rscale>  0 0.58723848E+03</rscale>
<asrwt>0</asrwt>
<pdfrwt beam="1">  1        2 0.24188137E+00 0.71718124E+03</pdfrwt>
<pdfrwt beam="2">  1       -2 0.85509011E-01 0.71718124E+03</pdfrwt>
<totfact> 0.14154253E+01</totfact>
</mgrwt>
</event>
<event>
 4    1  0.2665544E-007  0.1129546E+04  0.7818608E-02  0.9228852E-01
          2   -1    0    0  501    0  0.00000000000E+00  0.00000000000E+00  0.10579603916E+04  0.10579603916E+04  0.25500000000E-02 0. -1.
         -2   -1    0    0    0  501 -0.00000000000E+00 -0.00000000000E+00 -0.18874905086E+04  0.18874905086E+04  0.25500000000E-02 0.  1.
    8880023    1    1    2    0    0 -0.88188206210E+03 -0.25366769405E+03  0.56977907923E+03  0.12651172577E+04  0.65864270000E+03 0.  0.
    8880022    1    1    2    0    0  0.88188206210E+03  0.25366769405E+03 -0.13993091962E+04  0.16803336425E+04  0.15294330000E+03 0.  0.
<mgrwt>
<rscale>  0 0.10760524E+04</rscale>
<asrwt>0</asrwt>
<pdfrwt beam="1">  1        2 0.16276314E+00 0.11295457E+04</pdfrwt>
<pdfrwt beam="2">  1       -2 0.29038316E+00 0.11295457E+04</pdfrwt>
<totfact> 0.82966452E-01</totfact>
</mgrwt>
</event>
<event>
 4    1  0.2665544E-007  0.7297665E+03  0.7818608E-02  0.9890826E-01
          2   -1    0    0  501    0  0.00000000000E+00  0.00000000000E+00  0.19782847623E+04  0.19782847623E+04  0.25500000000E-02 0. -1.
         -2   -1    0    0    0  501 -0.00000000000E+00 -0.00000000000E+00 -0.60870744132E+03  0.60870744132E+03  0.25500000000E-02 0.  1.
    8880023    1    1    2    0    0 -0.30754009535E+03  0.64560801861E+02  0.18523947112E+04  0.19909609187E+04  0.65864270000E+03 0. -1.
    8880022    1    1    2    0    0  0.30754009535E+03 -0.64560801861E+02 -0.48281739019E+03  0.59603128497E+03  0.15294330000E+03 0.  0.
<mgrwt>
<rscale>  0 0.60707940E+03</rscale>
<asrwt>0</asrwt>
<pdfrwt beam="1">  1        2 0.30435150E+00 0.72976655E+03</pdfrwt>
<pdfrwt beam="2">  1       -2 0.93647300E-01 0.72976655E+03</pdfrwt>
<totfact> 0.68762652E+00</totfact>
</mgrwt>
</event>
<event>
 4    1  0.2665544E-007  0.8992683E+03  0.7818608E-02  0.9527207E-01
          2   -1    0    0  501    0  0.00000000000E+00  0.00000000000E+00  0.27870447751E+04  0.27870447751E+04  0.25500000000E-02 0. -1.
         -2   -1    0    0    0  501 -0.00000000000E+00 -0.00000000000E+00 -0.59841125677E+03  0.59841125677E+03  0.25500000000E-02 0.  1.
    8880023    1    1    2    0    0 -0.60936577110E+03 -0.59553646235E+02  0.25178799763E+04  0.26736497641E+04  0.65864270000E+03 0.  0.
    8880022    1    1    2    0    0  0.60936577110E+03  0.59553646235E+02 -0.32924645796E+03  0.71180626778E+03  0.15294330000E+03 0.  0.
<mgrwt>
<rscale>  0 0.82307322E+03</rscale>
<asrwt>0</asrwt>
<pdfrwt beam="1">  1        2 0.42877612E+00 0.89926831E+03</pdfrwt>
<pdfrwt beam="2">  1       -2 0.92063270E-01 0.89926831E+03</pdfrwt>
<totfact> 0.24350104E+00</totfact>
</mgrwt>
</event>
<event>
 4    1  0.2665544E-007  0.1285586E+04  0.7818608E-02  0.9078109E-01
          2   -1    0    0  501    0  0.00000000000E+00  0.00000000000E+00  0.11921021232E+04  0.11921021232E+04  0.25500000000E-02 0. -1.
         -2   -1    0    0    0  501 -0.00000000000E+00 -0.00000000000E+00 -0.20047131992E+04  0.20047131992E+04  0.25500000000E-02 0.  1.
    8880023    1    1    2    0    0  0.90782799525E+03  0.62830597912E+03  0.58228380062E+03  0.14113060274E+04  0.65864270000E+03 0.  0.
    8880022    1    1    2    0    0 -0.90782799525E+03 -0.62830597912E+03 -0.13948948766E+04  0.17855092949E+04  0.15294330000E+03 0.  0.
<mgrwt>
<rscale>  0 0.12405223E+04</rscale>
<asrwt>0</asrwt>
<pdfrwt beam="1">  1        2 0.18340033E+00 0.12855856E+04</pdfrwt>
<pdfrwt beam="2">  1       -2 0.30841742E+00 0.12855856E+04</pdfrwt>
<totfact> 0.52264412E-01</totfact>
</mgrwt>
</event>
<event>
 4    1  0.2665544E-007  0.7447168E+03  0.7818608E-02  0.9846414E-01
          2   -1    0    0  501    0  0.00000000000E+00  0.00000000000E+00  0.96834361812E+03  0.96834361812E+03  0.25500000000E-02 0. -1.
         -2   -1    0    0    0  501 -0.00000000000E+00 -0.00000000000E+00 -0.40379820610E+03  0.40379820611E+03  0.25500000000E-02 0.  1.
    8880023    1    1    2    0    0 -0.34657690549E+03  0.26026853930E+02  0.64359378916E+03  0.98428457280E+03  0.65864270000E+03 0.  0.
    8880022    1    1    2    0    0  0.34657690549E+03 -0.26026853930E+02 -0.79048377137E+02  0.38785725143E+03  0.15294330000E+03 0.  0.
<mgrwt>
<rscale>  0 0.62930073E+03</rscale>
<asrwt>0</asrwt>
<pdfrwt beam="1">  1        2 0.14897594E+00 0.74471683E+03</pdfrwt>
<pdfrwt beam="2">  1       -2 0.62122801E-01 0.74471683E+03</pdfrwt>
<totfact> 0.64481828E+01</totfact>
</mgrwt>
</event>
<event>
 4    1  0.2665544E-007  0.9737683E+03  0.7818608E-02  0.9416711E-01
          2   -1    0    0  501    0  0.00000000000E+00  0.00000000000E+00  0.19820782520E+04  0.19820782520E+04  0.25500000000E-02 0. -1.
         -2   -1    0    0    0  501 -0.00000000000E+00 -0.00000000000E+00 -0.40657397850E+03  0.40657397850E+03  0.25500000000E-02 0.  1.
    8880023    1    1    2    0    0 -0.70635841412E+03 -0.12438787189E+03  0.12546083677E+04  0.15881646370E+04  0.65864270000E+03 0. -1.
    8880022    1    1    2    0    0  0.70635841412E+03  0.12438787189E+03  0.32089590583E+03  0.80048759345E+03  0.15294330000E+03 0.  0.
<mgrwt>
<rscale>  0 0.90713090E+03</rscale>
<asrwt>0</asrwt>
<pdfrwt beam="1">  1        2 0.30493511E+00 0.97376833E+03</pdfrwt>
<pdfrwt beam="2">  1       -2 0.62549843E-01 0.97376833E+03</pdfrwt>
<totfact> 0.16304523E+01</totfact>
</mgrwt>
</event>
<event>
 4    1  0.2665544E-007  0.7135081E+03  0.7818608E-02  0.9945197E-01
         -2   -1    0    0    0  501 -0.00000000000E+00  0.00000000000E+00  0.69396171673E+03  0.69396171674E+03  0.25500000000E-02 0.  1.
          2   -1    0    0  501    0  0.00000000000E+00 -0.00000000000E+00 -0.12898886110E+04  0.12898886110E+04  0.25500000000E-02 0. -1.
    8880023    1    1    2    0    0  0.16421742445E+03  0.21980963211E+03 -0.11462540160E+04  0.13501822515E+04  0.65864270000E+03 0. -1.
    8880022    1    1    2    0    0 -0.16421742445E+03 -0.21980963211E+03  0.55032712174E+03  0.63366807620E+03  0.15294330000E+03 0.  0.
<mgrwt>
<rscale>  0 0.58119951E+03</rscale>
<asrwt>0</asrwt>
<pdfrwt beam="1">  1        2 0.19844440E+00 0.71350812E+03</pdfrwt>
<pdfrwt beam="2">  1       -2 0.10676334E+00 0.71350812E+03</pdfrwt>
<totfact> 0.12138874E+01</totfact>
</mgrwt>
</event>
<event>
 4    1  0.2665544E-007  0.7194553E+03  0.7818608E-02  0.9924433E-01
         -2   -1    0    0    0  501 -0.00000000000E+00  0.00000000000E+00  0.21700932914E+04  0.21700932914E+04  0.25500000000E-02 0.  1.
          2   -1    0    0  501    0  0.00000000000E+00 -0.00000000000E+00 -0.49611358365E+03  0.49611358365E+03  0.25500000000E-02 0. -1.
    8880023    1    1    2    0    0  0.17846145546E+03  0.22794143987E+03 -0.21355929589E+03  0.75048222512E+03  0.65864270000E+03 0. -1.
    8880022    1    1    2    0    0 -0.17846145546E+03 -0.22794143987E+03  0.18875390037E+04  0.19157246500E+04  0.15294330000E+03 0.  0.
<mgrwt>
<rscale>  0 0.59091626E+03</rscale>
<asrwt>0</asrwt>
<pdfrwt beam="1">  1        2 0.76325165E-01 0.71945535E+03</pdfrwt>
<pdfrwt beam="2">  1       -2 0.33386052E+00 0.71945535E+03</pdfrwt>
<totfact> 0.12884917E+00</totfact>
</mgrwt>
</event>
<event>
 4    1  0.2665544E-007  0.8198243E+03  0.7818608E-02  0.9669465E-01
         -2   -1    0    0    0  501 -0.00000000000E+00  0.00000000000E+00  0.62591246020E+03  0.62591246021E+03  0.25500000000E-02 0.  1.
          2   -1    0    0  501    0  0.00000000000E+00 -0.00000000000E+00 -0.95292889572E+03  0.95292889573E+03  0.25500000000E-02 0. -1.
    8880023    1    1    2    0    0  0.14199182784E+03  0.46705463473E+03 -0.58380409462E+03  0.10064487757E+04  0.65864270000E+03 0.  0.
    8880022    1    1    2    0    0 -0.14199182784E+03 -0.46705463473E+03  0.25678765910E+03  0.57239258021E+03  0.15294330000E+03 0.  0.
<mgrwt>
<rscale>  0 0.72864282E+03</rscale>
<asrwt>0</asrwt>
<pdfrwt beam="1">  1        2 0.14660444E+00 0.81982432E+03</pdfrwt>
<pdfrwt beam="2">  1       -2 0.96294225E-01 0.81982432E+03</pdfrwt>
<totfact> 0.24628541E+01</totfact>
</mgrwt>
</event>
<event>
 4    1  0.2665544E-007  0.8189198E+03  0.7818608E-02  0.9671288E-01
          2   -1    0    0  501    0  0.00000000000E+00  0.00000000000E+00  0.93299876404E+03  0.93299876404E+03  0.25500000000E-02 0. -1.
         -2   -1    0    0    0  501 -0.00000000000E+00 -0.00000000000E+00 -0.72300803353E+03  0.72300803354E+03  0.25500000000E-02 0.  1.
    8880023    1    1    2    0    0  0.48170938730E+03  0.69104546001E+02  0.59890387986E+03  0.10145518398E+04  0.65864270000E+03 0.  0.
    8880022    1    1    2    0    0 -0.48170938730E+03 -0.69104546001E+02 -0.38891314936E+03  0.64145495777E+03  0.15294330000E+03 0.  0.
<mgrwt>
<rscale>  0 0.72752300E+03</rscale>
<asrwt>0</asrwt>
<pdfrwt beam="1">  1        2 0.14353827E+00 0.81891976E+03</pdfrwt>
<pdfrwt beam="2">  1       -2 0.11123200E+00 0.81891976E+03</pdfrwt>
<totfact> 0.17978045E+01</totfact>
</mgrwt>
</event>
<event>
 4    1  0.2665544E-007  0.8746573E+03  0.7818608E-02  0.9568005E-01
         -2   -1    0    0    0  501 -0.00000000000E+00  0.00000000000E+00  0.54389562712E+03  0.54389562713E+03  0.25500000000E-02 0.  1.
          2   -1    0    0  501    0  0.00000000000E+00 -0.00000000000E+00 -0.26275799719E+04  0.26275799719E+04  0.25500000000E-02 0. -1.
    8880023    1    1    2    0    0 -0.48961246092E+03  0.30248106539E+03 -0.23586257263E+04  0.25155795912E+04  0.65864270000E+03 0. -1.
    8880022    1    1    2    0    0  0.48961246092E+03 -0.30248106539E+03  0.27494138149E+03  0.65589600782E+03  0.15294330000E+03 0.  0.
<mgrwt>
<rscale>  0 0.79450534E+03</rscale>
<asrwt>0</asrwt>
<pdfrwt beam="1">  1        2 0.40424306E+00 0.87465728E+03</pdfrwt>
<pdfrwt beam="2">  1       -2 0.83676252E-01 0.87465728E+03</pdfrwt>
<totfact> 0.37759990E+00</totfact>
</mgrwt>
</event>
<event>
 4    1  0.2665544E-007  0.8693960E+03  0.7818608E-02  0.9577063E-01
         -2   -1    0    0    0  501 -0.00000000000E+00  0.00000000000E+00  0.18866108952E+04  0.18866108952E+04  0.25500000000E-02 0.  1.
          2   -1    0    0  501    0  0.00000000000E+00 -0.00000000000E+00 -0.90813554013E+03  0.90813554014E+03  0.25500000000E-02 0. -1.
    8880023    1    1    2    0    0  0.15969164526E+03  0.54455277429E+03 -0.63562472774E+03  0.10769717482E+04  0.65864270000E+03 0. -1.
    8880022    1    1    2    0    0 -0.15969164526E+03 -0.54455277429E+03  0.16141000828E+04  0.17177746872E+04  0.15294330000E+03 0.  0.
<mgrwt>
<rscale>  0 0.78833054E+03</rscale>
<asrwt>0</asrwt>
<pdfrwt beam="1">  1        2 0.13971316E+00 0.86939597E+03</pdfrwt>
<pdfrwt beam="2">  1       -2 0.29024783E+00 0.86939597E+03</pdfrwt>
<totfact> 0.10787000E+00</totfact>
</mgrwt>
</event>
<event>
 4    1  0.2665544E-007  0.1083714E+04  0.7818608E-02  0.9279409E-01
          2   -1    0    0  501    0  0.00000000000E+00  0.00000000000E+00  0.10192400120E+04  0.10192400120E+04  0.25500000000E-02 0. -1.
         -2   -1    0    0    0  501 -0.00000000000E+00 -0.00000000000E+00 -0.10614407743E+04  0.10614407743E+04  0.25500000000E-02 0.  1.
    8880023    1    1    2    0    0  0.20443898515E+03  0.83596059796E+03  0.32678129944E+03  0.11319106166E+04  0.65864270000E+03 0. -1.
    8880022    1    1    2    0    0 -0.20443898515E+03 -0.83596059796E+03 -0.36898206177E+03  0.94877016970E+03  0.15294330000E+03 0.  0.
<mgrwt>
<rscale>  0 0.10270080E+04</rscale>
<asrwt>0</asrwt>
<pdfrwt beam="1">  1        2 0.15680616E+00 0.10837138E+04</pdfrwt>
<pdfrwt beam="2">  1       -2 0.16329858E+00 0.10837138E+04</pdfrwt>
<totfact> 0.57348920E+00</totfact>
</mgrwt>
</event>
<event>
 4    1  0.2665544E-007  0.1003489E+04  0.7818608E-02  0.9377007E-01
         -2   -1    0    0    0  501 -0.00000000000E+00  0.00000000000E+00  0.84916932505E+03  0.84916932505E+03  0.25500000000E-02 0.  1.
          2   -1    0    0  501    0  0.00000000000E+00 -0.00000000000E+00 -0.20571139448E+04  0.20571139448E+04  0.25500000000E-02 0. -1.
    8880023    1    1    2    0    0 -0.34150235031E+03  0.67568930502E+03 -0.17116856926E+04  0.19841517101E+04  0.65864270000E+03 0.  0.
    8880022    1    1    2    0    0  0.34150235031E+03 -0.67568930502E+03  0.50374107278E+03  0.92213155982E+03  0.15294330000E+03 0.  0.
<mgrwt>
<rscale>  0 0.93992298E+03</rscale>
<asrwt>0</asrwt>
<pdfrwt beam="1">  1        2 0.31647907E+00 0.10034890E+04</pdfrwt>
<pdfrwt beam="2">  1       -2 0.13064143E+00 0.10034890E+04</pdfrwt>
<totfact> 0.26598281E+00</totfact>
</mgrwt>
</event>
<event>
 4    1  0.2665544E-007  0.8525230E+03  0.7818608E-02  0.9607005E-01
          2   -1    0    0  501    0  0.00000000000E+00  0.00000000000E+00  0.36142448100E+04  0.36142448100E+04  0.25500000000E-02 0. -1.
         -2   -1    0    0    0  501 -0.00000000000E+00 -0.00000000000E+00 -0.37056045488E+03  0.37056045489E+03  0.25500000000E-02 0.  1.
    8880023    1    1    2    0    0 -0.52282332383E+03  0.14014637246E+03  0.33103780318E+04  0.34183911645E+04  0.65864270000E+03 0. -1.
    8880022    1    1    2    0    0  0.52282332383E+03 -0.14014637246E+03 -0.66693676663E+02  0.56641410044E+03  0.15294330000E+03 0.  0.
<mgrwt>
<rscale>  0 0.76834305E+03</rscale>
<asrwt>0</asrwt>
<pdfrwt beam="1">  1        2 0.55603769E+00 0.85252298E+03</pdfrwt>
<pdfrwt beam="2">  1       -2 0.57009298E-01 0.85252298E+03</pdfrwt>
<totfact> 0.20784739E+00</totfact>
</mgrwt>
</event>
<event>
 4    1  0.2665544E-007  0.2216027E+04  0.7818608E-02  0.8521773E-01
          2   -1    0    0  501    0  0.00000000000E+00  0.00000000000E+00  0.21089528196E+04  0.21089528196E+04  0.25500000000E-02 0. -1.
         -2   -1    0    0    0  501 -0.00000000000E+00 -0.00000000000E+00 -0.22864761705E+04  0.22864761705E+04  0.25500000000E-02 0.  1.
    8880023    1    1    2    0    0 -0.21158587418E+04  0.10275538701E+02  0.25414348200E+03  0.22305521553E+04  0.65864270000E+03 0.  0.
    8880022    1    1    2    0    0  0.21158587418E+04 -0.10275538701E+02 -0.43166683294E+03  0.21648768347E+04  0.15294330000E+03 0.  0.
<mgrwt>
<rscale>  0 0.21919825E+04</rscale>
<asrwt>0</asrwt>
<pdfrwt beam="1">  1        2 0.32445428E+00 0.22160266E+04</pdfrwt>
<pdfrwt beam="2">  1       -2 0.35176556E+00 0.22160266E+04</pdfrwt>
<totfact> 0.76601996E-02</totfact>
</mgrwt>
</event>
<event>
 4    1  0.2665544E-007  0.9426609E+03  0.7818608E-02  0.9460753E-01
         -2   -1    0    0    0  501 -0.00000000000E+00  0.00000000000E+00  0.19108580247E+04  0.19108580247E+04  0.25500000000E-02 0.  1.
          2   -1    0    0  501    0  0.00000000000E+00 -0.00000000000E+00 -0.16098969919E+04  0.16098969919E+04  0.25500000000E-02 0. -1.
    8880023    1    1    2    0    0  0.25656988600E+03 -0.62367554412E+03 -0.13981882109E+04  0.16862798611E+04  0.65864270000E+03 0.  0.
    8880022    1    1    2    0    0 -0.25656988600E+03  0.62367554412E+03  0.16991492437E+04  0.18344751555E+04  0.15294330000E+03 0.  0.
<mgrwt>
<rscale>  0 0.87240225E+03</rscale>
<asrwt>0</asrwt>
<pdfrwt beam="1">  1        2 0.24767646E+00 0.94266086E+03</pdfrwt>
<pdfrwt beam="2">  1       -2 0.29397816E+00 0.94266086E+03</pdfrwt>
<totfact> 0.38676621E-01</totfact>
</mgrwt>
</event>
<event>
 4    1  0.2665544E-007  0.9536930E+03  0.7818608E-02  0.9444820E-01
          2   -1    0    0  501    0  0.00000000000E+00  0.00000000000E+00  0.11583988700E+04  0.11583988700E+04  0.25500000000E-02 0. -1.
         -2   -1    0    0    0  501 -0.00000000000E+00 -0.00000000000E+00 -0.77550984422E+03  0.77550984422E+03  0.25500000000E-02 0.  1.
    8880023    1    1    2    0    0 -0.29250830566E+03  0.62462707225E+03  0.67606482223E+03  0.11690140882E+04  0.65864270000E+03 0. -1.
    8880022    1    1    2    0    0  0.29250830566E+03 -0.62462707225E+03 -0.29317579646E+03  0.76489462602E+03  0.15294330000E+03 0.  0.
<mgrwt>
<rscale>  0 0.88477158E+03</rscale>
<asrwt>0</asrwt>
<pdfrwt beam="1">  1        2 0.17821521E+00 0.95369298E+03</pdfrwt>
<pdfrwt beam="2">  1       -2 0.11930921E+00 0.95369298E+03</pdfrwt>
<totfact> 0.10776021E+01</totfact>
</mgrwt>
</event>
<event>
 4    1  0.2665544E-007  0.7478200E+03  0.7818608E-02  0.9837727E-01
          2   -1    0    0  501    0  0.00000000000E+00  0.00000000000E+00  0.15745796739E+04  0.15745796739E+04  0.25500000000E-02 0. -1.
         -2   -1    0    0    0  501 -0.00000000000E+00 -0.00000000000E+00 -0.38949570101E+03  0.38949570102E+03  0.25500000000E-02 0.  1.
    8880023    1    1    2    0    0 -0.67529852758E+02 -0.34765543416E+03  0.13509840744E+04  0.15441479066E+04  0.65864270000E+03 0.  0.
    8880022    1    1    2    0    0  0.67529852758E+02  0.34765543416E+03 -0.16590010155E+03  0.41992746829E+03  0.15294330000E+03 0.  0.
<mgrwt>
<rscale>  0 0.63376625E+03</rscale>
<asrwt>0</asrwt>
<pdfrwt beam="1">  1        2 0.24224303E+00 0.74782002E+03</pdfrwt>
<pdfrwt beam="2">  1       -2 0.59922415E-01 0.74782002E+03</pdfrwt>
<totfact> 0.30668398E+01</totfact>
</mgrwt>
</event>
<event>
 4    1  0.2665544E-007  0.1037873E+04  0.7818608E-02  0.9333604E-01
          2   -1    0    0  501    0  0.00000000000E+00  0.00000000000E+00  0.19677842462E+04  0.19677842462E+04  0.25500000000E-02 0. -1.
         -2   -1    0    0    0  501 -0.00000000000E+00 -0.00000000000E+00 -0.89214031201E+03  0.89214031201E+03  0.25500000000E-02 0.  1.
    8880023    1    1    2    0    0  0.75023825290E+03 -0.28374671863E+03  0.15871631647E+04  0.18963825442E+04  0.65864270000E+03 0.  0.
    8880022    1    1    2    0    0 -0.75023825290E+03  0.28374671863E+03 -0.51151923052E+03  0.96354201396E+03  0.15294330000E+03 0.  0.
<mgrwt>
<rscale>  0 0.97747212E+03</rscale>
<asrwt>0</asrwt>
<pdfrwt beam="1">  1        2 0.30273603E+00 0.10378727E+04</pdfrwt>
<pdfrwt beam="2">  1       -2 0.13725236E+00 0.10378727E+04</pdfrwt>
<totfact> 0.26137385E+00</totfact>
</mgrwt>
</event>
<event>
 4    1  0.2665544E-007  0.7934991E+03  0.7818608E-02  0.9725033E-01
         -2   -1    0    0    0  501 -0.00000000000E+00  0.00000000000E+00  0.20497446411E+03  0.20497446413E+03  0.25500000000E-02 0.  1.
          2   -1    0    0  501    0  0.00000000000E+00 -0.00000000000E+00 -0.20175826295E+04  0.20175826295E+04  0.25500000000E-02 0. -1.
    8880023    1    1    2    0    0  0.43219353652E+03  0.95075598774E+02 -0.13398078841E+04  0.15571531700E+04  0.65864270000E+03 0. -1.
    8880022    1    1    2    0    0 -0.43219353652E+03 -0.95075598774E+02 -0.47280028133E+03  0.66540392359E+03  0.15294330000E+03 0.  1.
<mgrwt>
<rscale>  0 0.69545721E+03</rscale>
<asrwt>0</asrwt>
<pdfrwt beam="1">  1        2 0.31039731E+00 0.79349910E+03</pdfrwt>
<pdfrwt beam="2">  1       -2 0.31534534E-01 0.79349910E+03</pdfrwt>
<totfact> 0.62451434E+01</totfact>
</mgrwt>
</event>
<event>
 4    1  0.2665544E-007  0.8359097E+03  0.7818608E-02  0.9637942E-01
          2   -1    0    0  501    0  0.00000000000E+00  0.00000000000E+00  0.18695899825E+04  0.18695899825E+04  0.25500000000E-02 0. -1.
         -2   -1    0    0    0  501 -0.00000000000E+00 -0.00000000000E+00 -0.48931666836E+03  0.48931666836E+03  0.25500000000E-02 0.  1.
    8880023    1    1    2    0    0  0.36839837284E+03 -0.35946821650E+03  0.15787880222E+04  0.17864256450E+04  0.65864270000E+03 0.  0.
    8880022    1    1    2    0    0 -0.36839837284E+03  0.35946821650E+03 -0.19851470804E+03  0.57248100589E+03  0.15294330000E+03 0.  0.
<mgrwt>
<rscale>  0 0.74835052E+03</rscale>
<asrwt>0</asrwt>
<pdfrwt beam="1">  1        2 0.28762923E+00 0.83590966E+03</pdfrwt>
<pdfrwt beam="2">  1       -2 0.75279488E-01 0.83590966E+03</pdfrwt>
<totfact> 0.12754009E+01</totfact>
</mgrwt>
</event>
<event>
 4    1  0.2665544E-007  0.8697996E+03  0.7818608E-02  0.9576364E-01
          2   -1    0    0  501    0  0.00000000000E+00  0.00000000000E+00  0.18175381624E+04  0.18175381624E+04  0.25500000000E-02 0. -1.
         -2   -1    0    0    0  501 -0.00000000000E+00 -0.00000000000E+00 -0.61947594325E+03  0.61947594325E+03  0.25500000000E-02 0.  1.
    8880023    1    1    2    0    0  0.46142475040E+03  0.33140359643E+03  0.15311348686E+04  0.17609444444E+04  0.65864270000E+03 0.  0.
    8880022    1    1    2    0    0 -0.46142475040E+03 -0.33140359643E+03 -0.33307264949E+03  0.67606966125E+03  0.15294330000E+03 0.  0.
<mgrwt>
<rscale>  0 0.78880517E+03</rscale>
<asrwt>0</asrwt>
<pdfrwt beam="1">  1        2 0.27962126E+00 0.86979960E+03</pdfrwt>
<pdfrwt beam="2">  1       -2 0.95303991E-01 0.86979960E+03</pdfrwt>
<totfact> 0.79168389E+00</totfact>
</mgrwt>
</event>
<event>
 4    1  0.2665544E-007  0.6639781E+03  0.7818608E-02  0.1020407E+00
         -2   -1    0    0    0  501 -0.00000000000E+00  0.00000000000E+00  0.12588560771E+04  0.12588560771E+04  0.25500000000E-02 0.  1.
          2   -1    0    0  501    0  0.00000000000E+00 -0.00000000000E+00 -0.17953847472E+04  0.17953847472E+04  0.25500000000E-02 0. -1.
    8880023    1    1    2    0    0  0.56418386502E+02 -0.62238989242E+02 -0.17274196688E+04  0.18506338494E+04  0.65864270000E+03 0. -1.
    8880022    1    1    2    0    0 -0.56418386502E+02  0.62238989242E+02  0.11908909987E+04  0.12036069749E+04  0.15294330000E+03 0.  0.
<mgrwt>
<rscale>  0 0.47540182E+03</rscale>
<asrwt>0</asrwt>
<pdfrwt beam="1">  1        2 0.27621304E+00 0.66397811E+03</pdfrwt>
<pdfrwt beam="2">  1       -2 0.19367017E+00 0.66397811E+03</pdfrwt>
<totfact> 0.13430038E+00</totfact>
</mgrwt>
</event>
<event>
 4    1  0.2665544E-007  0.1792456E+04  0.7818608E-02  0.8726721E-01
          2   -1    0    0  501    0  0.00000000000E+00  0.00000000000E+00  0.16003994088E+04  0.16003994088E+04  0.25500000000E-02 0. -1.
         -2   -1    0    0    0  501 -0.00000000000E+00 -0.00000000000E+00 -0.21440381710E+04  0.21440381710E+04  0.25500000000E-02 0.  1.
    8880023    1    1    2    0    0 -0.36862458533E+03  0.16257935639E+04  0.38026750348E+03  0.18323488690E+04  0.65864270000E+03 0.  0.
    8880022    1    1    2    0    0  0.36862458533E+03 -0.16257935639E+04 -0.92390626561E+03  0.19120887108E+04  0.15294330000E+03 0.  0.
<mgrwt>
<rscale>  0 0.17620946E+04</rscale>
<asrwt>0</asrwt>
<pdfrwt beam="1">  1        2 0.24621529E+00 0.17924561E+04</pdfrwt>
<pdfrwt beam="2">  1       -2 0.32985203E+00 0.17924561E+04</pdfrwt>
<totfact> 0.21153339E-01</totfact>
</mgrwt>
</event>
<event>
 4    1  0.2665544E-007  0.8571887E+03  0.7818608E-02  0.9598584E-01
          2   -1    0    0  501    0  0.00000000000E+00  0.00000000000E+00  0.27909508022E+04  0.27909508022E+04  0.25500000000E-02 0. -1.
         -2   -1    0    0    0  501 -0.00000000000E+00 -0.00000000000E+00 -0.30048315806E+03  0.30048315808E+03  0.25500000000E-02 0.  1.
    8880023    1    1    2    0    0  0.51988863316E+03 -0.17515140633E+03  0.23548187376E+04  0.25059815840E+04  0.65864270000E+03 0. -1.
    8880022    1    1    2    0    0 -0.51988863316E+03  0.17515140633E+03  0.13564890650E+03  0.58545237627E+03  0.15294330000E+03 0.  0.
<mgrwt>
<rscale>  0 0.77389974E+03</rscale>
<asrwt>0</asrwt>
<pdfrwt beam="1">  1        2 0.42937704E+00 0.85718867E+03</pdfrwt>
<pdfrwt beam="2">  1       -2 0.46228179E-01 0.85718867E+03</pdfrwt>
<totfact> 0.10789110E+01</totfact>
</mgrwt>
</event>
<event>
 4    1  0.2665544E-007  0.9385672E+03  0.7818608E-02  0.9466758E-01
         -2   -1    0    0    0  501 -0.00000000000E+00  0.00000000000E+00  0.22836172227E+03  0.22836172229E+03  0.25500000000E-02 0.  1.
          2   -1    0    0  501    0  0.00000000000E+00 -0.00000000000E+00 -0.33308332997E+04  0.33308332997E+04  0.25500000000E-02 0. -1.
    8880023    1    1    2    0    0 -0.66842782470E+03  0.17393064332E+02 -0.24017856101E+04  0.25786590699E+04  0.65864270000E+03 0.  0.
    8880022    1    1    2    0    0  0.66842782470E+03 -0.17393064332E+02 -0.70068596726E+03  0.98053595205E+03  0.15294330000E+03 0.  0.
<mgrwt>
<rscale>  0 0.86779639E+03</rscale>
<asrwt>0</asrwt>
<pdfrwt beam="1">  1        2 0.51243586E+00 0.93856725E+03</pdfrwt>
<pdfrwt beam="2">  1       -2 0.35132575E-01 0.93856725E+03</pdfrwt>
<totfact> 0.84084068E+00</totfact>
</mgrwt>
</event>
<event>
 4    1  0.2665544E-007  0.9565973E+03  0.7818608E-02  0.9440685E-01
          2   -1    0    0  501    0  0.00000000000E+00  0.00000000000E+00  0.14110042796E+04  0.14110042796E+04  0.25500000000E-02 0. -1.
         -2   -1    0    0    0  501 -0.00000000000E+00 -0.00000000000E+00 -0.18302197316E+04  0.18302197317E+04  0.25500000000E-02 0.  1.
    8880023    1    1    2    0    0 -0.27414278412E+03  0.63727065541E+03  0.11635790290E+04  0.15063181992E+04  0.65864270000E+03 0.  0.
    8880022    1    1    2    0    0  0.27414278412E+03 -0.63727065541E+03 -0.15827944811E+04  0.17349058120E+04  0.15294330000E+03 0.  0.
<mgrwt>
<rscale>  0 0.88801785E+03</rscale>
<asrwt>0</asrwt>
<pdfrwt beam="1">  1        2 0.21707758E+00 0.95659728E+03</pdfrwt>
<pdfrwt beam="2">  1       -2 0.28157226E+00 0.95659728E+03</pdfrwt>
<totfact> 0.59277442E-01</totfact>
</mgrwt>
</event>
<event>
 4    1  0.2665544E-007  0.9631189E+03  0.7818608E-02  0.9431485E-01
         -2   -1    0    0    0  501 -0.00000000000E+00  0.00000000000E+00  0.45758564713E+03  0.45758564714E+03  0.25500000000E-02 0.  1.
          2   -1    0    0  501    0  0.00000000000E+00 -0.00000000000E+00 -0.18379484478E+04  0.18379484478E+04  0.25500000000E-02 0. -1.
    8880023    1    1    2    0    0  0.59703744275E+03  0.37058618611E+03 -0.12276272508E+04  0.15603418544E+04  0.65864270000E+03 0.  0.
    8880022    1    1    2    0    0 -0.59703744275E+03 -0.37058618611E+03 -0.15273554988E+03  0.73519224057E+03  0.15294330000E+03 0.  0.
<mgrwt>
<rscale>  0 0.89529280E+03</rscale>
<asrwt>0</asrwt>
<pdfrwt beam="1">  1        2 0.28276129E+00 0.96311891E+03</pdfrwt>
<pdfrwt beam="2">  1       -2 0.70397793E-01 0.96311891E+03</pdfrwt>
<totfact> 0.15165170E+01</totfact>
</mgrwt>
</event>
<event>
 4    1  0.2665544E-007  0.1313638E+04  0.7818608E-02  0.9053871E-01
          2   -1    0    0  501    0  0.00000000000E+00  0.00000000000E+00  0.88458476478E+03  0.88458476478E+03  0.25500000000E-02 0. -1.
         -2   -1    0    0    0  501 -0.00000000000E+00 -0.00000000000E+00 -0.19475803791E+04  0.19475803791E+04  0.25500000000E-02 0.  1.
    8880023    1    1    2    0    0 -0.78815711398E+02  0.11338532072E+04 -0.70548163208E+02  0.13155311709E+04  0.65864270000E+03 0.  0.
    8880022    1    1    2    0    0  0.78815711398E+02 -0.11338532072E+04 -0.99244745107E+03  0.15166339730E+04  0.15294330000E+03 0.  0.
<mgrwt>
<rscale>  0 0.12697900E+04</rscale>
<asrwt>0</asrwt>
<pdfrwt beam="1">  1        2 0.13608996E+00 0.13136382E+04</pdfrwt>
<pdfrwt beam="2">  1       -2 0.29962775E+00 0.13136382E+04</pdfrwt>
<totfact> 0.92856599E-01</totfact>
</mgrwt>
</event>
<event>
 4    1  0.2665544E-007  0.1073162E+04  0.7818608E-02  0.9291542E-01
          2   -1    0    0  501    0  0.00000000000E+00  0.00000000000E+00  0.38396613193E+04  0.38396613193E+04  0.25500000000E-02 0. -1.
         -2   -1    0    0    0  501 -0.00000000000E+00 -0.00000000000E+00 -0.44517912777E+03  0.44517912778E+03  0.25500000000E-02 0.  1.
    8880023    1    1    2    0    0  0.50849831722E+03 -0.67771398165E+03  0.32361368637E+04  0.34094367257E+04  0.65864270000E+03 0.  0.
    8880022    1    1    2    0    0 -0.50849831722E+03  0.67771398165E+03  0.15834532780E+03  0.87540372137E+03  0.15294330000E+03 0.  0.
<mgrwt>
<rscale>  0 0.10156527E+04</rscale>
<asrwt>0</asrwt>
<pdfrwt beam="1">  1        2 0.59071711E+00 0.10731621E+04</pdfrwt>
<pdfrwt beam="2">  1       -2 0.68489098E-01 0.10731621E+04</pdfrwt>
<totfact> 0.92347260E-01</totfact>
</mgrwt>
</event>
<event>
 4    1  0.2665544E-007  0.1171142E+04  0.7818608E-02  0.9185698E-01
         -2   -1    0    0    0  501 -0.00000000000E+00  0.00000000000E+00  0.16037894769E+04  0.16037894769E+04  0.25500000000E-02 0.  1.
          2   -1    0    0  501    0  0.00000000000E+00 -0.00000000000E+00 -0.82197650846E+03  0.82197650847E+03  0.25500000000E-02 0. -1.
    8880023    1    1    2    0    0  0.71525722336E+03 -0.65281697411E+03 -0.10829715703E+01  0.11711422955E+04  0.65864270000E+03 0.  0.
    8880022    1    1    2    0    0 -0.71525722336E+03  0.65281697411E+03  0.78289594003E+03  0.12546236899E+04  0.15294330000E+03 0.  0.
<mgrwt>
<rscale>  0 0.11202276E+04</rscale>
<asrwt>0</asrwt>
<pdfrwt beam="1">  1        2 0.12645793E+00 0.11711418E+04</pdfrwt>
<pdfrwt beam="2">  1       -2 0.24673684E+00 0.11711418E+04</pdfrwt>
<totfact> 0.21885676E+00</totfact>
</mgrwt>
</event>
<event>
 4    1  0.3652346E-007  0.1324723E+04  0.7818608E-02  0.9044499E-01
         -2   -1    0    0    0  501 -0.00000000000E+00  0.00000000000E+00  0.22063963231E+04  0.22063963231E+04  0.25500000000E-02 0.  1.
          2   -1    0    0  501    0  0.00000000000E+00 -0.00000000000E+00 -0.30289360504E+04  0.30289360504E+04  0.25500000000E-02 0. -1.
    8880023    1    1    2    0    0  0.71650940756E+03  0.89871812457E+03 -0.27121187187E+04  0.30183568625E+04  0.65864270000E+03 0. -1.
    8880022    1    1    2    0    0 -0.71650940756E+03 -0.89871812457E+03  0.18895789914E+04  0.22169755110E+04  0.15294330000E+03 0.  0.
<mgrwt>
<rscale>  0 0.12813350E+04</rscale>
<asrwt>0</asrwt>
<pdfrwt beam="1">  1        2 0.46599016E+00 0.13247227E+04</pdfrwt>
<pdfrwt beam="2">  1       -2 0.33944559E+00 0.13247227E+04</pdfrwt>
<totfact> 0.29356091E-02</totfact>
</mgrwt>
</event>
<event>
 4    1  0.2665544E-007  0.1038620E+04  0.7818608E-02  0.9332688E-01
          2   -1    0    0  501    0  0.00000000000E+00  0.00000000000E+00  0.16638708494E+04  0.16638708494E+04  0.25500000000E-02 0. -1.
         -2   -1    0    0    0  501 -0.00000000000E+00 -0.00000000000E+00 -0.16589686739E+04  0.16589686739E+04  0.25500000000E-02 0.  1.
    8880023    1    1    2    0    0  0.18612066386E+02  0.80285408276E+03  0.13775351709E+04  0.17252056227E+04  0.65864270000E+03 0. -1.
    8880022    1    1    2    0    0 -0.18612066386E+02 -0.80285408276E+03 -0.13726329955E+04  0.15976339006E+04  0.15294330000E+03 0.  0.
<mgrwt>
<rscale>  0 0.97828399E+03</rscale>
<asrwt>0</asrwt>
<pdfrwt beam="1">  1        2 0.25598013E+00 0.10386199E+04</pdfrwt>
<pdfrwt beam="2">  1       -2 0.25522595E+00 0.10386199E+04</pdfrwt>
<totfact> 0.60950114E-01</totfact>
</mgrwt>
</event>
<event>
 4    1  0.2665544E-007  0.7412386E+03  0.7818608E-02  0.9856354E-01
          2   -1    0    0  501    0  0.00000000000E+00  0.00000000000E+00  0.28720492409E+04  0.28720492409E+04  0.25500000000E-02 0. -1.
         -2   -1    0    0    0  501 -0.00000000000E+00 -0.00000000000E+00 -0.33979750996E+03  0.33979750997E+03  0.25500000000E-02 0.  1.
    8880023    1    1    2    0    0 -0.23242324734E+03 -0.24820127302E+03  0.27022521632E+04  0.28020709124E+04  0.65864270000E+03 0. -1.
    8880022    1    1    2    0    0  0.23242324734E+03  0.24820127302E+03 -0.17000043230E+03  0.40977583851E+03  0.15294330000E+03 0.  0.
<mgrwt>
<rscale>  0 0.62424008E+03</rscale>
<asrwt>0</asrwt>
<pdfrwt beam="1">  1        2 0.44185373E+00 0.74123859E+03</pdfrwt>
<pdfrwt beam="2">  1       -2 0.52276540E-01 0.74123859E+03</pdfrwt>
<totfact> 0.76673820E+00</totfact>
</mgrwt>
</event>
<event>
 4    1  0.2665544E-007  0.7478013E+03  0.7818608E-02  0.9837779E-01
         -2   -1    0    0    0  501 -0.00000000000E+00  0.00000000000E+00  0.44390433066E+03  0.44390433066E+03  0.25500000000E-02 0.  1.
          2   -1    0    0  501    0  0.00000000000E+00 -0.00000000000E+00 -0.38369157154E+04  0.38369157154E+04  0.25500000000E-02 0. -1.
    8880023    1    1    2    0    0 -0.22511780226E+03  0.27334682262E+03 -0.37081017602E+04  0.37827536770E+04  0.65864270000E+03 0. -1.
    8880022    1    1    2    0    0  0.22511780226E+03 -0.27334682262E+03  0.31509037545E+03  0.49806636911E+03  0.15294330000E+03 0.  0.
<mgrwt>
<rscale>  0 0.63373937E+03</rscale>
<asrwt>0</asrwt>
<pdfrwt beam="1">  1        2 0.59029470E+00 0.74780125E+03</pdfrwt>
<pdfrwt beam="2">  1       -2 0.68292977E-01 0.74780125E+03</pdfrwt>
<totfact> 0.99749234E-01</totfact>
</mgrwt>
</event>
<event>
 4    1  0.2665544E-007  0.7538088E+03  0.7818608E-02  0.9821408E-01
          2   -1    0    0  501    0  0.00000000000E+00  0.00000000000E+00  0.65147375642E+03  0.65147375642E+03  0.25500000000E-02 0. -1.
         -2   -1    0    0    0  501 -0.00000000000E+00 -0.00000000000E+00 -0.16710746833E+04  0.16710746833E+04  0.25500000000E-02 0.  1.
    8880023    1    1    2    0    0  0.36446581769E+03  0.39776997684E+02  0.39653873470E+03  0.85174568751E+03  0.65864270000E+03 0.  0.
    8880022    1    1    2    0    0 -0.36446581769E+03 -0.39776997684E+02 -0.14161396616E+04  0.14708027522E+04  0.15294330000E+03 0.  1.
<mgrwt>
<rscale>  0 0.64226233E+03</rscale>
<asrwt>0</asrwt>
<pdfrwt beam="1">  1        2 0.10022673E+00 0.75380883E+03</pdfrwt>
<pdfrwt beam="2">  1       -2 0.25708841E+00 0.75380883E+03</pdfrwt>
<totfact> 0.26883421E+00</totfact>
</mgrwt>
</event>
<event>
 4    1  0.2665544E-007  0.1411603E+04  0.7818608E-02  0.8974719E-01
         -2   -1    0    0    0  501 -0.00000000000E+00  0.00000000000E+00  0.10684347097E+04  0.10684347097E+04  0.25500000000E-02 0.  1.
          2   -1    0    0  501    0  0.00000000000E+00 -0.00000000000E+00 -0.19414749833E+04  0.19414749833E+04  0.25500000000E-02 0. -1.
    8880023    1    1    2    0    0 -0.95769411629E+03  0.80102060901E+03 -0.10227578942E+04  0.17431741028E+04  0.65864270000E+03 0.  0.
    8880022    1    1    2    0    0  0.95769411629E+03 -0.80102060901E+03  0.14971762053E+03  0.12667355901E+04  0.15294330000E+03 0.  0.
<mgrwt>
<rscale>  0 0.13714885E+04</rscale>
<asrwt>0</asrwt>
<pdfrwt beam="1">  1        2 0.29868846E+00 0.14116027E+04</pdfrwt>
<pdfrwt beam="2">  1       -2 0.16437457E+00 0.14116027E+04</pdfrwt>
<totfact> 0.16017627E+00</totfact>
</mgrwt>
</event>
<event>
 4    1  0.2665544E-007  0.8933848E+03  0.7818608E-02  0.9536736E-01
          2   -1    0    0  501    0  0.00000000000E+00  0.00000000000E+00  0.24596705686E+04  0.24596705686E+04  0.25500000000E-02 0. -1.
         -2   -1    0    0    0  501 -0.00000000000E+00 -0.00000000000E+00 -0.34205043545E+03  0.34205043545E+03  0.25500000000E-02 0.  1.
    8880023    1    1    2    0    0 -0.50432141129E+03 -0.33164165130E+03  0.19680598640E+04  0.21613412746E+04  0.65864270000E+03 0.  0.
    8880022    1    1    2    0    0  0.50432141129E+03  0.33164165130E+03  0.14956026915E+03  0.64037972945E+03  0.15294330000E+03 0.  0.
<mgrwt>
<rscale>  0 0.81628801E+03</rscale>
<asrwt>0</asrwt>
<pdfrwt beam="1">  1        2 0.37841085E+00 0.89338484E+03</pdfrwt>
<pdfrwt beam="2">  1       -2 0.52623144E-01 0.89338484E+03</pdfrwt>
<totfact> 0.12827146E+01</totfact>
</mgrwt>
</event>
<event>
 4    1  0.2665544E-007  0.1360522E+04  0.7818608E-02  0.9014981E-01
          2   -1    0    0  501    0  0.00000000000E+00  0.00000000000E+00  0.30908638579E+04  0.30908638579E+04  0.25500000000E-02 0. -1.
         -2   -1    0    0    0  501 -0.00000000000E+00 -0.00000000000E+00 -0.15084937343E+04  0.15084937343E+04  0.25500000000E-02 0.  1.
    8880023    1    1    2    0    0 -0.98277313299E+03 -0.67183892040E+03  0.26590857931E+04  0.29869312057E+04  0.65864270000E+03 0. -1.
    8880022    1    1    2    0    0  0.98277313299E+03  0.67183892040E+03 -0.10767156696E+04  0.16124263865E+04  0.15294330000E+03 0.  0.
<mgrwt>
<rscale>  0 0.13185519E+04</rscale>
<asrwt>0</asrwt>
<pdfrwt beam="1">  1        2 0.47551752E+00 0.13605222E+04</pdfrwt>
<pdfrwt beam="2">  1       -2 0.23207596E+00 0.13605222E+04</pdfrwt>
<totfact> 0.12156568E-01</totfact>
</mgrwt>
</event>
<event>
 4    1  0.2665544E-007  0.6772476E+03  0.7818608E-02  0.1010925E+00
         -2   -1    0    0    0  501 -0.00000000000E+00  0.00000000000E+00  0.79216899131E+03  0.79216899132E+03  0.25500000000E-02 0.  1.
          2   -1    0    0  501    0  0.00000000000E+00 -0.00000000000E+00 -0.14382734917E+04  0.14382734917E+04  0.25500000000E-02 0. -1.
    8880023    1    1    2    0    0 -0.12106576753E+03  0.10098144502E+03 -0.13406454698E+04  0.15019968889E+04  0.65864270000E+03 0. -1.
    8880022    1    1    2    0    0  0.12106576753E+03 -0.10098144502E+03  0.69454096944E+03  0.72844559409E+03  0.15294330000E+03 0.  0.
<mgrwt>
<rscale>  0 0.51108496E+03</rscale>
<asrwt>0</asrwt>
<pdfrwt beam="1">  1        2 0.22127284E+00 0.67724765E+03</pdfrwt>
<pdfrwt beam="2">  1       -2 0.12187215E+00 0.67724765E+03</pdfrwt>
<totfact> 0.72766157E+00</totfact>
</mgrwt>
</event>
<event>
 4    1  0.2665544E-007  0.7490252E+03  0.7818608E-02  0.9834396E-01
          2   -1    0    0  501    0  0.00000000000E+00  0.00000000000E+00  0.42401140601E+03  0.42401140601E+03  0.25500000000E-02 0. -1.
         -2   -1    0    0    0  501 -0.00000000000E+00 -0.00000000000E+00 -0.97185036394E+03  0.97185036395E+03  0.25500000000E-02 0.  1.
    8880023    1    1    2    0    0 -0.44914150692E+02  0.35385212294E+03 -0.31177974520E+02  0.74967384788E+03  0.65864270000E+03 0. -1.
    8880022    1    1    2    0    0  0.44914150692E+02 -0.35385212294E+03 -0.51666098342E+03  0.64618792208E+03  0.15294330000E+03 0.  0.
<mgrwt>
<rscale>  0 0.63548860E+03</rscale>
<asrwt>0</asrwt>
<pdfrwt beam="1">  1        2 0.65232525E-01 0.74902524E+03</pdfrwt>
<pdfrwt beam="2">  1       -2 0.14951544E+00 0.74902524E+03</pdfrwt>
<totfact> 0.22789198E+01</totfact>
</mgrwt>
</event>
<event>
 4    1  0.2665544E-007  0.6838998E+03  0.7818608E-02  0.1007198E+00
          2   -1    0    0  501    0  0.00000000000E+00  0.00000000000E+00  0.10470923473E+04  0.10470923473E+04  0.25500000000E-02 0. -1.
         -2   -1    0    0    0  501 -0.00000000000E+00 -0.00000000000E+00 -0.46597349368E+03  0.46597349369E+03  0.25500000000E-02 0.  1.
    8880023    1    1    2    0    0  0.17492924542E+03  0.57519524965E+02  0.88991829010E+03  0.11223517746E+04  0.65864270000E+03 0. -1.
    8880022    1    1    2    0    0 -0.17492924542E+03 -0.57519524965E+02 -0.30879943650E+03  0.39071406636E+03  0.15294330000E+03 0.  0.
<mgrwt>
<rscale>  0 0.52603429E+03</rscale>
<asrwt>0</asrwt>
<pdfrwt beam="1">  1        2 0.16109113E+00 0.68389980E+03</pdfrwt>
<pdfrwt beam="2">  1       -2 0.71688231E-01 0.68389980E+03</pdfrwt>
<totfact> 0.42417476E+01</totfact>
</mgrwt>
</event>
<event>
 4    1  0.2665544E-007  0.8858057E+03  0.7818608E-02  0.9549213E-01
         -2   -1    0    0    0  501 -0.00000000000E+00  0.00000000000E+00  0.73777154071E+03  0.73777154072E+03  0.25500000000E-02 0.  1.
          2   -1    0    0  501    0  0.00000000000E+00 -0.00000000000E+00 -0.10829417041E+04  0.10829417041E+04  0.25500000000E-02 0. -1.
    8880023    1    1    2    0    0  0.26864268935E+03 -0.52789456277E+03 -0.68604592488E+03  0.11204065250E+04  0.65864270000E+03 0.  0.
    8880022    1    1    2    0    0 -0.26864268935E+03  0.52789456277E+03  0.34087576154E+03  0.70030671978E+03  0.15294330000E+03 0.  0.
<mgrwt>
<rscale>  0 0.80750766E+03</rscale>
<asrwt>0</asrwt>
<pdfrwt beam="1">  1        2 0.16660642E+00 0.88580572E+03</pdfrwt>
<pdfrwt beam="2">  1       -2 0.11350331E+00 0.88580572E+03</pdfrwt>
<totfact> 0.13636542E+01</totfact>
</mgrwt>
</event>
<event>
 4    1  0.2665544E-007  0.8798740E+03  0.7818608E-02  0.9559145E-01
          2   -1    0    0  501    0  0.00000000000E+00  0.00000000000E+00  0.13066032602E+04  0.13066032603E+04  0.25500000000E-02 0. -1.
         -2   -1    0    0    0  501 -0.00000000000E+00 -0.00000000000E+00 -0.70047467533E+03  0.70047467534E+03  0.25500000000E-02 0.  1.
    8880023    1    1    2    0    0 -0.58293637838E+03  0.23522031665E+02  0.96447921790E+03  0.13055261297E+04  0.65864270000E+03 0.  0.
    8880022    1    1    2    0    0  0.58293637838E+03 -0.23522031665E+02 -0.35835063299E+03  0.70155180592E+03  0.15294330000E+03 0.  0.
<mgrwt>
<rscale>  0 0.80060299E+03</rscale>
<asrwt>0</asrwt>
<pdfrwt beam="1">  1        2 0.20101589E+00 0.87987403E+03</pdfrwt>
<pdfrwt beam="2">  1       -2 0.10776534E+00 0.87987403E+03</pdfrwt>
<totfact> 0.11380458E+01</totfact>
</mgrwt>
</event>
<event>
 4    1  0.2665544E-007  0.1104051E+04  0.7818608E-02  0.9256559E-01
         -2   -1    0    0    0  501 -0.00000000000E+00  0.00000000000E+00  0.14826268866E+04  0.14826268866E+04  0.25500000000E-02 0.  1.
          2   -1    0    0  501    0  0.00000000000E+00 -0.00000000000E+00 -0.18752064621E+04  0.18752064621E+04  0.25500000000E-02 0. -1.
    8880023    1    1    2    0    0 -0.85118449206E+03 -0.24617960437E+03 -0.15432470374E+04  0.18975091731E+04  0.65864270000E+03 0.  0.
    8880022    1    1    2    0    0  0.85118449206E+03  0.24617960437E+03  0.11506674619E+04  0.14603241757E+04  0.15294330000E+03 0.  0.
<mgrwt>
<rscale>  0 0.10488243E+04</rscale>
<asrwt>0</asrwt>
<pdfrwt beam="1">  1        2 0.28849330E+00 0.11040515E+04</pdfrwt>
<pdfrwt beam="2">  1       -2 0.22809644E+00 0.11040515E+04</pdfrwt>
<totfact> 0.67774311E-01</totfact>
</mgrwt>
</event>
<event>
 4    1  0.2665544E-007  0.8644713E+03  0.7818608E-02  0.9585659E-01
         -2   -1    0    0    0  501 -0.00000000000E+00  0.00000000000E+00  0.48740072772E+03  0.48740072773E+03  0.25500000000E-02 0.  1.
          2   -1    0    0  501    0  0.00000000000E+00 -0.00000000000E+00 -0.14326155194E+04  0.14326155194E+04  0.25500000000E-02 0. -1.
    8880023    1    1    2    0    0 -0.52231472818E+03 -0.20171215488E+03 -0.10174565827E+04  0.13351136928E+04  0.65864270000E+03 0. -1.
    8880022    1    1    2    0    0  0.52231472818E+03  0.20171215488E+03  0.72241791025E+02  0.58490255435E+03  0.15294330000E+03 0.  0.
<mgrwt>
<rscale>  0 0.78252695E+03</rscale>
<asrwt>0</asrwt>
<pdfrwt beam="1">  1        2 0.22040238E+00 0.86447133E+03</pdfrwt>
<pdfrwt beam="2">  1       -2 0.74984728E-01 0.86447133E+03</pdfrwt>
<totfact> 0.22365160E+01</totfact>
</mgrwt>
</event>
<event>
 4    1  0.2665544E-007  0.9078969E+03  0.7818608E-02  0.9513472E-01
         -2   -1    0    0    0  501 -0.00000000000E+00  0.00000000000E+00  0.81137150236E+03  0.81137150236E+03  0.25500000000E-02 0.  1.
          2   -1    0    0  501    0  0.00000000000E+00 -0.00000000000E+00 -0.93985733432E+03  0.93985733433E+03  0.25500000000E-02 0. -1.
    8880023    1    1    2    0    0 -0.89779878761E+02 -0.61838989783E+03 -0.47058386796E+03  0.10226073907E+04  0.65864270000E+03 0. -1.
    8880022    1    1    2    0    0  0.89779878761E+02  0.61838989783E+03  0.34209803599E+03  0.72862144603E+03  0.15294330000E+03 0.  0.
<mgrwt>
<rscale>  0 0.83297856E+03</rscale>
<asrwt>0</asrwt>
<pdfrwt beam="1">  1        2 0.14459344E+00 0.90789685E+03</pdfrwt>
<pdfrwt beam="2">  1       -2 0.12482638E+00 0.90789685E+03</pdfrwt>
<totfact> 0.13271917E+01</totfact>
</mgrwt>
</event>
<event>
 4    1  0.2665544E-007  0.1108570E+04  0.7818608E-02  0.9251574E-01
          2   -1    0    0  501    0  0.00000000000E+00  0.00000000000E+00  0.10553536360E+04  0.10553536360E+04  0.25500000000E-02 0. -1.
         -2   -1    0    0    0  501 -0.00000000000E+00 -0.00000000000E+00 -0.11281240207E+04  0.11281240207E+04  0.25500000000E-02 0.  1.
    8880023    1    1    2    0    0 -0.38649198410E+02  0.89085517601E+03  0.37987163144E+03  0.11718486966E+04  0.65864270000E+03 0.  0.
    8880022    1    1    2    0    0  0.38649198410E+02 -0.89085517601E+03 -0.45264201608E+03  0.10116289601E+04  0.15294330000E+03 0.  0.
<mgrwt>
<rscale>  0 0.10536592E+04</rscale>
<asrwt>0</asrwt>
<pdfrwt beam="1">  1        2 0.16236210E+00 0.11085698E+04</pdfrwt>
<pdfrwt beam="2">  1       -2 0.17355754E+00 0.11085698E+04</pdfrwt>
<totfact> 0.45813562E+00</totfact>
</mgrwt>
</event>
<event>
 4    1  0.2665544E-007  0.1369698E+04  0.7818608E-02  0.9007593E-01
          2   -1    0    0  501    0  0.00000000000E+00  0.00000000000E+00  0.13907800928E+04  0.13907800928E+04  0.25500000000E-02 0. -1.
         -2   -1    0    0    0  501 -0.00000000000E+00 -0.00000000000E+00 -0.17893096304E+04  0.17893096304E+04  0.25500000000E-02 0.  1.
    8880023    1    1    2    0    0  0.11355893912E+04 -0.39076613786E+03  0.70631278629E+03  0.15410870833E+04  0.65864270000E+03 0.  0.
    8880022    1    1    2    0    0 -0.11355893912E+04  0.39076613786E+03 -0.11048423238E+04  0.16390026399E+04  0.15294330000E+03 0.  0.
<mgrwt>
<rscale>  0 0.13280745E+04</rscale>
<asrwt>0</asrwt>
<pdfrwt beam="1">  1        2 0.21396617E+00 0.13696976E+04</pdfrwt>
<pdfrwt beam="2">  1       -2 0.27527840E+00 0.13696976E+04</pdfrwt>
<totfact> 0.62919552E-01</totfact>
</mgrwt>
</event>
<event>
 4    1  0.2665544E-007  0.9137378E+03  0.7818608E-02  0.9504328E-01
         -2   -1    0    0    0  501 -0.00000000000E+00  0.00000000000E+00  0.37245549607E+03  0.37245549608E+03  0.25500000000E-02 0.  1.
          2   -1    0    0  501    0  0.00000000000E+00 -0.00000000000E+00 -0.21366099526E+04  0.21366099526E+04  0.25500000000E-02 0. -1.
    8880023    1    1    2    0    0  0.20204515434E+03  0.60023682004E+03 -0.15913171292E+04  0.18349950672E+04  0.65864270000E+03 0. -1.
    8880022    1    1    2    0    0 -0.20204515434E+03 -0.60023682004E+03 -0.17283732733E+03  0.67407038153E+03  0.15294330000E+03 0.  0.
<mgrwt>
<rscale>  0 0.83965456E+03</rscale>
<asrwt>0</asrwt>
<pdfrwt beam="1">  1        2 0.32870922E+00 0.91373776E+03</pdfrwt>
<pdfrwt beam="2">  1       -2 0.57300847E-01 0.91373776E+03</pdfrwt>
<totfact> 0.16244524E+01</totfact>
</mgrwt>
</event>
<event>
 4    1  0.2665544E-007  0.6618440E+03  0.7818608E-02  0.1022342E+00
         -2   -1    0    0    0  501 -0.00000000000E+00  0.00000000000E+00  0.79956201804E+03  0.79956201805E+03  0.25500000000E-02 0.  1.
          2   -1    0    0  501    0  0.00000000000E+00 -0.00000000000E+00 -0.14502275468E+04  0.14502275468E+04  0.25500000000E-02 0. -1.
    8880023    1    1    2    0    0 -0.57425274872E+02 -0.30489298285E+02 -0.13646726694E+04  0.15166967266E+04  0.65864270000E+03 0. -1.
    8880022    1    1    2    0    0  0.57425274872E+02  0.30489298285E+02  0.71400714069E+03  0.73309283824E+03  0.15294330000E+03 0.  0.
<mgrwt>
<rscale>  0 0.46850857E+03</rscale>
<asrwt>0</asrwt>
<pdfrwt beam="1">  1        2 0.22311193E+00 0.66184399E+03</pdfrwt>
<pdfrwt beam="2">  1       -2 0.12300954E+00 0.66184399E+03</pdfrwt>
<totfact> 0.70187974E+00</totfact>
</mgrwt>
</event>
<event>
 4    1  0.2665544E-007  0.8989173E+03  0.7818608E-02  0.9527772E-01
         -2   -1    0    0    0  501 -0.00000000000E+00  0.00000000000E+00  0.10691662042E+04  0.10691662042E+04  0.25500000000E-02 0.  1.
          2   -1    0    0  501    0  0.00000000000E+00 -0.00000000000E+00 -0.66009292920E+03  0.66009292920E+03  0.25500000000E-02 0. -1.
    8880023    1    1    2    0    0  0.22633005951E+03 -0.56834560902E+03 -0.11900800409E+03  0.90676079450E+03  0.65864270000E+03 0.  0.
    8880022    1    1    2    0    0 -0.22633005951E+03  0.56834560902E+03  0.52808127906E+03  0.82249833887E+03  0.15294330000E+03 0.  0.
<mgrwt>
<rscale>  0 0.82266910E+03</rscale>
<asrwt>0</asrwt>
<pdfrwt beam="1">  1        2 0.10155276E+00 0.89891726E+03</pdfrwt>
<pdfrwt beam="2">  1       -2 0.16448711E+00 0.89891726E+03</pdfrwt>
<totfact> 0.10314085E+01</totfact>
</mgrwt>
</event>
<event>
 4    1  0.2665544E-007  0.1561812E+04  0.7818608E-02  0.8867178E-01
          2   -1    0    0  501    0  0.00000000000E+00  0.00000000000E+00  0.19565908834E+04  0.19565908834E+04  0.25500000000E-02 0. -1.
         -2   -1    0    0    0  501 -0.00000000000E+00 -0.00000000000E+00 -0.27401660689E+04  0.27401660689E+04  0.25500000000E-02 0.  1.
    8880023    1    1    2    0    0 -0.13663482592E+03  0.14095310286E+04  0.13948416673E+04  0.20940010218E+04  0.65864270000E+03 0.  0.
    8880022    1    1    2    0    0  0.13663482592E+03 -0.14095310286E+04 -0.21784168528E+04  0.26027559305E+04  0.15294330000E+03 0.  0.
<mgrwt>
<rscale>  0 0.15262565E+04</rscale>
<asrwt>0</asrwt>
<pdfrwt beam="1">  1        2 0.30101398E+00 0.15618121E+04</pdfrwt>
<pdfrwt beam="2">  1       -2 0.42156401E+00 0.15618121E+04</pdfrwt>
<totfact> 0.35230143E-02</totfact>
</mgrwt>
</event>
<event>
 4    1  0.2665544E-007  0.1899665E+04  0.7818608E-02  0.8669320E-01
         -2   -1    0    0    0  501 -0.00000000000E+00  0.00000000000E+00  0.29373978917E+04  0.29373978917E+04  0.25500000000E-02 0.  1.
          2   -1    0    0  501    0  0.00000000000E+00 -0.00000000000E+00 -0.14499625609E+04  0.14499625609E+04  0.25500000000E-02 0. -1.
    8880023    1    1    2    0    0 -0.17448963654E+04 -0.36090767824E+03 -0.22299998798E+03  0.19127093033E+04  0.65864270000E+03 0.  0.
    8880022    1    1    2    0    0  0.17448963654E+04  0.36090767824E+03  0.17104353188E+04  0.24746511493E+04  0.15294330000E+03 0.  0.
<mgrwt>
<rscale>  0 0.18712114E+04</rscale>
<asrwt>0</asrwt>
<pdfrwt beam="1">  1        2 0.22307116E+00 0.18996652E+04</pdfrwt>
<pdfrwt beam="2">  1       -2 0.45190737E+00 0.18996652E+04</pdfrwt>
<totfact> 0.41103887E-02</totfact>
</mgrwt>
</event>
<event>
 4    1  0.2665544E-007  0.6990007E+03  0.7818608E-02  0.1000137E+00
          2   -1    0    0  501    0  0.00000000000E+00  0.00000000000E+00  0.13657184443E+04  0.13657184443E+04  0.25500000000E-02 0. -1.
         -2   -1    0    0    0  501 -0.00000000000E+00 -0.00000000000E+00 -0.93565944239E+03  0.93565944240E+03  0.25500000000E-02 0.  1.
    8880023    1    1    2    0    0  0.23402785699E+03 -0.47629432868E+01  0.12515964261E+04  0.14335604429E+04  0.65864270000E+03 0. -1.
    8880022    1    1    2    0    0 -0.23402785699E+03  0.47629432868E+01 -0.82153742414E+03  0.86781744380E+03  0.15294330000E+03 0.  0.
<mgrwt>
<rscale>  0 0.55590105E+03</rscale>
<asrwt>0</asrwt>
<pdfrwt beam="1">  1        2 0.21011053E+00 0.69900067E+03</pdfrwt>
<pdfrwt beam="2">  1       -2 0.14394761E+00 0.69900067E+03</pdfrwt>
<totfact> 0.52173975E+00</totfact>
</mgrwt>
</event>
<event>
 4    1  0.3406805E-007  0.1546221E+04  0.7818608E-02  0.8877669E-01
          2   -1    0    0  501    0  0.00000000000E+00  0.00000000000E+00  0.28481194831E+04  0.28481194831E+04  0.25500000000E-02 0. -1.
         -2   -1    0    0    0  501 -0.00000000000E+00 -0.00000000000E+00 -0.18584129199E+04  0.18584129200E+04  0.25500000000E-02 0.  1.
    8880023    1    1    2    0    0 -0.13952102873E+04 -0.10186852578E+03  0.23081191320E+04  0.27781672153E+04  0.65864270000E+03 0.  0.
    8880022    1    1    2    0    0  0.13952102873E+04  0.10186852578E+03 -0.13184125689E+04  0.19283651877E+04  0.15294330000E+03 0.  0.
<mgrwt>
<rscale>  0 0.15102444E+04</rscale>
<asrwt>0</asrwt>
<pdfrwt beam="1">  1        2 0.43817223E+00 0.15462209E+04</pdfrwt>
<pdfrwt beam="2">  1       -2 0.28590968E+00 0.15462209E+04</pdfrwt>
<totfact> 0.78236924E-02</totfact>
</mgrwt>
</event>
<event>
 4    1  0.2665544E-007  0.7877293E+03  0.7818608E-02  0.9737984E-01
         -2   -1    0    0    0  501 -0.00000000000E+00  0.00000000000E+00  0.76962672386E+03  0.76962672386E+03  0.25500000000E-02 0.  1.
          2   -1    0    0  501    0  0.00000000000E+00 -0.00000000000E+00 -0.84249509389E+03  0.84249509389E+03  0.25500000000E-02 0. -1.
    8880023    1    1    2    0    0 -0.13283313704E+03  0.41117224307E+03  0.45764568469E+03  0.91101977736E+03  0.65864270000E+03 0.  1.
    8880022    1    1    2    0    0  0.13283313704E+03 -0.41117224307E+03 -0.53051405472E+03  0.70110204039E+03  0.15294330000E+03 0.  0.
<mgrwt>
<rscale>  0 0.68799571E+03</rscale>
<asrwt>0</asrwt>
<pdfrwt beam="1">  1        2 0.12961463E+00 0.78772931E+03</pdfrwt>
<pdfrwt beam="2">  1       -2 0.11840411E+00 0.78772931E+03</pdfrwt>
<totfact> 0.17834368E+01</totfact>
</mgrwt>
</event>
<event>
 4    1  0.2665544E-007  0.8391441E+03  0.7818608E-02  0.9631796E-01
         -2   -1    0    0    0  501 -0.00000000000E+00  0.00000000000E+00  0.64354639048E+03  0.64354639049E+03  0.25500000000E-02 0.  1.
          2   -1    0    0  501    0  0.00000000000E+00 -0.00000000000E+00 -0.15704071258E+04  0.15704071258E+04  0.25500000000E-02 0. -1.
    8880023    1    1    2    0    0 -0.48024728006E+03  0.19928683170E+03  0.28515939174E+03  0.88627240522E+03  0.65864270000E+03 0.  1.
    8880022    1    1    2    0    0  0.48024728006E+03 -0.19928683170E+03 -0.12120201271E+04  0.13276811111E+04  0.15294330000E+03 0.  0.
<mgrwt>
<rscale>  0 0.75226978E+03</rscale>
<asrwt>0</asrwt>
<pdfrwt beam="1">  1        2 0.24160110E+00 0.83914415E+03</pdfrwt>
<pdfrwt beam="2">  1       -2 0.99007137E-01 0.83914415E+03</pdfrwt>
<totfact> 0.99376506E+00</totfact>
</mgrwt>
</event>
<event>
 4    1  0.2665544E-007  0.8604354E+03  0.7818608E-02  0.9592789E-01
         -2   -1    0    0    0  501 -0.00000000000E+00  0.00000000000E+00  0.34613659122E+03  0.34613659123E+03  0.25500000000E-02 0.  1.
          2   -1    0    0  501    0  0.00000000000E+00 -0.00000000000E+00 -0.23334468375E+04  0.23334468375E+04  0.25500000000E-02 0. -1.
    8880023    1    1    2    0    0  0.17441906795E+02 -0.55338479308E+03 -0.19165616488E+04  0.21008469028E+04  0.65864270000E+03 0. -1.
    8880022    1    1    2    0    0 -0.17441906795E+02  0.55338479308E+03 -0.70748597487E+02  0.57873652588E+03  0.15294330000E+03 0.  0.
<mgrwt>
<rscale>  0 0.77775273E+03</rscale>
<asrwt>0</asrwt>
<pdfrwt beam="1">  1        2 0.35899181E+00 0.86043545E+03</pdfrwt>
<pdfrwt beam="2">  1       -2 0.53251785E-01 0.86043545E+03</pdfrwt>
<totfact> 0.14807744E+01</totfact>
</mgrwt>
</event>
<event>
 4    1  0.2665544E-007  0.1020078E+04  0.7818608E-02  0.9355748E-01
          2   -1    0    0  501    0  0.00000000000E+00  0.00000000000E+00  0.13836016196E+04  0.13836016196E+04  0.25500000000E-02 0. -1.
         -2   -1    0    0    0  501 -0.00000000000E+00 -0.00000000000E+00 -0.10256600621E+04  0.10256600621E+04  0.25500000000E-02 0.  1.
    8880023    1    1    2    0    0  0.68626881512E+03 -0.36848856709E+03  0.96941782599E+03  0.14072419260E+04  0.65864270000E+03 0.  0.
    8880022    1    1    2    0    0 -0.68626881512E+03  0.36848856709E+03 -0.61147626851E+03  0.10020197556E+04  0.15294330000E+03 0.  1.
<mgrwt>
<rscale>  0 0.95808638E+03</rscale>
<asrwt>0</asrwt>
<pdfrwt beam="1">  1        2 0.21286179E+00 0.10200779E+04</pdfrwt>
<pdfrwt beam="2">  1       -2 0.15779386E+00 0.10200779E+04</pdfrwt>
<totfact> 0.38282002E+00</totfact>
</mgrwt>
</event>
<event>
 4    1  0.4694046E-007  0.1179133E+04  0.7818608E-02  0.9177678E-01
          2   -1    0    0  501    0  0.00000000000E+00  0.00000000000E+00  0.30321194723E+04  0.30321194723E+04  0.25500000000E-02 0. -1.
         -2   -1    0    0    0  501 -0.00000000000E+00 -0.00000000000E+00 -0.21454590239E+04  0.21454590239E+04  0.25500000000E-02 0.  1.
    8880023    1    1    2    0    0 -0.90872804564E+03  0.36160383075E+03  0.27918063158E+04  0.30306000565E+04  0.65864270000E+03 0. -1.
    8880022    1    1    2    0    0  0.90872804564E+03 -0.36160383075E+03 -0.19051458674E+04  0.21469784396E+04  0.15294330000E+03 0.  0.
<mgrwt>
<rscale>  0 0.11286824E+04</rscale>
<asrwt>0</asrwt>
<pdfrwt beam="1">  1        2 0.46647992E+00 0.11791328E+04</pdfrwt>
<pdfrwt beam="2">  1       -2 0.33007062E+00 0.11791328E+04</pdfrwt>
<totfact> 0.34327978E-02</totfact>
</mgrwt>
</event>
<event>
 4    1  0.2665544E-007  0.8523896E+03  0.7818608E-02  0.9607247E-01
          2   -1    0    0  501    0  0.00000000000E+00  0.00000000000E+00  0.63748946686E+03  0.63748946686E+03  0.25500000000E-02 0. -1.
         -2   -1    0    0    0  501 -0.00000000000E+00 -0.00000000000E+00 -0.11716511539E+04  0.11716511539E+04  0.25500000000E-02 0.  1.
    8880023    1    1    2    0    0 -0.42147185911E+03 -0.33929240333E+03  0.20861522240E+03  0.87754679662E+03  0.65864270000E+03 0. -1.
    8880022    1    1    2    0    0  0.42147185911E+03  0.33929240333E+03 -0.74277690948E+03  0.93159382418E+03  0.15294330000E+03 0.  1.
<mgrwt>
<rscale>  0 0.76818386E+03</rscale>
<asrwt>0</asrwt>
<pdfrwt beam="1">  1        2 0.98075303E-01 0.85238962E+03</pdfrwt>
<pdfrwt beam="2">  1       -2 0.18025402E+00 0.85238962E+03</pdfrwt>
<totfact> 0.83729745E+00</totfact>
</mgrwt>
</event>
<event>
 4    1  0.2665544E-007  0.1104039E+04  0.7818608E-02  0.9256572E-01
         -2   -1    0    0    0  501 -0.00000000000E+00  0.00000000000E+00  0.35896047591E+03  0.35896047592E+03  0.25500000000E-02 0.  1.
          2   -1    0    0  501    0  0.00000000000E+00 -0.00000000000E+00 -0.31903942856E+04  0.31903942856E+04  0.25500000000E-02 0. -1.
    8880023    1    1    2    0    0 -0.48435958312E+02  0.88472983858E+03 -0.21646532854E+04  0.24299438227E+04  0.65864270000E+03 0.  0.
    8880022    1    1    2    0    0  0.48435958312E+02 -0.88472983858E+03 -0.66678052431E+03  0.11194109388E+04  0.15294330000E+03 0.  0.
<mgrwt>
<rscale>  0 0.10488114E+04</rscale>
<asrwt>0</asrwt>
<pdfrwt beam="1">  1        2 0.49082987E+00 0.11040395E+04</pdfrwt>
<pdfrwt beam="2">  1       -2 0.55224691E-01 0.11040395E+04</pdfrwt>
<totfact> 0.41084173E+00</totfact>
</mgrwt>
</event>
<event>
 4    1  0.2665544E-007  0.8255589E+03  0.7818608E-02  0.9658036E-01
          2   -1    0    0  501    0  0.00000000000E+00  0.00000000000E+00  0.14131584736E+04  0.14131584736E+04  0.25500000000E-02 0. -1.
         -2   -1    0    0    0  501 -0.00000000000E+00 -0.00000000000E+00 -0.52003517824E+03  0.52003517825E+03  0.25500000000E-02 0.  1.
    8880023    1    1    2    0    0 -0.35288589204E+03 -0.35101107432E+03  0.10979150174E+04  0.13736683802E+04  0.65864270000E+03 0. -1.
    8880022    1    1    2    0    0  0.35288589204E+03  0.35101107432E+03 -0.20479172209E+03  0.55952527159E+03  0.15294330000E+03 0.  0.
<mgrwt>
<rscale>  0 0.73571228E+03</rscale>
<asrwt>0</asrwt>
<pdfrwt beam="1">  1        2 0.21740899E+00 0.82555886E+03</pdfrwt>
<pdfrwt beam="2">  1       -2 0.80005414E-01 0.82555886E+03</pdfrwt>
<totfact> 0.19925521E+01</totfact>
</mgrwt>
</event>
<event>
 4    1  0.2665544E-007  0.6783466E+03  0.7818608E-02  0.1010275E+00
         -2   -1    0    0    0  501 -0.00000000000E+00  0.00000000000E+00  0.42899822003E+03  0.42899822004E+03  0.25500000000E-02 0.  1.
          2   -1    0    0  501    0  0.00000000000E+00 -0.00000000000E+00 -0.26191521173E+04  0.26191521173E+04  0.25500000000E-02 0. -1.
    8880023    1    1    2    0    0 -0.10963840191E+03  0.11968005428E+03 -0.25423455135E+04  0.26312876716E+04  0.65864270000E+03 0. -1.
    8880022    1    1    2    0    0  0.10963840191E+03 -0.11968005428E+03  0.35219161619E+03  0.41686266575E+03  0.15294330000E+03 0.  0.
<mgrwt>
<rscale>  0 0.51365569E+03</rscale>
<asrwt>0</asrwt>
<pdfrwt beam="1">  1        2 0.40294647E+00 0.67834659E+03</pdfrwt>
<pdfrwt beam="2">  1       -2 0.65999728E-01 0.67834659E+03</pdfrwt>
<totfact> 0.66856103E+00</totfact>
</mgrwt>
</event>
<event>
 4    1  0.2665544E-007  0.1388422E+04  0.7818608E-02  0.8992732E-01
         -2   -1    0    0    0  501 -0.00000000000E+00  0.00000000000E+00  0.25613998093E+04  0.25613998093E+04  0.25500000000E-02 0.  1.
          2   -1    0    0  501    0  0.00000000000E+00 -0.00000000000E+00 -0.73882787394E+03  0.73882787395E+03  0.25500000000E-02 0. -1.
    8880023    1    1    2    0    0 -0.10070382376E+04  0.69266117016E+03  0.14631873874E+04  0.20170852846E+04  0.65864270000E+03 0.  0.
    8880022    1    1    2    0    0  0.10070382376E+04 -0.69266117016E+03  0.35938454796E+03  0.12831423986E+04  0.15294330000E+03 0.  0.
<mgrwt>
<rscale>  0 0.13474881E+04</rscale>
<asrwt>0</asrwt>
<pdfrwt beam="1">  1        2 0.11366583E+00 0.13884220E+04</pdfrwt>
<pdfrwt beam="2">  1       -2 0.39406151E+00 0.13884220E+04</pdfrwt>
<totfact> 0.30014147E-01</totfact>
</mgrwt>
</event>
<event>
 4    1  0.2665544E-007  0.1238004E+04  0.7818608E-02  0.9121037E-01
         -2   -1    0    0    0  501 -0.00000000000E+00  0.00000000000E+00  0.98993174226E+03  0.98993174226E+03  0.25500000000E-02 0.  1.
          2   -1    0    0  501    0  0.00000000000E+00 -0.00000000000E+00 -0.20341904146E+04  0.20341904146E+04  0.25500000000E-02 0. -1.
    8880023    1    1    2    0    0 -0.51692684028E+03  0.91193771420E+03 -0.14347968218E+04  0.18950714707E+04  0.65864270000E+03 0. -1.
    8880022    1    1    2    0    0  0.51692684028E+03 -0.91193771420E+03  0.39053814947E+03  0.11290506862E+04  0.15294330000E+03 0.  0.
<mgrwt>
<rscale>  0 0.11906991E+04</rscale>
<asrwt>0</asrwt>
<pdfrwt beam="1">  1        2 0.31295237E+00 0.12380040E+04</pdfrwt>
<pdfrwt beam="2">  1       -2 0.15229719E+00 0.12380040E+04</pdfrwt>
<totfact> 0.17833471E+00</totfact>
</mgrwt>
</event>
<event>
 4    1  0.2665544E-007  0.7712710E+03  0.7818608E-02  0.9776756E-01
          2   -1    0    0  501    0  0.00000000000E+00  0.00000000000E+00  0.31243977775E+04  0.31243977775E+04  0.25500000000E-02 0. -1.
         -2   -1    0    0    0  501 -0.00000000000E+00 -0.00000000000E+00 -0.24153329300E+03  0.24153329302E+03  0.25500000000E-02 0.  1.
    8880023    1    1    2    0    0 -0.54424787705E+00 -0.40130848444E+03  0.28300093273E+04  0.29332254933E+04  0.65864270000E+03 0. -1.
    8880022    1    1    2    0    0  0.54424787705E+00  0.40130848444E+03  0.52855157230E+02  0.43270557721E+03  0.15294330000E+03 0.  0.
<mgrwt>
<rscale>  0 0.66625010E+03</rscale>
<asrwt>0</asrwt>
<pdfrwt beam="1">  1        2 0.48067662E+00 0.77127103E+03</pdfrwt>
<pdfrwt beam="2">  1       -2 0.37158965E-01 0.77127103E+03</pdfrwt>
<totfact> 0.10531311E+01</totfact>
</mgrwt>
</event>
<event>
 4    1  0.5129479E-007  0.9449233E+03  0.7818608E-02  0.9457456E-01
          2   -1    0    0  501    0  0.00000000000E+00  0.00000000000E+00  0.22940041031E+04  0.22940041031E+04  0.25500000000E-02 0. -1.
         -2   -1    0    0    0  501 -0.00000000000E+00 -0.00000000000E+00 -0.20178086057E+04  0.20178086057E+04  0.25500000000E-02 0.  1.
    8880023    1    1    2    0    0  0.26907428112E+03  0.62182710537E+03  0.21310613421E+04  0.23311590610E+04  0.65864270000E+03 0. -1.
    8880022    1    1    2    0    0 -0.26907428112E+03 -0.62182710537E+03 -0.18548658447E+04  0.19806536478E+04  0.15294330000E+03 0.  0.
<mgrwt>
<rscale>  0 0.87494403E+03</rscale>
<asrwt>0</asrwt>
<pdfrwt beam="1">  1        2 0.35292371E+00 0.94492334E+03</pdfrwt>
<pdfrwt beam="2">  1       -2 0.31043210E+00 0.94492334E+03</pdfrwt>
<totfact> 0.12884855E-01</totfact>
</mgrwt>
</event>
<event>
 4    1  0.2665544E-007  0.6733170E+03  0.7818608E-02  0.1013389E+00
         -2   -1    0    0    0  501 -0.00000000000E+00  0.00000000000E+00  0.19763023531E+03  0.19763023533E+03  0.25500000000E-02 0.  1.
          2   -1    0    0  501    0  0.00000000000E+00 -0.00000000000E+00 -0.22637181026E+04  0.22637181026E+04  0.25500000000E-02 0. -1.
    8880023    1    1    2    0    0 -0.10977897053E+03 -0.86568684380E+02 -0.21383855009E+04  0.22418849917E+04  0.65864270000E+03 0. -1.
    8880022    1    1    2    0    0  0.10977897053E+03  0.86568684380E+02  0.72297633600E+02  0.21946334620E+03  0.15294330000E+03 0.  0.
<mgrwt>
<rscale>  0 0.50149766E+03</rscale>
<asrwt>0</asrwt>
<pdfrwt beam="1">  1        2 0.34826431E+00 0.67331699E+03</pdfrwt>
<pdfrwt beam="2">  1       -2 0.30404653E-01 0.67331699E+03</pdfrwt>
<totfact> 0.49713431E+01</totfact>
</mgrwt>
</event>
<event>
 4    1  0.2665544E-007  0.9005086E+03  0.7818608E-02  0.9525216E-01
          2   -1    0    0  501    0  0.00000000000E+00  0.00000000000E+00  0.13775872567E+04  0.13775872567E+04  0.25500000000E-02 0. -1.
         -2   -1    0    0    0  501 -0.00000000000E+00 -0.00000000000E+00 -0.62264624782E+03  0.62264624783E+03  0.25500000000E-02 0.  1.
    8880023    1    1    2    0    0  0.58774427562E+03 -0.17793853217E+03  0.97780255880E+03  0.13292906022E+04  0.65864270000E+03 0. -1.
    8880022    1    1    2    0    0 -0.58774427562E+03  0.17793853217E+03 -0.22286154994E+03  0.67094290235E+03  0.15294330000E+03 0.  0.
<mgrwt>
<rscale>  0 0.82450028E+03</rscale>
<asrwt>0</asrwt>
<pdfrwt beam="1">  1        2 0.21193650E+00 0.90050856E+03</pdfrwt>
<pdfrwt beam="2">  1       -2 0.95791731E-01 0.90050856E+03</pdfrwt>
<totfact> 0.13691195E+01</totfact>
</mgrwt>
</event>
<event>
 4    1  0.2665544E-007  0.1259508E+04  0.7818608E-02  0.9101341E-01
          2   -1    0    0  501    0  0.00000000000E+00  0.00000000000E+00  0.44918972298E+04  0.44918972298E+04  0.25500000000E-02 0. -1.
         -2   -1    0    0    0  501 -0.00000000000E+00 -0.00000000000E+00 -0.84992554772E+03  0.84992554772E+03  0.25500000000E-02 0.  1.
    8880023    1    1    2    0    0 -0.39830290286E+03 -0.99694779989E+03  0.40049080298E+04  0.41982911585E+04  0.65864270000E+03 0.  0.
    8880022    1    1    2    0    0  0.39830290286E+03  0.99694779989E+03 -0.36293634774E+03  0.11435316190E+04  0.15294330000E+03 0.  0.
<mgrwt>
<rscale>  0 0.12132461E+04</rscale>
<asrwt>0</asrwt>
<pdfrwt beam="1">  1        2 0.69106112E+00 0.12595080E+04</pdfrwt>
<pdfrwt beam="2">  1       -2 0.13075778E+00 0.12595080E+04</pdfrwt>
<totfact> 0.54389171E-02</totfact>
</mgrwt>
</event>
<event>
 4    1  0.2665544E-007  0.7479636E+03  0.7818608E-02  0.9837329E-01
         -2   -1    0    0    0  501 -0.00000000000E+00  0.00000000000E+00  0.34644006392E+03  0.34644006393E+03  0.25500000000E-02 0.  1.
          2   -1    0    0  501    0  0.00000000000E+00 -0.00000000000E+00 -0.96654238332E+03  0.96654238332E+03  0.25500000000E-02 0. -1.
    8880023    1    1    2    0    0 -0.32641387222E+03 -0.13817863085E+03 -0.28052603304E+03  0.79883941533E+03  0.65864270000E+03 0.  0.
    8880022    1    1    2    0    0  0.32641387222E+03  0.13817863085E+03 -0.33957628636E+03  0.51414303192E+03  0.15294330000E+03 0.  1.
<mgrwt>
<rscale>  0 0.63397178E+03</rscale>
<asrwt>0</asrwt>
<pdfrwt beam="1">  1        2 0.14869883E+00 0.74796361E+03</pdfrwt>
<pdfrwt beam="2">  1       -2 0.53298472E-01 0.74796361E+03</pdfrwt>
<totfact> 0.89089767E+01</totfact>
</mgrwt>
</event>
<event>
 4    1  0.2665544E-007  0.1876827E+04  0.7818608E-02  0.8681188E-01
         -2   -1    0    0    0  501 -0.00000000000E+00  0.00000000000E+00  0.24706728181E+04  0.24706728181E+04  0.25500000000E-02 0.  1.
          2   -1    0    0  501    0  0.00000000000E+00 -0.00000000000E+00 -0.23596803462E+04  0.23596803462E+04  0.25500000000E-02 0. -1.
    8880023    1    1    2    0    0 -0.14873355214E+04 -0.93621720588E+03 -0.15296738696E+04  0.24212356274E+04  0.65864270000E+03 0.  0.
    8880022    1    1    2    0    0  0.14873355214E+04  0.93621720588E+03  0.16406663415E+04  0.24091175369E+04  0.15294330000E+03 0.  0.
<mgrwt>
<rscale>  0 0.18479883E+04</rscale>
<asrwt>0</asrwt>
<pdfrwt beam="1">  1        2 0.36302774E+00 0.18768271E+04</pdfrwt>
<pdfrwt beam="2">  1       -2 0.38010351E+00 0.18768271E+04</pdfrwt>
<totfact> 0.37537416E-02</totfact>
</mgrwt>
</event>
<event>
 4    1  0.2665544E-007  0.9246708E+03  0.7818608E-02  0.9487534E-01
         -2   -1    0    0    0  501 -0.00000000000E+00  0.00000000000E+00  0.88159963698E+03  0.88159963698E+03  0.25500000000E-02 0.  1.
          2   -1    0    0  501    0  0.00000000000E+00 -0.00000000000E+00 -0.11780257884E+04  0.11780257884E+04  0.25500000000E-02 0. -1.
    8880023    1    1    2    0    0 -0.64807317034E+03 -0.34742588131E+02 -0.80106771895E+03  0.12234073639E+04  0.65864270000E+03 0.  0.
    8880022    1    1    2    0    0  0.64807317034E+03  0.34742588131E+02  0.50464156754E+03  0.83621806143E+03  0.15294330000E+03 0.  0.
<mgrwt>
<rscale>  0 0.85209151E+03</rscale>
<asrwt>0</asrwt>
<pdfrwt beam="1">  1        2 0.18123474E+00 0.92467080E+03</pdfrwt>
<pdfrwt beam="2">  1       -2 0.13563071E+00 0.92467080E+03</pdfrwt>
<totfact> 0.76070102E+00</totfact>
</mgrwt>
</event>
<event>
 4    1  0.2665544E-007  0.6731366E+03  0.7818608E-02  0.1013507E+00
         -2   -1    0    0    0  501 -0.00000000000E+00  0.00000000000E+00  0.49689406887E+03  0.49689406888E+03  0.25500000000E-02 0.  1.
          2   -1    0    0  501    0  0.00000000000E+00 -0.00000000000E+00 -0.10486469856E+04  0.10486469856E+04  0.25500000000E-02 0. -1.
    8880023    1    1    2    0    0  0.13892902842E+03 -0.12098082779E+01 -0.91004194692E+03  0.11319404975E+04  0.65864270000E+03 0. -1.
    8880022    1    1    2    0    0 -0.13892902842E+03  0.12098082779E+01  0.35828903016E+03  0.41360055697E+03  0.15294330000E+03 0.  0.
<mgrwt>
<rscale>  0 0.50104159E+03</rscale>
<asrwt>0</asrwt>
<pdfrwt beam="1">  1        2 0.16133031E+00 0.67313665E+03</pdfrwt>
<pdfrwt beam="2">  1       -2 0.76445241E-01 0.67313665E+03</pdfrwt>
<totfact> 0.36768817E+01</totfact>
</mgrwt>
</event>
<event>
 4    1  0.2890235E-007  0.8365558E+03  0.7818608E-02  0.9636709E-01
          2   -1    0    0  501    0  0.00000000000E+00  0.00000000000E+00  0.20457766083E+04  0.20457766083E+04  0.25500000000E-02 0. -1.
         -2   -1    0    0    0  501 -0.00000000000E+00 -0.00000000000E+00 -0.87357842030E+03  0.87357842030E+03  0.25500000000E-02 0.  1.
    8880023    1    1    2    0    0 -0.51574559409E+03 -0.46725072764E+01  0.18639325045E+04  0.20430540712E+04  0.65864270000E+03 0. -1.
    8880022    1    1    2    0    0  0.51574559409E+03  0.46725072764E+01 -0.69173431657E+03  0.87630095736E+03  0.15294330000E+03 0.  0.
<mgrwt>
<rscale>  0 0.74913451E+03</rscale>
<asrwt>0</asrwt>
<pdfrwt beam="1">  1        2 0.31473486E+00 0.83655577E+03</pdfrwt>
<pdfrwt beam="2">  1       -2 0.13439668E+00 0.83655577E+03</pdfrwt>
<totfact> 0.25719948E+00</totfact>
</mgrwt>
</event>
<event>
 4    1  0.2665544E-007  0.7375182E+03  0.7818608E-02  0.9867236E-01
          2   -1    0    0  501    0  0.00000000000E+00  0.00000000000E+00  0.70920285877E+03  0.70920285878E+03  0.25500000000E-02 0. -1.
         -2   -1    0    0    0  501 -0.00000000000E+00 -0.00000000000E+00 -0.78516762460E+03  0.78516762460E+03  0.25500000000E-02 0.  1.
    8880023    1    1    2    0    0  0.31529862185E+03 -0.10348735016E+03  0.44250174171E+03  0.86008188579E+03  0.65864270000E+03 0. -1.
    8880022    1    1    2    0    0 -0.31529862185E+03  0.10348735016E+03 -0.51846650753E+03  0.63428859759E+03  0.15294330000E+03 0.  0.
<mgrwt>
<rscale>  0 0.61875768E+03</rscale>
<asrwt>0</asrwt>
<pdfrwt beam="1">  1        2 0.10910813E+00 0.73751818E+03</pdfrwt>
<pdfrwt beam="2">  1       -2 0.12079502E+00 0.73751818E+03</pdfrwt>
<totfact> 0.21365954E+01</totfact>
</mgrwt>
</event>
<event>
 4    1  0.2665544E-007  0.7032816E+03  0.7818608E-02  0.9983851E-01
          2   -1    0    0  501    0  0.00000000000E+00  0.00000000000E+00  0.15727270448E+04  0.15727270448E+04  0.25500000000E-02 0. -1.
         -2   -1    0    0    0  501 -0.00000000000E+00 -0.00000000000E+00 -0.66457032551E+03  0.66457032551E+03  0.25500000000E-02 0.  1.
    8880023    1    1    2    0    0  0.16235704105E+02 -0.24603087705E+03  0.14562290636E+04  0.16171604999E+04  0.65864270000E+03 0. -1.
    8880022    1    1    2    0    0 -0.16235704105E+02  0.24603087705E+03 -0.54807234425E+03  0.62013687045E+03  0.15294330000E+03 0.  0.
<mgrwt>
<rscale>  0 0.56364052E+03</rscale>
<asrwt>0</asrwt>
<pdfrwt beam="1">  1        2 0.24195800E+00 0.70328159E+03</pdfrwt>
<pdfrwt beam="2">  1       -2 0.10224159E+00 0.70328159E+03</pdfrwt>
<totfact> 0.93497536E+00</totfact>
</mgrwt>
</event>
<event>
 4    1  0.2665544E-007  0.1068548E+04  0.7818608E-02  0.9296909E-01
         -2   -1    0    0    0  501 -0.00000000000E+00  0.00000000000E+00  0.44577672562E+03  0.44577672563E+03  0.25500000000E-02 0.  1.
          2   -1    0    0  501    0  0.00000000000E+00 -0.00000000000E+00 -0.36374821874E+04  0.36374821874E+04  0.25500000000E-02 0. -1.
    8880023    1    1    2    0    0 -0.83054775587E+03  0.13481595886E+03 -0.30300059821E+04  0.32129007728E+04  0.65864270000E+03 0. -1.
    8880022    1    1    2    0    0  0.83054775587E+03 -0.13481595886E+03 -0.16169947959E+03  0.87035814022E+03  0.15294330000E+03 0.  0.
<mgrwt>
<rscale>  0 0.10106789E+04</rscale>
<asrwt>0</asrwt>
<pdfrwt beam="1">  1        2 0.55961262E+00 0.10685481E+04</pdfrwt>
<pdfrwt beam="2">  1       -2 0.68581037E-01 0.10685481E+04</pdfrwt>
<totfact> 0.12970752E+00</totfact>
</mgrwt>
</event>
<event>
 4    1  0.2665544E-007  0.1251550E+04  0.7818608E-02  0.9108571E-01
          2   -1    0    0  501    0  0.00000000000E+00  0.00000000000E+00  0.84208479275E+03  0.84208479275E+03  0.25500000000E-02 0. -1.
         -2   -1    0    0    0  501 -0.00000000000E+00 -0.00000000000E+00 -0.24779524569E+04  0.24779524569E+04  0.25500000000E-02 0.  1.
    8880023    1    1    2    0    0 -0.86236670031E+03 -0.62361155227E+03  0.12405913995E+03  0.12576838118E+04  0.65864270000E+03 0. -1.
    8880022    1    1    2    0    0  0.86236670031E+03  0.62361155227E+03 -0.17599268041E+04  0.20623534379E+04  0.15294330000E+03 0.  0.
<mgrwt>
<rscale>  0 0.12049084E+04</rscale>
<asrwt>0</asrwt>
<pdfrwt beam="1">  1        2 0.12955151E+00 0.12515502E+04</pdfrwt>
<pdfrwt beam="2">  1       -2 0.38122345E+00 0.12515502E+04</pdfrwt>
<totfact> 0.30985113E-01</totfact>
</mgrwt>
</event>
<event>
 4    1  0.2665544E-007  0.9118388E+03  0.7818608E-02  0.9507288E-01
          2   -1    0    0  501    0  0.00000000000E+00  0.00000000000E+00  0.25767757846E+04  0.25767757846E+04  0.25500000000E-02 0. -1.
         -2   -1    0    0    0  501 -0.00000000000E+00 -0.00000000000E+00 -0.42393991404E+03  0.42393991405E+03  0.25500000000E-02 0.  1.
    8880023    1    1    2    0    0 -0.53454398652E+03  0.33451834708E+03  0.18734161585E+03  0.93088500114E+03  0.65864270000E+03 0.  0.
    8880022    1    1    2    0    0  0.53454398652E+03 -0.33451834708E+03  0.19654942547E+04  0.20698306975E+04  0.15294330000E+03 0.  0.
<mgrwt>
<rscale>  0 0.83748661E+03</rscale>
<asrwt>0</asrwt>
<pdfrwt beam="1">  1        2 0.39642704E+00 0.91183880E+03</pdfrwt>
<pdfrwt beam="2">  1       -2 0.65221526E-01 0.91183880E+03</pdfrwt>
<totfact> 0.69764804E+00</totfact>
</mgrwt>
</event>
<event>
 4    1  0.2665544E-007  0.1097297E+04  0.7818608E-02  0.9264072E-01
          2   -1    0    0  501    0  0.00000000000E+00  0.00000000000E+00  0.75228744076E+03  0.75228744077E+03  0.25500000000E-02 0. -1.
         -2   -1    0    0    0  501 -0.00000000000E+00 -0.00000000000E+00 -0.20581535326E+04  0.20581535326E+04  0.25500000000E-02 0.  1.
    8880023    1    1    2    0    0 -0.32129864777E+03 -0.81671117955E+03  0.14607945553E+03  0.11069775903E+04  0.65864270000E+03 0.  0.
    8880022    1    1    2    0    0  0.32129864777E+03  0.81671117955E+03 -0.14519455473E+04  0.17034633830E+04  0.15294330000E+03 0.  0.
<mgrwt>
<rscale>  0 0.10415884E+04</rscale>
<asrwt>0</asrwt>
<pdfrwt beam="1">  1        2 0.11573653E+00 0.10972968E+04</pdfrwt>
<pdfrwt beam="2">  1       -2 0.31663900E+00 0.10972968E+04</pdfrwt>
<totfact> 0.93324183E-01</totfact>
</mgrwt>
</event>
<event>
 4    1  0.2665544E-007  0.7436801E+03  0.7818608E-02  0.9849354E-01
          2   -1    0    0  501    0  0.00000000000E+00  0.00000000000E+00  0.73557508874E+03  0.73557508874E+03  0.25500000000E-02 0. -1.
         -2   -1    0    0    0  501 -0.00000000000E+00 -0.00000000000E+00 -0.55087843583E+03  0.55087843584E+03  0.25500000000E-02 0.  1.
    8880023    1    1    2    0    0 -0.33479596959E+03 -0.84625889961E+02  0.40744491621E+03  0.84798080669E+03  0.65864270000E+03 0. -1.
    8880022    1    1    2    0    0  0.33479596959E+03  0.84625889961E+02 -0.22274826331E+03  0.43847271788E+03  0.15294330000E+03 0.  1.
<mgrwt>
<rscale>  0 0.62779864E+03</rscale>
<asrwt>0</asrwt>
<pdfrwt beam="1">  1        2 0.11316540E+00 0.74368010E+03</pdfrwt>
<pdfrwt beam="2">  1       -2 0.84750529E-01 0.74368010E+03</pdfrwt>
<totfact> 0.47286612E+01</totfact>
</mgrwt>
</event>
<event>
 4    1  0.2665544E-007  0.1303509E+04  0.7818608E-02  0.9062536E-01
         -2   -1    0    0    0  501 -0.00000000000E+00  0.00000000000E+00  0.17857779815E+04  0.17857779815E+04  0.25500000000E-02 0.  1.
          2   -1    0    0  501    0  0.00000000000E+00 -0.00000000000E+00 -0.10410807887E+04  0.10410807887E+04  0.25500000000E-02 0. -1.
    8880023    1    1    2    0    0  0.10157372920E+03  0.11202714120E+04  0.10241932265E+04  0.16577416055E+04  0.65864270000E+03 0.  1.
    8880022    1    1    2    0    0 -0.10157372920E+03 -0.11202714120E+04 -0.27949603365E+03  0.11691171647E+04  0.15294330000E+03 0.  0.
<mgrwt>
<rscale>  0 0.12592304E+04</rscale>
<asrwt>0</asrwt>
<pdfrwt beam="1">  1        2 0.16016628E+00 0.13035089E+04</pdfrwt>
<pdfrwt beam="2">  1       -2 0.27473507E+00 0.13035089E+04</pdfrwt>
<totfact> 0.10374166E+00</totfact>
</mgrwt>
</event>
<event>
 4    1  0.2665544E-007  0.1180887E+04  0.7818608E-02  0.9175929E-01
          2   -1    0    0  501    0  0.00000000000E+00  0.00000000000E+00  0.15574571735E+04  0.15574571735E+04  0.25500000000E-02 0. -1.
         -2   -1    0    0    0  501 -0.00000000000E+00 -0.00000000000E+00 -0.11496239496E+04  0.11496239496E+04  0.25500000000E-02 0.  1.
    8880023    1    1    2    0    0  0.80133394109E+03 -0.56439997564E+03  0.10037546116E+04  0.15498441677E+04  0.65864270000E+03 0. -1.
    8880022    1    1    2    0    0 -0.80133394109E+03  0.56439997564E+03 -0.59592138768E+03  0.11572369554E+04  0.15294330000E+03 0.  0.
<mgrwt>
<rscale>  0 0.11305369E+04</rscale>
<asrwt>0</asrwt>
<pdfrwt beam="1">  1        2 0.23960880E+00 0.11808868E+04</pdfrwt>
<pdfrwt beam="2">  1       -2 0.17686522E+00 0.11808868E+04</pdfrwt>
<totfact> 0.21844061E+00</totfact>
</mgrwt>
</event>
<event>
 4    1  0.2665544E-007  0.1399427E+04  0.7818608E-02  0.8984128E-01
          2   -1    0    0  501    0  0.00000000000E+00  0.00000000000E+00  0.11168054675E+04  0.11168054675E+04  0.25500000000E-02 0. -1.
         -2   -1    0    0    0  501 -0.00000000000E+00 -0.00000000000E+00 -0.24208016985E+04  0.24208016985E+04  0.25500000000E-02 0.  1.
    8880023    1    1    2    0    0  0.11456045219E+04 -0.46062636696E+03 -0.17276080666E+04  0.22232917507E+04  0.65864270000E+03 0. -1.
    8880022    1    1    2    0    0 -0.11456045219E+04  0.46062636696E+03  0.42361183561E+03  0.13143154153E+04  0.15294330000E+03 0.  1.
<mgrwt>
<rscale>  0 0.13588870E+04</rscale>
<asrwt>0</asrwt>
<pdfrwt beam="1">  1        2 0.17181623E+00 0.13994272E+04</pdfrwt>
<pdfrwt beam="2">  1       -2 0.37243103E+00 0.13994272E+04</pdfrwt>
<totfact> 0.22840966E-01</totfact>
</mgrwt>
</event>
<event>
 4    1  0.2665544E-007  0.8690995E+03  0.7818608E-02  0.9577578E-01
          2   -1    0    0  501    0  0.00000000000E+00  0.00000000000E+00  0.14841442827E+04  0.14841442827E+04  0.25500000000E-02 0. -1.
         -2   -1    0    0    0  501 -0.00000000000E+00 -0.00000000000E+00 -0.64842137061E+03  0.64842137062E+03  0.25500000000E-02 0.  1.
    8880023    1    1    2    0    0 -0.43148011333E+03  0.36789754843E+03  0.11694809974E+04  0.14570585794E+04  0.65864270000E+03 0. -1.
    8880022    1    1    2    0    0  0.43148011333E+03 -0.36789754843E+03 -0.33375808532E+03  0.67550707389E+03  0.15294330000E+03 0.  0.
<mgrwt>
<rscale>  0 0.78798179E+03</rscale>
<asrwt>0</asrwt>
<pdfrwt beam="1">  1        2 0.22832989E+00 0.86909948E+03</pdfrwt>
<pdfrwt beam="2">  1       -2 0.99757135E-01 0.86909948E+03</pdfrwt>
<totfact> 0.10866202E+01</totfact>
</mgrwt>
</event>
<event>
 4    1  0.2665544E-007  0.8763407E+03  0.7818608E-02  0.9565132E-01
          2   -1    0    0  501    0  0.00000000000E+00  0.00000000000E+00  0.10520976811E+04  0.10520976811E+04  0.25500000000E-02 0. -1.
         -2   -1    0    0    0  501 -0.00000000000E+00 -0.00000000000E+00 -0.72185475509E+03  0.72185475509E+03  0.25500000000E-02 0.  1.
    8880023    1    1    2    0    0  0.14129607865E+03 -0.56053388107E+03  0.65446206956E+03  0.10937520836E+04  0.65864270000E+03 0. -1.
    8880022    1    1    2    0    0 -0.14129607865E+03  0.56053388107E+03 -0.32421914351E+03  0.68020035262E+03  0.15294330000E+03 0.  0.
<mgrwt>
<rscale>  0 0.79647567E+03</rscale>
<asrwt>0</asrwt>
<pdfrwt beam="1">  1        2 0.16186118E+00 0.87634070E+03</pdfrwt>
<pdfrwt beam="2">  1       -2 0.11105458E+00 0.87634070E+03</pdfrwt>
<totfact> 0.15045088E+01</totfact>
</mgrwt>
</event>
<event>
 4    1  0.2665544E-007  0.7067181E+03  0.7818608E-02  0.9970396E-01
          2   -1    0    0  501    0  0.00000000000E+00  0.00000000000E+00  0.52510380388E+03  0.52510380388E+03  0.25500000000E-02 0. -1.
         -2   -1    0    0    0  501 -0.00000000000E+00 -0.00000000000E+00 -0.51490751972E+03  0.51490751972E+03  0.25500000000E-02 0.  1.
    8880023    1    1    2    0    0 -0.17695339147E+03  0.18527738216E+03  0.12982101700E+03  0.71854291021E+03  0.65864270000E+03 0. -1.
    8880022    1    1    2    0    0  0.17695339147E+03 -0.18527738216E+03 -0.11962473284E+03  0.32146841340E+03  0.15294330000E+03 0.  0.
<mgrwt>
<rscale>  0 0.56967587E+03</rscale>
<asrwt>0</asrwt>
<pdfrwt beam="1">  1        2 0.80785201E-01 0.70671806E+03</pdfrwt>
<pdfrwt beam="2">  1       -2 0.79216541E-01 0.70671806E+03</pdfrwt>
<totfact> 0.83324914E+01</totfact>
</mgrwt>
</event>
<event>
 4    1  0.2665544E-007  0.1534053E+04  0.7818608E-02  0.8885957E-01
         -2   -1    0    0    0  501 -0.00000000000E+00  0.00000000000E+00  0.12961232273E+04  0.12961232273E+04  0.25500000000E-02 0.  1.
          2   -1    0    0  501    0  0.00000000000E+00 -0.00000000000E+00 -0.23608431491E+04  0.23608431491E+04  0.25500000000E-02 0. -1.
    8880023    1    1    2    0    0 -0.11292016770E+04  0.80275217617E+03  0.44981273986E+03  0.15986397940E+04  0.65864270000E+03 0.  1.
    8880022    1    1    2    0    0  0.11292016770E+04 -0.80275217617E+03 -0.15145326616E+04  0.20583265824E+04  0.15294330000E+03 0.  0.
<mgrwt>
<rscale>  0 0.14977402E+04</rscale>
<asrwt>0</asrwt>
<pdfrwt beam="1">  1        2 0.36320664E+00 0.15340527E+04</pdfrwt>
<pdfrwt beam="2">  1       -2 0.19940357E+00 0.15340527E+04</pdfrwt>
<totfact> 0.52578529E-01</totfact>
</mgrwt>
</event>
<event>
 4    1  0.2665544E-007  0.8292165E+03  0.7818608E-02  0.9650859E-01
          2   -1    0    0  501    0  0.00000000000E+00  0.00000000000E+00  0.29457888500E+04  0.29457888500E+04  0.25500000000E-02 0. -1.
         -2   -1    0    0    0  501 -0.00000000000E+00 -0.00000000000E+00 -0.24560146627E+03  0.24560146628E+03  0.25500000000E-02 0.  1.
    8880023    1    1    2    0    0 -0.35032631753E+03  0.36202396264E+03  0.24901055808E+04  0.26245429866E+04  0.65864270000E+03 0.  0.
    8880022    1    1    2    0    0  0.35032631753E+03 -0.36202396264E+03  0.21008180286E+03  0.56684732970E+03  0.15294330000E+03 0.  0.
<mgrwt>
<rscale>  0 0.74019561E+03</rscale>
<asrwt>0</asrwt>
<pdfrwt beam="1">  1        2 0.45319827E+00 0.82921655E+03</pdfrwt>
<pdfrwt beam="2">  1       -2 0.37784842E-01 0.82921655E+03</pdfrwt>
<totfact> 0.13017730E+01</totfact>
</mgrwt>
</event>
<event>
 4    1  0.2665544E-007  0.7009015E+03  0.7818608E-02  0.9993482E-01
          2   -1    0    0  501    0  0.00000000000E+00  0.00000000000E+00  0.49593589323E+04  0.49593589323E+04  0.25500000000E-02 0. -1.
         -2   -1    0    0    0  501 -0.00000000000E+00 -0.00000000000E+00 -0.74448495207E+03  0.74448495208E+03  0.25500000000E-02 0.  1.
    8880023    1    1    2    0    0 -0.24001236869E+02  0.23848829592E+03  0.49063660722E+04  0.49561770516E+04  0.65864270000E+03 0. -1.
    8880022    1    1    2    0    0  0.24001236869E+02 -0.23848829592E+03 -0.69149209191E+03  0.74766683279E+03  0.15294330000E+03 0.  0.
<mgrwt>
<rscale>  0 0.55936975E+03</rscale>
<asrwt>0</asrwt>
<pdfrwt beam="1">  1        2 0.76297830E+00 0.70090151E+03</pdfrwt>
<pdfrwt beam="2">  1       -2 0.11453615E+00 0.70090151E+03</pdfrwt>
<totfact> 0.27655062E-02</totfact>
</mgrwt>
</event>
<event>
 4    1  0.2665544E-007  0.8700952E+03  0.7818608E-02  0.9575852E-01
          2   -1    0    0  501    0  0.00000000000E+00  0.00000000000E+00  0.94427702573E+03  0.94427702573E+03  0.25500000000E-02 0. -1.
         -2   -1    0    0    0  501 -0.00000000000E+00 -0.00000000000E+00 -0.13598867497E+04  0.13598867497E+04  0.25500000000E-02 0.  1.
    8880023    1    1    2    0    0 -0.18103191731E+03 -0.53896466569E+03  0.65043497247E+03  0.10863384950E+04  0.65864270000E+03 0. -1.
    8880022    1    1    2    0    0  0.18103191731E+03  0.53896466569E+03 -0.10660446965E+04  0.12178252805E+04  0.15294330000E+03 0.  0.
<mgrwt>
<rscale>  0 0.78915267E+03</rscale>
<asrwt>0</asrwt>
<pdfrwt beam="1">  1        2 0.14527339E+00 0.87009521E+03</pdfrwt>
<pdfrwt beam="2">  1       -2 0.20921335E+00 0.87009521E+03</pdfrwt>
<totfact> 0.31989828E+00</totfact>
</mgrwt>
</event>
<event>
 4    1  0.2665544E-007  0.1450494E+04  0.7818608E-02  0.8945409E-01
         -2   -1    0    0    0  501 -0.00000000000E+00  0.00000000000E+00  0.13869763045E+04  0.13869763045E+04  0.25500000000E-02 0.  1.
          2   -1    0    0  501    0  0.00000000000E+00 -0.00000000000E+00 -0.18118623350E+04  0.18118623350E+04  0.25500000000E-02 0. -1.
    8880023    1    1    2    0    0  0.10749957785E+04 -0.71729146389E+03 -0.10145795524E+04  0.17701143586E+04  0.65864270000E+03 0. -1.
    8880022    1    1    2    0    0 -0.10749957785E+04  0.71729146389E+03  0.58969352196E+03  0.14287242809E+04  0.15294330000E+03 0.  0.
<mgrwt>
<rscale>  0 0.14116778E+04</rscale>
<asrwt>0</asrwt>
<pdfrwt beam="1">  1        2 0.27874805E+00 0.14504941E+04</pdfrwt>
<pdfrwt beam="2">  1       -2 0.21338097E+00 0.14504941E+04</pdfrwt>
<totfact> 0.87380785E-01</totfact>
</mgrwt>
</event>
<event>
 4    1  0.2665544E-007  0.1196917E+04  0.7818608E-02  0.9160125E-01
          2   -1    0    0  501    0  0.00000000000E+00  0.00000000000E+00  0.13494146641E+04  0.13494146641E+04  0.25500000000E-02 0. -1.
         -2   -1    0    0    0  501 -0.00000000000E+00 -0.00000000000E+00 -0.21704381171E+04  0.21704381171E+04  0.25500000000E-02 0.  1.
    8880023    1    1    2    0    0 -0.81419891526E+03 -0.57955097462E+03  0.91790973078E+03  0.15083658992E+04  0.65864270000E+03 0. -1.
    8880022    1    1    2    0    0  0.81419891526E+03  0.57955097462E+03 -0.17389331838E+04  0.20114868820E+04  0.15294330000E+03 0.  0.
<mgrwt>
<rscale>  0 0.11474649E+04</rscale>
<asrwt>0</asrwt>
<pdfrwt beam="1">  1        2 0.20760226E+00 0.11969166E+04</pdfrwt>
<pdfrwt beam="2">  1       -2 0.33391356E+00 0.11969166E+04</pdfrwt>
<totfact> 0.29747304E-01</totfact>
</mgrwt>
</event>
<event>
 4    1  0.2665544E-007  0.6928153E+03  0.7818608E-02  0.1002842E+00
         -2   -1    0    0    0  501 -0.00000000000E+00  0.00000000000E+00  0.39593760016E+03  0.39593760017E+03  0.25500000000E-02 0.  1.
          2   -1    0    0  501    0  0.00000000000E+00 -0.00000000000E+00 -0.18207647472E+04  0.18207647472E+04  0.25500000000E-02 0. -1.
    8880023    1    1    2    0    0  0.70448650248E+01  0.21478636910E+03 -0.16998622638E+04  0.18356265243E+04  0.65864270000E+03 0.  0.
    8880022    1    1    2    0    0 -0.70448650248E+01 -0.21478636910E+03  0.27503511677E+03  0.38107582309E+03  0.15294330000E+03 0.  0.
<mgrwt>
<rscale>  0 0.54421353E+03</rscale>
<asrwt>0</asrwt>
<pdfrwt beam="1">  1        2 0.28011765E+00 0.69281529E+03</pdfrwt>
<pdfrwt beam="2">  1       -2 0.60913478E-01 0.69281529E+03</pdfrwt>
<totfact> 0.21879033E+01</totfact>
</mgrwt>
</event>
<event>
 4    1  0.2665544E-007  0.7511472E+03  0.7818608E-02  0.9828590E-01
          2   -1    0    0  501    0  0.00000000000E+00  0.00000000000E+00  0.47276710188E+03  0.47276710189E+03  0.25500000000E-02 0. -1.
         -2   -1    0    0    0  501 -0.00000000000E+00 -0.00000000000E+00 -0.15706390292E+04  0.15706390292E+04  0.25500000000E-02 0.  1.
    8880023    1    1    2    0    0  0.35574964870E+03  0.62081838784E+02  0.12294600327E+03  0.76114249208E+03  0.65864270000E+03 0. -1.
    8880022    1    1    2    0    0 -0.35574964870E+03 -0.62081838784E+02 -0.12208179306E+04  0.12822636391E+04  0.15294330000E+03 0.  0.
<mgrwt>
<rscale>  0 0.63850548E+03</rscale>
<asrwt>0</asrwt>
<pdfrwt beam="1">  1        2 0.72733401E-01 0.75114724E+03</pdfrwt>
<pdfrwt beam="2">  1       -2 0.24163677E+00 0.75114724E+03</pdfrwt>
<totfact> 0.48834844E+00</totfact>
</mgrwt>
</event>
<event>
 4    1  0.2665544E-007  0.9621838E+03  0.7818608E-02  0.9432797E-01
          2   -1    0    0  501    0  0.00000000000E+00  0.00000000000E+00  0.25338518050E+04  0.25338518050E+04  0.25500000000E-02 0. -1.
         -2   -1    0    0    0  501 -0.00000000000E+00 -0.00000000000E+00 -0.35258486826E+03  0.35258486827E+03  0.25500000000E-02 0.  1.
    8880023    1    1    2    0    0 -0.64526528687E+03  0.27499121605E+03  0.18719109222E+04  0.21047204485E+04  0.65864270000E+03 0.  0.
    8880022    1    1    2    0    0  0.64526528687E+03 -0.27499121605E+03  0.30935601453E+03  0.78171622478E+03  0.15294330000E+03 0.  0.
<mgrwt>
<rscale>  0 0.89425089E+03</rscale>
<asrwt>0</asrwt>
<pdfrwt beam="1">  1        2 0.38982336E+00 0.96218380E+03</pdfrwt>
<pdfrwt beam="2">  1       -2 0.54243825E-01 0.96218380E+03</pdfrwt>
<totfact> 0.10831440E+01</totfact>
</mgrwt>
</event>
<event>
 4    1  0.2665544E-007  0.7273023E+03  0.7818608E-02  0.9898610E-01
          2   -1    0    0  501    0  0.00000000000E+00  0.00000000000E+00  0.10721271813E+04  0.10721271813E+04  0.25500000000E-02 0. -1.
         -2   -1    0    0    0  501 -0.00000000000E+00 -0.00000000000E+00 -0.55365275020E+03  0.55365275020E+03  0.25500000000E-02 0.  1.
    8880023    1    1    2    0    0 -0.29115139664E+03 -0.10192797933E+03  0.86983881619E+03  0.11338378284E+04  0.65864270000E+03 0. -1.
    8880022    1    1    2    0    0  0.29115139664E+03  0.10192797933E+03 -0.35136438505E+03  0.49194210313E+03  0.15294330000E+03 0.  0.
<mgrwt>
<rscale>  0 0.60328700E+03</rscale>
<asrwt>0</asrwt>
<pdfrwt beam="1">  1        2 0.16494264E+00 0.72730231E+03</pdfrwt>
<pdfrwt beam="2">  1       -2 0.85177347E-01 0.72730231E+03</pdfrwt>
<totfact> 0.27716982E+01</totfact>
</mgrwt>
</event>
<event>
 4    1  0.2665544E-007  0.1340288E+04  0.7818608E-02  0.9031527E-01
         -2   -1    0    0    0  501 -0.00000000000E+00  0.00000000000E+00  0.15979570800E+04  0.15979570800E+04  0.25500000000E-02 0.  1.
          2   -1    0    0  501    0  0.00000000000E+00 -0.00000000000E+00 -0.17918144393E+04  0.17918144393E+04  0.25500000000E-02 0. -1.
    8880023    1    1    2    0    0  0.65290890203E+03 -0.96761114090E+03 -0.12317479138E+04  0.18203226318E+04  0.65864270000E+03 0.  0.
    8880022    1    1    2    0    0 -0.65290890203E+03  0.96761114090E+03  0.10378905546E+04  0.15694488875E+04  0.15294330000E+03 0.  0.
<mgrwt>
<rscale>  0 0.12975292E+04</rscale>
<asrwt>0</asrwt>
<pdfrwt beam="1">  1        2 0.27566376E+00 0.13402879E+04</pdfrwt>
<pdfrwt beam="2">  1       -2 0.24583955E+00 0.13402879E+04</pdfrwt>
<totfact> 0.56769654E-01</totfact>
</mgrwt>
</event>
<event>
 4    1  0.2665544E-007  0.1014076E+04  0.7818608E-02  0.9363369E-01
         -2   -1    0    0    0  501 -0.00000000000E+00  0.00000000000E+00  0.87325234108E+03  0.87325234108E+03  0.25500000000E-02 0.  1.
          2   -1    0    0  501    0  0.00000000000E+00 -0.00000000000E+00 -0.12621814635E+04  0.12621814635E+04  0.25500000000E-02 0. -1.
    8880023    1    1    2    0    0  0.65875724458E+03  0.40072357389E+03 -0.75893290376E+03  0.12666214307E+04  0.65864270000E+03 0.  0.
    8880022    1    1    2    0    0 -0.65875724458E+03 -0.40072357389E+03  0.37000378129E+03  0.86881237396E+03  0.15294330000E+03 0.  0.
<mgrwt>
<rscale>  0 0.95152579E+03</rscale>
<asrwt>0</asrwt>
<pdfrwt beam="1">  1        2 0.19418176E+00 0.10140763E+04</pdfrwt>
<pdfrwt beam="2">  1       -2 0.13434651E+00 0.10140763E+04</pdfrwt>
<totfact> 0.68843576E+00</totfact>
</mgrwt>
</event>
<event>
 4    1  0.2665544E-007  0.6638176E+03  0.7818608E-02  0.1020547E+00
         -2   -1    0    0    0  501 -0.00000000000E+00  0.00000000000E+00  0.16950043393E+03  0.16950043395E+03  0.25500000000E-02 0.  1.
          2   -1    0    0  501    0  0.00000000000E+00 -0.00000000000E+00 -0.19254966826E+04  0.19254966826E+04  0.25500000000E-02 0. -1.
    8880023    1    1    2    0    0 -0.82664857880E+02 -0.31739773683E+01 -0.17975616414E+04  0.19162154403E+04  0.65864270000E+03 0. -1.
    8880022    1    1    2    0    0  0.82664857880E+02  0.31739773683E+01  0.41565392739E+02  0.17878167621E+03  0.15294330000E+03 0.  0.
<mgrwt>
<rscale>  0 0.47489836E+03</rscale>
<asrwt>0</asrwt>
<pdfrwt beam="1">  1        2 0.29623024E+00 0.66381756E+03</pdfrwt>
<pdfrwt beam="2">  1       -2 0.26076991E-01 0.66381756E+03</pdfrwt>
<totfact> 0.10094640E+02</totfact>
</mgrwt>
</event>
<event>
 4    1  0.2665544E-007  0.6814188E+03  0.7818608E-02  0.1008532E+00
         -2   -1    0    0    0  501 -0.00000000000E+00  0.00000000000E+00  0.25363608418E+03  0.25363608420E+03  0.25500000000E-02 0.  1.
          2   -1    0    0  501    0  0.00000000000E+00 -0.00000000000E+00 -0.10188179241E+04  0.10188179241E+04  0.25500000000E-02 0. -1.
    8880023    1    1    2    0    0 -0.12042063336E+03 -0.12657106137E+03 -0.78490450370E+03  0.10394261151E+04  0.65864270000E+03 0. -1.
    8880022    1    1    2    0    0  0.12042063336E+03  0.12657106137E+03  0.19722663827E+02  0.23302789318E+03  0.15294330000E+03 0.  1.
<mgrwt>
<rscale>  0 0.52062172E+03</rscale>
<asrwt>0</asrwt>
<pdfrwt beam="1">  1        2 0.15674122E+00 0.68141879E+03</pdfrwt>
<pdfrwt beam="2">  1       -2 0.39020937E-01 0.68141879E+03</pdfrwt>
<totfact> 0.15457737E+02</totfact>
</mgrwt>
</event>
<event>
 4    1  0.2665544E-007  0.1217972E+04  0.7818608E-02  0.9139847E-01
          2   -1    0    0  501    0  0.00000000000E+00  0.00000000000E+00  0.93440328379E+03  0.93440328380E+03  0.25500000000E-02 0. -1.
         -2   -1    0    0    0  501 -0.00000000000E+00 -0.00000000000E+00 -0.21815478072E+04  0.21815478072E+04  0.25500000000E-02 0.  1.
    8880023    1    1    2    0    0  0.86656671896E+03  0.54654119871E+03  0.29969238117E+03  0.12543009567E+04  0.65864270000E+03 0. -1.
    8880022    1    1    2    0    0 -0.86656671896E+03 -0.54654119871E+03 -0.15468369046E+04  0.18616501343E+04  0.15294330000E+03 0.  0.
<mgrwt>
<rscale>  0 0.11696469E+04</rscale>
<asrwt>0</asrwt>
<pdfrwt beam="1">  1        2 0.14375435E+00 0.12179718E+04</pdfrwt>
<pdfrwt beam="2">  1       -2 0.33562274E+00 0.12179718E+04</pdfrwt>
<totfact> 0.52178928E-01</totfact>
</mgrwt>
</event>
<event>
 4    1  0.2665544E-007  0.9673709E+03  0.7818608E-02  0.9425550E-01
          2   -1    0    0  501    0  0.00000000000E+00  0.00000000000E+00  0.14374445599E+04  0.14374445599E+04  0.25500000000E-02 0. -1.
         -2   -1    0    0    0  501 -0.00000000000E+00 -0.00000000000E+00 -0.52386641894E+03  0.52386641894E+03  0.25500000000E-02 0.  1.
    8880023    1    1    2    0    0  0.68286525188E+03 -0.18892118923E+03  0.73467201385E+03  0.12147219197E+04  0.65864270000E+03 0. -1.
    8880022    1    1    2    0    0 -0.68286525188E+03  0.18892118923E+03  0.17890612714E+03  0.74658905919E+03  0.15294330000E+03 0. -1.
<mgrwt>
<rscale>  0 0.90002537E+03</rscale>
<asrwt>0</asrwt>
<pdfrwt beam="1">  1        2 0.22114532E+00 0.96737086E+03</pdfrwt>
<pdfrwt beam="2">  1       -2 0.80594833E-01 0.96737086E+03</pdfrwt>
<totfact> 0.18719719E+01</totfact>
</mgrwt>
</event>
<event>
 4    1  0.2665544E-007  0.7688208E+03  0.7818608E-02  0.9782784E-01
         -2   -1    0    0    0  501 -0.00000000000E+00  0.00000000000E+00  0.32548544689E+03  0.32548544690E+03  0.25500000000E-02 0.  1.
          2   -1    0    0  501    0  0.00000000000E+00 -0.00000000000E+00 -0.29143289413E+04  0.29143289413E+04  0.25500000000E-02 0. -1.
    8880023    1    1    2    0    0 -0.18209389481E+03 -0.35230242104E+03 -0.26943274282E+04  0.28018718170E+04  0.65864270000E+03 0. -1.
    8880022    1    1    2    0    0  0.18209389481E+03  0.35230242104E+03  0.10548393374E+03  0.43794257123E+03  0.15294330000E+03 0.  0.
<mgrwt>
<rscale>  0 0.66294674E+03</rscale>
<asrwt>0</asrwt>
<pdfrwt beam="1">  1        2 0.44835828E+00 0.76882078E+03</pdfrwt>
<pdfrwt beam="2">  1       -2 0.50074686E-01 0.76882078E+03</pdfrwt>
<totfact> 0.78584347E+00</totfact>
</mgrwt>
</event>
<event>
 4    1  0.2665544E-007  0.8522843E+03  0.7818608E-02  0.9607438E-01
          2   -1    0    0  501    0  0.00000000000E+00  0.00000000000E+00  0.29029755294E+04  0.29029755294E+04  0.25500000000E-02 0. -1.
         -2   -1    0    0    0  501 -0.00000000000E+00 -0.00000000000E+00 -0.56941800713E+03  0.56941800714E+03  0.25500000000E-02 0.  1.
    8880023    1    1    2    0    0 -0.34268902621E+03 -0.41850037015E+03  0.26798913849E+04  0.28121533333E+04  0.65864270000E+03 0. -1.
    8880022    1    1    2    0    0  0.34268902621E+03  0.41850037015E+03 -0.34633386270E+03  0.66024020324E+03  0.15294330000E+03 0.  0.
<mgrwt>
<rscale>  0 0.76805814E+03</rscale>
<asrwt>0</asrwt>
<pdfrwt beam="1">  1        2 0.44661161E+00 0.85228430E+03</pdfrwt>
<pdfrwt beam="2">  1       -2 0.87602773E-01 0.85228430E+03</pdfrwt>
<totfact> 0.23470234E+00</totfact>
</mgrwt>
</event>
<event>
 4    1  0.2665544E-007  0.7402583E+03  0.7818608E-02  0.9859195E-01
         -2   -1    0    0    0  501 -0.00000000000E+00  0.00000000000E+00  0.79646081324E+03  0.79646081324E+03  0.25500000000E-02 0.  1.
          2   -1    0    0  501    0  0.00000000000E+00 -0.00000000000E+00 -0.16022235103E+04  0.16022235103E+04  0.25500000000E-02 0. -1.
    8880023    1    1    2    0    0 -0.20628264640E+03 -0.26761845667E+03 -0.14654927014E+04  0.16418438515E+04  0.65864270000E+03 0. -1.
    8880022    1    1    2    0    0  0.20628264640E+03  0.26761845667E+03  0.65973000432E+03  0.75684047207E+03  0.15294330000E+03 0.  0.
<mgrwt>
<rscale>  0 0.62280272E+03</rscale>
<asrwt>0</asrwt>
<pdfrwt beam="1">  1        2 0.24649592E+00 0.74025832E+03</pdfrwt>
<pdfrwt beam="2">  1       -2 0.12253243E+00 0.74025832E+03</pdfrwt>
<totfact> 0.57661753E+00</totfact>
</mgrwt>
</event>
<event>
 4    1  0.2665544E-007  0.9876899E+03  0.7818608E-02  0.9397843E-01
          2   -1    0    0  501    0  0.00000000000E+00  0.00000000000E+00  0.12410562567E+04  0.12410562567E+04  0.25500000000E-02 0. -1.
         -2   -1    0    0    0  501 -0.00000000000E+00 -0.00000000000E+00 -0.14434033432E+04  0.14434033432E+04  0.25500000000E-02 0.  1.
    8880023    1    1    2    0    0  0.70152933185E+03 -0.22266076854E+03  0.90928312396E+03  0.13425078127E+04  0.65864270000E+03 0. -1.
    8880022    1    1    2    0    0 -0.70152933185E+03  0.22266076854E+03 -0.11116302105E+04  0.13419517872E+04  0.15294330000E+03 0.  0.
<mgrwt>
<rscale>  0 0.92253399E+03</rscale>
<asrwt>0</asrwt>
<pdfrwt beam="1">  1        2 0.19093173E+00 0.98768995E+03</pdfrwt>
<pdfrwt beam="2">  1       -2 0.22206205E+00 0.98768995E+03</pdfrwt>
<totfact> 0.17096550E+00</totfact>
</mgrwt>
</event>
<event>
 4    1  0.2665544E-007  0.9335020E+03  0.7818608E-02  0.9474259E-01
          2   -1    0    0  501    0  0.00000000000E+00  0.00000000000E+00  0.25146818398E+04  0.25146818398E+04  0.25500000000E-02 0. -1.
         -2   -1    0    0    0  501 -0.00000000000E+00 -0.00000000000E+00 -0.27154238646E+03  0.27154238647E+03  0.25500000000E-02 0.  1.
    8880023    1    1    2    0    0  0.20669736855E+03  0.62840438071E+03  0.98831481372E+03  0.13594823446E+04  0.65864270000E+03 0.  1.
    8880022    1    1    2    0    0 -0.20669736855E+03 -0.62840438071E+03  0.12548246396E+04  0.14267418817E+04  0.15294330000E+03 0.  0.
<mgrwt>
<rscale>  0 0.86208474E+03</rscale>
<asrwt>0</asrwt>
<pdfrwt beam="1">  1        2 0.38687415E+00 0.93350205E+03</pdfrwt>
<pdfrwt beam="2">  1       -2 0.41775749E-01 0.93350205E+03</pdfrwt>
<totfact> 0.18911593E+01</totfact>
</mgrwt>
</event>
<event>
 4    1  0.2665544E-007  0.1395687E+04  0.7818608E-02  0.8987042E-01
         -2   -1    0    0    0  501 -0.00000000000E+00  0.00000000000E+00  0.12597031813E+04  0.12597031813E+04  0.25500000000E-02 0.  1.
          2   -1    0    0  501    0  0.00000000000E+00 -0.00000000000E+00 -0.17723152730E+04  0.17723152730E+04  0.25500000000E-02 0. -1.
    8880023    1    1    2    0    0  0.10912202685E+04 -0.56865569910E+03  0.44544632967E+03  0.14650473089E+04  0.65864270000E+03 0.  0.
    8880022    1    1    2    0    0 -0.10912202685E+04  0.56865569910E+03 -0.95805842144E+03  0.15669711454E+04  0.15294330000E+03 0.  0.
<mgrwt>
<rscale>  0 0.13550135E+04</rscale>
<asrwt>0</asrwt>
<pdfrwt beam="1">  1        2 0.27266389E+00 0.13956866E+04</pdfrwt>
<pdfrwt beam="2">  1       -2 0.19380049E+00 0.13956866E+04</pdfrwt>
<totfact> 0.12417811E+00</totfact>
</mgrwt>
</event>
<event>
 4    1  0.2665544E-007  0.6764007E+03  0.7818608E-02  0.1011438E+00
         -2   -1    0    0    0  501 -0.00000000000E+00  0.00000000000E+00  0.10909182531E+04  0.10909182531E+04  0.25500000000E-02 0.  1.
          2   -1    0    0  501    0  0.00000000000E+00 -0.00000000000E+00 -0.13138833621E+04  0.13138833621E+04  0.25500000000E-02 0. -1.
    8880023    1    1    2    0    0 -0.40995128471E+02 -0.14841544407E+03 -0.12143053457E+04  0.13899839652E+04  0.65864270000E+03 0. -1.
    8880022    1    1    2    0    0  0.40995128471E+02  0.14841544407E+03  0.99134023681E+03  0.10148176500E+04  0.15294330000E+03 0.  0.
<mgrwt>
<rscale>  0 0.50907289E+03</rscale>
<asrwt>0</asrwt>
<pdfrwt beam="1">  1        2 0.20213590E+00 0.67640073E+03</pdfrwt>
<pdfrwt beam="2">  1       -2 0.16783358E+00 0.67640073E+03</pdfrwt>
<totfact> 0.37165785E+00</totfact>
</mgrwt>
</event>
<event>
 4    1  0.2665544E-007  0.1052311E+04  0.7818608E-02  0.9316108E-01
          2   -1    0    0  501    0  0.00000000000E+00  0.00000000000E+00  0.15515054511E+04  0.15515054511E+04  0.25500000000E-02 0. -1.
         -2   -1    0    0    0  501 -0.00000000000E+00 -0.00000000000E+00 -0.91987577522E+03  0.91987577522E+03  0.25500000000E-02 0.  1.
    8880023    1    1    2    0    0 -0.57094220150E+03  0.58955332885E+03  0.10932564981E+04  0.15174215307E+04  0.65864270000E+03 0.  0.
    8880022    1    1    2    0    0  0.57094220150E+03 -0.58955332885E+03 -0.46162682215E+03  0.95395969566E+03  0.15294330000E+03 0.  0.
<mgrwt>
<rscale>  0 0.99313314E+03</rscale>
<asrwt>0</asrwt>
<pdfrwt beam="1">  1        2 0.23869314E+00 0.10523109E+04</pdfrwt>
<pdfrwt beam="2">  1       -2 0.14151935E+00 0.10523109E+04</pdfrwt>
<totfact> 0.40940492E+00</totfact>
</mgrwt>
</event>
<event>
 4    1  0.2665544E-007  0.8247478E+03  0.7818608E-02  0.9659639E-01
         -2   -1    0    0    0  501 -0.00000000000E+00  0.00000000000E+00  0.10803963977E+04  0.10803963977E+04  0.25500000000E-02 0.  1.
          2   -1    0    0  501    0  0.00000000000E+00 -0.00000000000E+00 -0.11180570986E+04  0.11180570986E+04  0.25500000000E-02 0. -1.
    8880023    1    1    2    0    0  0.46619051189E+03  0.17048477157E+03 -0.88175344982E+03  0.12073516485E+04  0.65864270000E+03 0.  0.
    8880022    1    1    2    0    0 -0.46619051189E+03 -0.17048477157E+03  0.84409274897E+03  0.99110184774E+03  0.15294330000E+03 0.  0.
<mgrwt>
<rscale>  0 0.73471541E+03</rscale>
<asrwt>0</asrwt>
<pdfrwt beam="1">  1        2 0.17200878E+00 0.82474775E+03</pdfrwt>
<pdfrwt beam="2">  1       -2 0.16621483E+00 0.82474775E+03</pdfrwt>
<totfact> 0.48722792E+00</totfact>
</mgrwt>
</event>
<event>
 4    1  0.2665544E-007  0.1352496E+04  0.7818608E-02  0.9021502E-01
          2   -1    0    0  501    0  0.00000000000E+00  0.00000000000E+00  0.23831690508E+04  0.23831690508E+04  0.25500000000E-02 0. -1.
         -2   -1    0    0    0  501 -0.00000000000E+00 -0.00000000000E+00 -0.10887142665E+04  0.10887142665E+04  0.25500000000E-02 0.  1.
    8880023    1    1    2    0    0 -0.11446657297E+04 -0.29184861592E+03  0.17367608697E+04  0.22012686733E+04  0.65864270000E+03 0. -1.
    8880022    1    1    2    0    0  0.11446657297E+04  0.29184861592E+03 -0.44230608545E+03  0.12706146440E+04  0.15294330000E+03 0.  0.
<mgrwt>
<rscale>  0 0.13102168E+04</rscale>
<asrwt>0</asrwt>
<pdfrwt beam="1">  1        2 0.36664139E+00 0.13524960E+04</pdfrwt>
<pdfrwt beam="2">  1       -2 0.16749450E+00 0.13524960E+04</pdfrwt>
<totfact> 0.86444571E-01</totfact>
</mgrwt>
</event>
<event>
 4    1  0.2665544E-007  0.1002795E+04  0.7818608E-02  0.9377910E-01
         -2   -1    0    0    0  501 -0.00000000000E+00  0.00000000000E+00  0.23351677645E+04  0.23351677645E+04  0.25500000000E-02 0.  1.
          2   -1    0    0  501    0  0.00000000000E+00 -0.00000000000E+00 -0.60817704582E+03  0.60817704583E+03  0.25500000000E-02 0. -1.
    8880023    1    1    2    0    0 -0.73105429493E+03  0.19325410888E+03 -0.52138126984E+02  0.10041494527E+04  0.65864270000E+03 0.  0.
    8880022    1    1    2    0    0  0.73105429493E+03 -0.19325410888E+03  0.17791288457E+04  0.19391953577E+04  0.15294330000E+03 0.  0.
<mgrwt>
<rscale>  0 0.93916105E+03</rscale>
<asrwt>0</asrwt>
<pdfrwt beam="1">  1        2 0.93565700E-01 0.10027950E+04</pdfrwt>
<pdfrwt beam="2">  1       -2 0.35925658E+00 0.10027950E+04</pdfrwt>
<totfact> 0.67277897E-01</totfact>
</mgrwt>
</event>
<event>
 4    1  0.2665544E-007  0.1532830E+04  0.7818608E-02  0.8886795E-01
          2   -1    0    0  501    0  0.00000000000E+00  0.00000000000E+00  0.19088297476E+04  0.19088297476E+04  0.25500000000E-02 0. -1.
         -2   -1    0    0    0  501 -0.00000000000E+00 -0.00000000000E+00 -0.18657821404E+04  0.18657821404E+04  0.25500000000E-02 0.  1.
    8880023    1    1    2    0    0  0.12085341654E+04 -0.67468678503E+03  0.12138834528E+04  0.19552698868E+04  0.65864270000E+03 0.  0.
    8880022    1    1    2    0    0 -0.12085341654E+04  0.67468678503E+03 -0.11708358456E+04  0.18193420012E+04  0.15294330000E+03 0.  0.
<mgrwt>
<rscale>  0 0.14964832E+04</rscale>
<asrwt>0</asrwt>
<pdfrwt beam="1">  1        2 0.29366611E+00 0.15328298E+04</pdfrwt>
<pdfrwt beam="2">  1       -2 0.28704341E+00 0.15328298E+04</pdfrwt>
<totfact> 0.26762543E-01</totfact>
</mgrwt>
</event>
<event>
 4    1  0.2665544E-007  0.1766285E+04  0.7818608E-02  0.8741419E-01
          2   -1    0    0  501    0  0.00000000000E+00  0.00000000000E+00  0.10658877831E+04  0.10658877831E+04  0.25500000000E-02 0. -1.
         -2   -1    0    0    0  501 -0.00000000000E+00 -0.00000000000E+00 -0.36337810162E+04  0.36337810162E+04  0.25500000000E-02 0.  1.
    8880023    1    1    2    0    0  0.16338514684E+04  0.12838062961E+03 -0.14725603294E+03  0.17724126925E+04  0.65864270000E+03 0.  0.
    8880022    1    1    2    0    0 -0.16338514684E+04 -0.12838062961E+03 -0.24206372002E+04  0.29272561068E+04  0.15294330000E+03 0.  0.
<mgrwt>
<rscale>  0 0.17354160E+04</rscale>
<asrwt>0</asrwt>
<pdfrwt beam="1">  1        2 0.16398274E+00 0.17662849E+04</pdfrwt>
<pdfrwt beam="2">  1       -2 0.55904323E+00 0.17662849E+04</pdfrwt>
<totfact> 0.15823642E-02</totfact>
</mgrwt>
</event>
<event>
 4    1  0.2665544E-007  0.1066137E+04  0.7818608E-02  0.9299730E-01
         -2   -1    0    0    0  501 -0.00000000000E+00  0.00000000000E+00  0.25893772090E+04  0.25893772090E+04  0.25500000000E-02 0.  1.
          2   -1    0    0  501    0  0.00000000000E+00 -0.00000000000E+00 -0.59843564158E+03  0.59843564158E+03  0.25500000000E-02 0. -1.
    8880023    1    1    2    0    0  0.21036349770E+03 -0.81153237177E+03  0.49171233177E+02  0.10672701664E+04  0.65864270000E+03 0. -1.
    8880022    1    1    2    0    0 -0.21036349770E+03  0.81153237177E+03  0.19417703342E+04  0.21205426842E+04  0.15294330000E+03 0.  0.
<mgrwt>
<rscale>  0 0.10080775E+04</rscale>
<asrwt>0</asrwt>
<pdfrwt beam="1">  1        2 0.92067020E-01 0.10661369E+04</pdfrwt>
<pdfrwt beam="2">  1       -2 0.39836573E+00 0.10661369E+04</pdfrwt>
<totfact> 0.38200988E-01</totfact>
</mgrwt>
</event>
<event>
 4    1  0.2665544E-007  0.1163315E+04  0.7818608E-02  0.9193634E-01
         -2   -1    0    0    0  501 -0.00000000000E+00  0.00000000000E+00  0.87953073897E+03  0.87953073898E+03  0.25500000000E-02 0.  1.
          2   -1    0    0  501    0  0.00000000000E+00 -0.00000000000E+00 -0.18134354715E+04  0.18134354715E+04  0.25500000000E-02 0. -1.
    8880023    1    1    2    0    0  0.93447738494E+03 -0.21504433825E+03 -0.12149565234E+04  0.16820884669E+04  0.65864270000E+03 0. -1.
    8880022    1    1    2    0    0 -0.93447738494E+03  0.21504433825E+03  0.28105179087E+03  0.10108777436E+04  0.15294330000E+03 0.  0.
<mgrwt>
<rscale>  0 0.11119374E+04</rscale>
<asrwt>0</asrwt>
<pdfrwt beam="1">  1        2 0.27899007E+00 0.11633152E+04</pdfrwt>
<pdfrwt beam="2">  1       -2 0.13531242E+00 0.11633152E+04</pdfrwt>
<totfact> 0.32516454E+00</totfact>
</mgrwt>
</event>
<event>
 4    1  0.2665544E-007  0.1691615E+04  0.7818608E-02  0.8784986E-01
         -2   -1    0    0    0  501 -0.00000000000E+00  0.00000000000E+00  0.28933589702E+04  0.28933589702E+04  0.25500000000E-02 0.  1.
          2   -1    0    0  501    0  0.00000000000E+00 -0.00000000000E+00 -0.10440119496E+04  0.10440119496E+04  0.25500000000E-02 0. -1.
    8880023    1    1    2    0    0 -0.14067664111E+04 -0.66989445383E+03  0.26909407116E+03  0.17128841584E+04  0.65864270000E+03 0.  0.
    8880022    1    1    2    0    0  0.14067664111E+04  0.66989445383E+03  0.15802529494E+04  0.22244867614E+04  0.15294330000E+03 0.  0.
<mgrwt>
<rscale>  0 0.16591940E+04</rscale>
<asrwt>0</asrwt>
<pdfrwt beam="1">  1        2 0.16061722E+00 0.16916148E+04</pdfrwt>
<pdfrwt beam="2">  1       -2 0.44513215E+00 0.16916148E+04</pdfrwt>
<totfact> 0.81891942E-02</totfact>
</mgrwt>
</event>
<event>
 4    1  0.2665544E-007  0.2687013E+04  0.7818608E-02  0.8345651E-01
          2   -1    0    0  501    0  0.00000000000E+00  0.00000000000E+00  0.46903664357E+04  0.46903664357E+04  0.25500000000E-02 0. -1.
         -2   -1    0    0    0  501 -0.00000000000E+00 -0.00000000000E+00 -0.20124973455E+04  0.20124973455E+04  0.25500000000E-02 0.  1.
    8880023    1    1    2    0    0 -0.26046187919E+04  0.46798885921E+02 -0.34542812913E+03  0.27091253175E+04  0.65864270000E+03 0.  0.
    8880022    1    1    2    0    0  0.26046187919E+04 -0.46798885921E+02  0.30232972194E+04  0.39937384637E+04  0.15294330000E+03 0.  0.
<mgrwt>
<rscale>  0 0.26674280E+04</rscale>
<asrwt>0</asrwt>
<pdfrwt beam="1">  1        2 0.72159483E+00 0.26870131E+04</pdfrwt>
<pdfrwt beam="2">  1       -2 0.30961498E+00 0.26870131E+04</pdfrwt>
<totfact> 0.17885862E-03</totfact>
</mgrwt>
</event>
<event>
 4    1  0.2665544E-007  0.1173574E+04  0.7818608E-02  0.9183248E-01
         -2   -1    0    0    0  501 -0.00000000000E+00  0.00000000000E+00  0.11881367343E+04  0.11881367343E+04  0.25500000000E-02 0.  1.
          2   -1    0    0  501    0  0.00000000000E+00 -0.00000000000E+00 -0.10904026845E+04  0.10904026845E+04  0.25500000000E-02 0. -1.
    8880023    1    1    2    0    0  0.21351811243E+03 -0.94756305075E+03  0.41584803938E+03  0.12450724949E+04  0.65864270000E+03 0.  0.
    8880022    1    1    2    0    0 -0.21351811243E+03  0.94756305075E+03 -0.31811398953E+03  0.10334669239E+04  0.15294330000E+03 0.  0.
<mgrwt>
<rscale>  0 0.11228020E+04</rscale>
<asrwt>0</asrwt>
<pdfrwt beam="1">  1        2 0.16775426E+00 0.11735740E+04</pdfrwt>
<pdfrwt beam="2">  1       -2 0.18279027E+00 0.11735740E+04</pdfrwt>
<totfact> 0.37334981E+00</totfact>
</mgrwt>
</event>
<event>
 4    1  0.2665544E-007  0.6640576E+03  0.7818608E-02  0.1020338E+00
          2   -1    0    0  501    0  0.00000000000E+00  0.00000000000E+00  0.90103368333E+03  0.90103368333E+03  0.25500000000E-02 0. -1.
         -2   -1    0    0    0  501 -0.00000000000E+00 -0.00000000000E+00 -0.83135466384E+03  0.83135466384E+03  0.25500000000E-02 0.  1.
    8880023    1    1    2    0    0 -0.63060528380E+02  0.56441378620E+02  0.76640191967E+03  0.10140731572E+04  0.65864270000E+03 0. -1.
    8880022    1    1    2    0    0  0.63060528380E+02 -0.56441378620E+02 -0.69672290018E+03  0.71831518995E+03  0.15294330000E+03 0.  0.
<mgrwt>
<rscale>  0 0.47565017E+03</rscale>
<asrwt>0</asrwt>
<pdfrwt beam="1">  1        2 0.13862057E+00 0.66405758E+03</pdfrwt>
<pdfrwt beam="2">  1       -2 0.12790072E+00 0.66405758E+03</pdfrwt>
<totfact> 0.13596399E+01</totfact>
</mgrwt>
</event>
<event>
 4    1  0.2665544E-007  0.8842390E+03  0.7818608E-02  0.9551822E-01
          2   -1    0    0  501    0  0.00000000000E+00  0.00000000000E+00  0.30896660803E+04  0.30896660803E+04  0.25500000000E-02 0. -1.
         -2   -1    0    0    0  501 -0.00000000000E+00 -0.00000000000E+00 -0.30217505710E+03  0.30217505711E+03  0.25500000000E-02 0.  1.
    8880023    1    1    2    0    0  0.57437788462E+03  0.13475301636E+03  0.26119880543E+04  0.27576004301E+04  0.65864270000E+03 0.  0.
    8880022    1    1    2    0    0 -0.57437788462E+03 -0.13475301636E+03  0.17550296889E+03  0.63424070736E+03  0.15294330000E+03 0.  0.
<mgrwt>
<rscale>  0 0.80568678E+03</rscale>
<asrwt>0</asrwt>
<pdfrwt beam="1">  1        2 0.47533324E+00 0.88423896E+03</pdfrwt>
<pdfrwt beam="2">  1       -2 0.46488470E-01 0.88423896E+03</pdfrwt>
<totfact> 0.69920353E+00</totfact>
</mgrwt>
</event>
<event>
 4    1  0.2665544E-007  0.7417701E+03  0.7818608E-02  0.9854821E-01
         -2   -1    0    0    0  501 -0.00000000000E+00  0.00000000000E+00  0.27965050964E+03  0.27965050965E+03  0.25500000000E-02 0.  1.
          2   -1    0    0  501    0  0.00000000000E+00 -0.00000000000E+00 -0.24368325747E+04  0.24368325747E+04  0.25500000000E-02 0. -1.
    8880023    1    1    2    0    0 -0.24037779757E+03  0.24213871218E+03 -0.22170213773E+04  0.23378209159E+04  0.65864270000E+03 0. -1.
    8880022    1    1    2    0    0  0.24037779757E+03 -0.24213871218E+03  0.59839312193E+02  0.37866216843E+03  0.15294330000E+03 0.  0.
<mgrwt>
<rscale>  0 0.62501731E+03</rscale>
<asrwt>0</asrwt>
<pdfrwt beam="1">  1        2 0.37489730E+00 0.74177008E+03</pdfrwt>
<pdfrwt beam="2">  1       -2 0.43023157E-01 0.74177008E+03</pdfrwt>
<totfact> 0.20275556E+01</totfact>
</mgrwt>
</event>
<event>
 4    1  0.2665544E-007  0.1027269E+04  0.7818608E-02  0.9346720E-01
          2   -1    0    0  501    0  0.00000000000E+00  0.00000000000E+00  0.24250682731E+04  0.24250682731E+04  0.25500000000E-02 0. -1.
         -2   -1    0    0    0  501 -0.00000000000E+00 -0.00000000000E+00 -0.92095427207E+03  0.92095427207E+03  0.25500000000E-02 0.  1.
    8880023    1    1    2    0    0 -0.76014712553E+03 -0.20892063955E+03  0.21055185097E+04  0.23427526303E+04  0.65864270000E+03 0. -1.
    8880022    1    1    2    0    0  0.76014712553E+03  0.20892063955E+03 -0.60140450862E+03  0.10032699149E+04  0.15294330000E+03 0.  0.
<mgrwt>
<rscale>  0 0.96593209E+03</rscale>
<asrwt>0</asrwt>
<pdfrwt beam="1">  1        2 0.37308742E+00 0.10272690E+04</pdfrwt>
<pdfrwt beam="2">  1       -2 0.14168527E+00 0.10272690E+04</pdfrwt>
<totfact> 0.13396290E+00</totfact>
</mgrwt>
</event>
<event>
 4    1  0.2665544E-007  0.1376352E+04  0.7818608E-02  0.9002279E-01
          2   -1    0    0  501    0  0.00000000000E+00  0.00000000000E+00  0.31309257638E+04  0.31309257638E+04  0.25500000000E-02 0. -1.
         -2   -1    0    0    0  501 -0.00000000000E+00 -0.00000000000E+00 -0.74794907694E+03  0.74794907694E+03  0.25500000000E-02 0.  1.
    8880023    1    1    2    0    0 -0.64903314886E+03  0.10194562408E+04  0.22710704714E+04  0.26555802281E+04  0.65864270000E+03 0.  0.
    8880022    1    1    2    0    0  0.64903314886E+03 -0.10194562408E+04  0.11190621540E+03  0.12232946126E+04  0.15294330000E+03 0.  0.
<mgrwt>
<rscale>  0 0.13349768E+04</rscale>
<asrwt>0</asrwt>
<pdfrwt beam="1">  1        2 0.48168088E+00 0.13763522E+04</pdfrwt>
<pdfrwt beam="2">  1       -2 0.11506909E+00 0.13763522E+04</pdfrwt>
<totfact> 0.81978945E-01</totfact>
</mgrwt>
</event>
<event>
 4    1  0.2665544E-007  0.9374354E+03  0.7818608E-02  0.9468427E-01
          2   -1    0    0  501    0  0.00000000000E+00  0.00000000000E+00  0.57391303985E+03  0.57391303986E+03  0.25500000000E-02 0. -1.
         -2   -1    0    0    0  501 -0.00000000000E+00 -0.00000000000E+00 -0.19716668015E+04  0.19716668015E+04  0.25500000000E-02 0.  1.
    8880023    1    1    2    0    0 -0.31671726809E+03 -0.58708185615E+03  0.55673942354E+02  0.93908717798E+03  0.65864270000E+03 0.  0.
    8880022    1    1    2    0    0  0.31671726809E+03  0.58708185615E+03 -0.14534277040E+04  0.16064926634E+04  0.15294330000E+03 0.  0.
<mgrwt>
<rscale>  0 0.86652132E+03</rscale>
<asrwt>0</asrwt>
<pdfrwt beam="1">  1        2 0.88294315E-01 0.93743541E+03</pdfrwt>
<pdfrwt beam="2">  1       -2 0.30333335E+00 0.93743541E+03</pdfrwt>
<totfact> 0.16101904E+00</totfact>
</mgrwt>
</event>
<event>
 4    1  0.2665544E-007  0.7337371E+03  0.7818608E-02  0.9878581E-01
         -2   -1    0    0    0  501 -0.00000000000E+00  0.00000000000E+00  0.12907888402E+04  0.12907888402E+04  0.25500000000E-02 0.  1.
          2   -1    0    0  501    0  0.00000000000E+00 -0.00000000000E+00 -0.19617663519E+04  0.19617663519E+04  0.25500000000E-02 0. -1.
    8880023    1    1    2    0    0  0.24626595267E+03  0.20955446009E+03 -0.18660373864E+04  0.20051099035E+04  0.65864270000E+03 0. -1.
    8880022    1    1    2    0    0 -0.24626595267E+03 -0.20955446009E+03  0.11950598747E+04  0.12474452887E+04  0.15294330000E+03 0.  0.
<mgrwt>
<rscale>  0 0.61310677E+03</rscale>
<asrwt>0</asrwt>
<pdfrwt beam="1">  1        2 0.30181021E+00 0.73373714E+03</pdfrwt>
<pdfrwt beam="2">  1       -2 0.19858290E+00 0.73373714E+03</pdfrwt>
<totfact> 0.99741752E-01</totfact>
</mgrwt>
</event>
<event>
 4    1  0.2665544E-007  0.8035933E+03  0.7818608E-02  0.9703080E-01
          2   -1    0    0  501    0  0.00000000000E+00  0.00000000000E+00  0.40292442049E+03  0.40292442050E+03  0.25500000000E-02 0. -1.
         -2   -1    0    0    0  501 -0.00000000000E+00 -0.00000000000E+00 -0.12486565398E+04  0.12486565398E+04  0.25500000000E-02 0.  1.
    8880023    1    1    2    0    0 -0.28236118949E+03 -0.36362648880E+03 -0.84549584770E+03  0.11664585288E+04  0.65864270000E+03 0.  0.
    8880022    1    1    2    0    0  0.28236118949E+03  0.36362648880E+03 -0.23627159024E+00  0.48512243148E+03  0.15294330000E+03 0.  0.
<mgrwt>
<rscale>  0 0.70833724E+03</rscale>
<asrwt>0</asrwt>
<pdfrwt beam="1">  1        2 0.61988373E-01 0.80359335E+03</pdfrwt>
<pdfrwt beam="2">  1       -2 0.19210100E+00 0.80359335E+03</pdfrwt>
<totfact> 0.11979618E+01</totfact>
</mgrwt>
</event>
<event>
 4    1  0.2665544E-007  0.1000819E+04  0.7818608E-02  0.9380486E-01
          2   -1    0    0  501    0  0.00000000000E+00  0.00000000000E+00  0.16690258614E+04  0.16690258614E+04  0.25500000000E-02 0. -1.
         -2   -1    0    0    0  501 -0.00000000000E+00 -0.00000000000E+00 -0.62487906500E+03  0.62487906500E+03  0.25500000000E-02 0.  1.
    8880023    1    1    2    0    0  0.22930492451E+03 -0.71780813353E+03  0.11423497374E+04  0.15187502737E+04  0.65864270000E+03 0.  0.
    8880022    1    1    2    0    0 -0.22930492451E+03  0.71780813353E+03 -0.98202941018E+02  0.77515465271E+03  0.15294330000E+03 0.  0.
<mgrwt>
<rscale>  0 0.93699120E+03</rscale>
<asrwt>0</asrwt>
<pdfrwt beam="1">  1        2 0.25677321E+00 0.10008194E+04</pdfrwt>
<pdfrwt beam="2">  1       -2 0.96135241E-01 0.10008194E+04</pdfrwt>
<totfact> 0.92221628E+00</totfact>
</mgrwt>
</event>
<event>
 4    1  0.2665544E-007  0.8808562E+03  0.7818608E-02  0.9557490E-01
          2   -1    0    0  501    0  0.00000000000E+00  0.00000000000E+00  0.62965427004E+03  0.62965427005E+03  0.25500000000E-02 0. -1.
         -2   -1    0    0    0  501 -0.00000000000E+00 -0.00000000000E+00 -0.24528979498E+04  0.24528979498E+04  0.25500000000E-02 0.  1.
    8880023    1    1    2    0    0 -0.15598282936E+03 -0.56370804627E+03  0.25591869239E+03  0.91727966720E+03  0.65864270000E+03 0.  0.
    8880022    1    1    2    0    0  0.15598282936E+03  0.56370804627E+03 -0.20791623721E+04  0.21652725526E+04  0.15294330000E+03 0.  0.
<mgrwt>
<rscale>  0 0.80174831E+03</rscale>
<asrwt>0</asrwt>
<pdfrwt beam="1">  1        2 0.96869889E-01 0.88085618E+03</pdfrwt>
<pdfrwt beam="2">  1       -2 0.37736891E+00 0.88085618E+03</pdfrwt>
<totfact> 0.50431055E-01</totfact>
</mgrwt>
</event>
<event>
 4    1  0.2665544E-007  0.1862970E+04  0.7818608E-02  0.8688481E-01
         -2   -1    0    0    0  501 -0.00000000000E+00  0.00000000000E+00  0.17603930289E+04  0.17603930289E+04  0.25500000000E-02 0.  1.
          2   -1    0    0  501    0  0.00000000000E+00 -0.00000000000E+00 -0.20357885755E+04  0.20357885755E+04  0.25500000000E-02 0. -1.
    8880023    1    1    2    0    0 -0.16137249519E+04 -0.65782825681E+03 -0.70995182398E+03  0.19936619659E+04  0.65864270000E+03 0.  0.
    8880022    1    1    2    0    0  0.16137249519E+04  0.65782825681E+03  0.43455627743E+03  0.18025196385E+04  0.15294330000E+03 0.  0.
<mgrwt>
<rscale>  0 0.18338920E+04</rscale>
<asrwt>0</asrwt>
<pdfrwt beam="1">  1        2 0.31319824E+00 0.18629698E+04</pdfrwt>
<pdfrwt beam="2">  1       -2 0.27082970E+00 0.18629698E+04</pdfrwt>
<totfact> 0.27612102E-01</totfact>
</mgrwt>
</event>
<event>
 4    1  0.2665544E-007  0.6848541E+03  0.7818608E-02  0.1006701E+00
          2   -1    0    0  501    0  0.00000000000E+00  0.00000000000E+00  0.93068365773E+03  0.93068365774E+03  0.25500000000E-02 0. -1.
         -2   -1    0    0    0  501 -0.00000000000E+00 -0.00000000000E+00 -0.12073352997E+04  0.12073352997E+04  0.25500000000E-02 0.  1.
    8880023    1    1    2    0    0  0.18567535061E+03  0.27194703920E+02  0.78925682340E+03  0.10449647972E+04  0.65864270000E+03 0. -1.
    8880022    1    1    2    0    0 -0.18567535061E+03 -0.27194703920E+02 -0.10659084653E+04  0.10930541603E+04  0.15294330000E+03 0.  0.
<mgrwt>
<rscale>  0 0.52807036E+03</rscale>
<asrwt>0</asrwt>
<pdfrwt beam="1">  1        2 0.14318210E+00 0.68485407E+03</pdfrwt>
<pdfrwt beam="2">  1       -2 0.18574389E+00 0.68485407E+03</pdfrwt>
<totfact> 0.47736805E+00</totfact>
</mgrwt>
</event>
<event>
 4    1  0.2665544E-007  0.8622728E+03  0.7818608E-02  0.9589533E-01
         -2   -1    0    0    0  501 -0.00000000000E+00  0.00000000000E+00  0.28304595112E+03  0.28304595113E+03  0.25500000000E-02 0.  1.
          2   -1    0    0  501    0  0.00000000000E+00 -0.00000000000E+00 -0.34991704644E+04  0.34991704644E+04  0.25500000000E-02 0. -1.
    8880023    1    1    2    0    0  0.47572948001E+03  0.28876574635E+03 -0.30672952798E+04  0.31861912582E+04  0.65864270000E+03 0.  0.
    8880022    1    1    2    0    0 -0.47572948001E+03 -0.28876574635E+03 -0.14882923355E+03  0.59602515735E+03  0.15294330000E+03 0.  0.
<mgrwt>
<rscale>  0 0.77992829E+03</rscale>
<asrwt>0</asrwt>
<pdfrwt beam="1">  1        2 0.53833389E+00 0.86227281E+03</pdfrwt>
<pdfrwt beam="2">  1       -2 0.43545533E-01 0.86227281E+03</pdfrwt>
<totfact> 0.43194817E+00</totfact>
</mgrwt>
</event>
<event>
 4    1  0.2665544E-007  0.1174674E+04  0.7818608E-02  0.9182143E-01
         -2   -1    0    0    0  501 -0.00000000000E+00  0.00000000000E+00  0.56738030911E+03  0.56738030912E+03  0.25500000000E-02 0.  1.
          2   -1    0    0  501    0  0.00000000000E+00 -0.00000000000E+00 -0.23504233059E+04  0.23504233059E+04  0.25500000000E-02 0. -1.
    8880023    1    1    2    0    0  0.65521326459E+03  0.71884945021E+03 -0.14761155654E+04  0.18864719247E+04  0.65864270000E+03 0.  0.
    8880022    1    1    2    0    0 -0.65521326459E+03 -0.71884945021E+03 -0.30692743135E+03  0.10313316902E+04  0.15294330000E+03 0.  0.
<mgrwt>
<rscale>  0 0.11239660E+04</rscale>
<asrwt>0</asrwt>
<pdfrwt beam="1">  1        2 0.36160358E+00 0.11746741E+04</pdfrwt>
<pdfrwt beam="2">  1       -2 0.87289279E-01 0.11746741E+04</pdfrwt>
<totfact> 0.47457943E+00</totfact>
</mgrwt>
</event>
<event>
 4    1  0.2665544E-007  0.7796015E+03  0.7818608E-02  0.9756774E-01
         -2   -1    0    0    0  501 -0.00000000000E+00  0.00000000000E+00  0.42547640667E+03  0.42547640668E+03  0.25500000000E-02 0.  1.
          2   -1    0    0  501    0  0.00000000000E+00 -0.00000000000E+00 -0.13945221426E+04  0.13945221426E+04  0.25500000000E-02 0. -1.
    8880023    1    1    2    0    0 -0.40723198482E+03 -0.90169175019E+02 -0.11077644031E+04  0.13545923920E+04  0.65864270000E+03 0. -1.
    8880022    1    1    2    0    0  0.40723198482E+03  0.90169175019E+02  0.13871866713E+03  0.46540615725E+03  0.15294330000E+03 0.  0.
<mgrwt>
<rscale>  0 0.67734810E+03</rscale>
<asrwt>0</asrwt>
<pdfrwt beam="1">  1        2 0.21454187E+00 0.77960155E+03</pdfrwt>
<pdfrwt beam="2">  1       -2 0.65457909E-01 0.77960155E+03</pdfrwt>
<totfact> 0.31913424E+01</totfact>
</mgrwt>
</event>
<event>
 4    1  0.2665544E-007  0.7054938E+03  0.7818608E-02  0.9975131E-01
         -2   -1    0    0    0  501 -0.00000000000E+00  0.00000000000E+00  0.12784591268E+04  0.12784591268E+04  0.25500000000E-02 0.  1.
          2   -1    0    0  501    0  0.00000000000E+00 -0.00000000000E+00 -0.63377200974E+03  0.63377200975E+03  0.25500000000E-02 0. -1.
    8880023    1    1    2    0    0 -0.17568469229E+03 -0.18178625196E+03 -0.41065409108E+03  0.81630774913E+03  0.65864270000E+03 0.  0.
    8880022    1    1    2    0    0  0.17568469229E+03  0.18178625196E+03  0.10553412082E+04  0.10959233874E+04  0.15294330000E+03 0.  1.
<mgrwt>
<rscale>  0 0.56754274E+03</rscale>
<asrwt>0</asrwt>
<pdfrwt beam="1">  1        2 0.97503387E-01 0.70549384E+03</pdfrwt>
<pdfrwt beam="2">  1       -2 0.19668602E+00 0.70549384E+03</pdfrwt>
<totfact> 0.66539381E+00</totfact>
</mgrwt>
</event>
<event>
 4    1  0.2665544E-007  0.6843479E+03  0.7818608E-02  0.1006964E+00
         -2   -1    0    0    0  501 -0.00000000000E+00  0.00000000000E+00  0.33725475443E+03  0.33725475444E+03  0.25500000000E-02 0.  1.
          2   -1    0    0  501    0  0.00000000000E+00 -0.00000000000E+00 -0.94690748331E+03  0.94690748331E+03  0.25500000000E-02 0. -1.
    8880023    1    1    2    0    0  0.38346256387E+02 -0.18180055393E+03 -0.74209399702E+03  0.10094729236E+04  0.65864270000E+03 0.  0.
    8880022    1    1    2    0    0 -0.38346256387E+02  0.18180055393E+03  0.13244126814E+03  0.27468931416E+03  0.15294330000E+03 0.  0.
<mgrwt>
<rscale>  0 0.52699345E+03</rscale>
<asrwt>0</asrwt>
<pdfrwt beam="1">  1        2 0.14567807E+00 0.68434793E+03</pdfrwt>
<pdfrwt beam="2">  1       -2 0.51885347E-01 0.68434793E+03</pdfrwt>
<totfact> 0.97433296E+01</totfact>
</mgrwt>
</event>
<event>
 4    1  0.2665544E-007  0.7867466E+03  0.7818608E-02  0.9740221E-01
          2   -1    0    0  501    0  0.00000000000E+00  0.00000000000E+00  0.12557959164E+04  0.12557959164E+04  0.25500000000E-02 0. -1.
         -2   -1    0    0    0  501 -0.00000000000E+00 -0.00000000000E+00 -0.93580616203E+03  0.93580616204E+03  0.25500000000E-02 0.  1.
    8880023    1    1    2    0    0  0.38854560922E+03 -0.18491144237E+03  0.10611842479E+04  0.13210155738E+04  0.65864270000E+03 0.  0.
    8880022    1    1    2    0    0 -0.38854560922E+03  0.18491144237E+03 -0.74119449348E+03  0.87058650469E+03  0.15294330000E+03 0.  0.
<mgrwt>
<rscale>  0 0.68671704E+03</rscale>
<asrwt>0</asrwt>
<pdfrwt beam="1">  1        2 0.19319937E+00 0.78674655E+03</pdfrwt>
<pdfrwt beam="2">  1       -2 0.14397018E+00 0.78674655E+03</pdfrwt>
<totfact> 0.59569087E+00</totfact>
</mgrwt>
</event>
<event>
 4    1  0.2665544E-007  0.7757187E+03  0.7818608E-02  0.9765992E-01
          2   -1    0    0  501    0  0.00000000000E+00  0.00000000000E+00  0.22228204273E+04  0.22228204273E+04  0.25500000000E-02 0. -1.
         -2   -1    0    0    0  501 -0.00000000000E+00 -0.00000000000E+00 -0.33625563886E+03  0.33625563887E+03  0.25500000000E-02 0.  1.
    8880023    1    1    2    0    0 -0.40766067918E+03  0.41737862175E+02  0.19669153665E+04  0.21143546400E+04  0.65864270000E+03 0. -1.
    8880022    1    1    2    0    0  0.40766067918E+03 -0.41737862175E+02 -0.80350578053E+02  0.44472142617E+03  0.15294330000E+03 0.  0.
<mgrwt>
<rscale>  0 0.67219999E+03</rscale>
<asrwt>0</asrwt>
<pdfrwt beam="1">  1        2 0.34197236E+00 0.77571869E+03</pdfrwt>
<pdfrwt beam="2">  1       -2 0.51731639E-01 0.77571869E+03</pdfrwt>
<totfact> 0.18321402E+01</totfact>
</mgrwt>
</event>
<event>
 4    1  0.2665544E-007  0.1021137E+04  0.7818608E-02  0.9354412E-01
         -2   -1    0    0    0  501 -0.00000000000E+00  0.00000000000E+00  0.11352452255E+04  0.11352452255E+04  0.25500000000E-02 0.  1.
          2   -1    0    0  501    0  0.00000000000E+00 -0.00000000000E+00 -0.79617819693E+03  0.79617819693E+03  0.25500000000E-02 0. -1.
    8880023    1    1    2    0    0 -0.46123392337E+03  0.62942366068E+03 -0.94899474289E+02  0.10255374168E+04  0.65864270000E+03 0.  0.
    8880022    1    1    2    0    0  0.46123392337E+03 -0.62942366068E+03  0.43396650291E+03  0.90588600572E+03  0.15294330000E+03 0.  0.
<mgrwt>
<rscale>  0 0.95924308E+03</rscale>
<asrwt>0</asrwt>
<pdfrwt beam="1">  1        2 0.12248895E+00 0.10211372E+04</pdfrwt>
<pdfrwt beam="2">  1       -2 0.17465311E+00 0.10211372E+04</pdfrwt>
<totfact> 0.67813000E+00</totfact>
</mgrwt>
</event>
<event>
 4    1  0.2665544E-007  0.1888622E+04  0.7818608E-02  0.8675036E-01
          2   -1    0    0  501    0  0.00000000000E+00  0.00000000000E+00  0.22584049901E+04  0.22584049901E+04  0.25500000000E-02 0. -1.
         -2   -1    0    0    0  501 -0.00000000000E+00 -0.00000000000E+00 -0.27251569057E+04  0.27251569057E+04  0.25500000000E-02 0.  1.
    8880023    1    1    2    0    0 -0.15681741886E+03  0.17630912391E+04  0.14418001548E+04  0.23760640380E+04  0.65864270000E+03 0.  0.
    8880022    1    1    2    0    0  0.15681741886E+03 -0.17630912391E+04 -0.19085520704E+04  0.26074978578E+04  0.15294330000E+03 0.  0.
<mgrwt>
<rscale>  0 0.18599833E+04</rscale>
<asrwt>0</asrwt>
<pdfrwt beam="1">  1        2 0.34744692E+00 0.18886219E+04</pdfrwt>
<pdfrwt beam="2">  1       -2 0.41925491E+00 0.18886219E+04</pdfrwt>
<totfact> 0.23709893E-02</totfact>
</mgrwt>
</event>
<event>
 4    1  0.2665544E-007  0.9252267E+03  0.7818608E-02  0.9486691E-01
          2   -1    0    0  501    0  0.00000000000E+00  0.00000000000E+00  0.15488472530E+04  0.15488472530E+04  0.25500000000E-02 0. -1.
         -2   -1    0    0    0  501 -0.00000000000E+00 -0.00000000000E+00 -0.95561218062E+03  0.95561218062E+03  0.25500000000E-02 0.  1.
    8880023    1    1    2    0    0  0.55822656069E+03  0.33259183758E+03  0.12585044923E+04  0.15620108793E+04  0.65864270000E+03 0.  0.
    8880022    1    1    2    0    0 -0.55822656069E+03 -0.33259183758E+03 -0.66526941994E+03  0.94244855436E+03  0.15294330000E+03 0.  0.
<mgrwt>
<rscale>  0 0.85272190E+03</rscale>
<asrwt>0</asrwt>
<pdfrwt beam="1">  1        2 0.23828419E+00 0.92522669E+03</pdfrwt>
<pdfrwt beam="2">  1       -2 0.14701726E+00 0.92522669E+03</pdfrwt>
<totfact> 0.37728447E+00</totfact>
</mgrwt>
</event>
<event>
 4    1  0.2665544E-007  0.1070371E+04  0.7818608E-02  0.9294784E-01
         -2   -1    0    0    0  501 -0.00000000000E+00  0.00000000000E+00  0.17326976445E+04  0.17326976445E+04  0.25500000000E-02 0.  1.
          2   -1    0    0  501    0  0.00000000000E+00 -0.00000000000E+00 -0.77896465699E+03  0.77896465700E+03  0.25500000000E-02 0. -1.
    8880023    1    1    2    0    0 -0.15289054973E+03  0.82976388476E+03  0.12111771466E+04  0.16163675050E+04  0.65864270000E+03 0.  0.
    8880022    1    1    2    0    0  0.15289054973E+03 -0.82976388476E+03 -0.25744415902E+03  0.89529479652E+03  0.15294330000E+03 0.  0.
<mgrwt>
<rscale>  0 0.10126444E+04</rscale>
<asrwt>0</asrwt>
<pdfrwt beam="1">  1        2 0.11984072E+00 0.10703709E+04</pdfrwt>
<pdfrwt beam="2">  1       -2 0.26656886E+00 0.10703709E+04</pdfrwt>
<totfact> 0.17998284E+00</totfact>
</mgrwt>
</event>
<event>
 4    1  0.2665544E-007  0.8678398E+03  0.7818608E-02  0.9579767E-01
         -2   -1    0    0    0  501 -0.00000000000E+00  0.00000000000E+00  0.31891900558E+03  0.31891900559E+03  0.25500000000E-02 0.  1.
          2   -1    0    0  501    0  0.00000000000E+00 -0.00000000000E+00 -0.19051747720E+04  0.19051747720E+04  0.25500000000E-02 0. -1.
    8880023    1    1    2    0    0  0.49416043652E+03 -0.27411880845E+03 -0.13229064285E+04  0.15821590574E+04  0.65864270000E+03 0.  1.
    8880022    1    1    2    0    0 -0.49416043652E+03  0.27411880845E+03 -0.26334933792E+03  0.64193472017E+03  0.15294330000E+03 0.  0.
<mgrwt>
<rscale>  0 0.78649914E+03</rscale>
<asrwt>0</asrwt>
<pdfrwt beam="1">  1        2 0.29310381E+00 0.86783977E+03</pdfrwt>
<pdfrwt beam="2">  1       -2 0.49064463E-01 0.86783977E+03</pdfrwt>
<totfact> 0.30151990E+01</totfact>
</mgrwt>
</event>
<event>
 4    1  0.2665544E-007  0.8948119E+03  0.7818608E-02  0.9534412E-01
          2   -1    0    0  501    0  0.00000000000E+00  0.00000000000E+00  0.23973652899E+04  0.23973652899E+04  0.25500000000E-02 0. -1.
         -2   -1    0    0    0  501 -0.00000000000E+00 -0.00000000000E+00 -0.74570128695E+03  0.74570128696E+03  0.25500000000E-02 0.  1.
    8880023    1    1    2    0    0  0.53322202722E+03 -0.28731931105E+03  0.21597770405E+04  0.23378034964E+04  0.65864270000E+03 0. -1.
    8880022    1    1    2    0    0 -0.53322202722E+03  0.28731931105E+03 -0.50811303755E+03  0.80526308047E+03  0.15294330000E+03 0.  0.
<mgrwt>
<rscale>  0 0.81793619E+03</rscale>
<asrwt>0</asrwt>
<pdfrwt beam="1">  1        2 0.36882543E+00 0.89481189E+03</pdfrwt>
<pdfrwt beam="2">  1       -2 0.11472327E+00 0.89481189E+03</pdfrwt>
<totfact> 0.24170270E+00</totfact>
</mgrwt>
</event>
<event>
 4    1  0.2665544E-007  0.7422004E+03  0.7818608E-02  0.9853583E-01
         -2   -1    0    0    0  501 -0.00000000000E+00  0.00000000000E+00  0.14869162121E+04  0.14869162121E+04  0.25500000000E-02 0.  1.
          2   -1    0    0  501    0  0.00000000000E+00 -0.00000000000E+00 -0.16572928209E+04  0.16572928209E+04  0.25500000000E-02 0. -1.
    8880023    1    1    2    0    0  0.11006403081E+03  0.32394003791E+03 -0.15478882339E+04  0.17166302543E+04  0.65864270000E+03 0. -1.
    8880022    1    1    2    0    0 -0.11006403081E+03 -0.32394003791E+03  0.13775116251E+04  0.14275787787E+04  0.15294330000E+03 0.  0.
<mgrwt>
<rscale>  0 0.62564555E+03</rscale>
<asrwt>0</asrwt>
<pdfrwt beam="1">  1        2 0.25496813E+00 0.74220041E+03</pdfrwt>
<pdfrwt beam="2">  1       -2 0.22875634E+00 0.74220041E+03</pdfrwt>
<totfact> 0.94013831E-01</totfact>
</mgrwt>
</event>
<event>
 4    1  0.2665544E-007  0.1341663E+04  0.7818608E-02  0.9030391E-01
         -2   -1    0    0    0  501 -0.00000000000E+00  0.00000000000E+00  0.20792358897E+04  0.20792358897E+04  0.25500000000E-02 0.  1.
          2   -1    0    0  501    0  0.00000000000E+00 -0.00000000000E+00 -0.18583316097E+04  0.18583316097E+04  0.25500000000E-02 0. -1.
    8880023    1    1    2    0    0  0.96943221776E+03  0.65303201273E+03  0.16230065084E+04  0.21057563883E+04  0.65864270000E+03 0.  1.
    8880022    1    1    2    0    0 -0.96943221776E+03 -0.65303201273E+03 -0.14021022284E+04  0.18318111110E+04  0.15294330000E+03 0.  0.
<mgrwt>
<rscale>  0 0.12989590E+04</rscale>
<asrwt>0</asrwt>
<pdfrwt beam="1">  1        2 0.28589717E+00 0.13416631E+04</pdfrwt>
<pdfrwt beam="2">  1       -2 0.31988244E+00 0.13416631E+04</pdfrwt>
<totfact> 0.18407125E-01</totfact>
</mgrwt>
</event>
<event>
 4    1  0.2665544E-007  0.8266983E+03  0.7818608E-02  0.9655791E-01
         -2   -1    0    0    0  501 -0.00000000000E+00  0.00000000000E+00  0.57981105253E+03  0.57981105254E+03  0.25500000000E-02 0.  1.
          2   -1    0    0  501    0  0.00000000000E+00 -0.00000000000E+00 -0.23120719742E+04  0.23120719742E+04  0.25500000000E-02 0. -1.
    8880023    1    1    2    0    0 -0.69387818773E+02  0.49477794303E+03 -0.20973951395E+04  0.22544392784E+04  0.65864270000E+03 0.  0.
    8880022    1    1    2    0    0  0.69387818773E+02 -0.49477794303E+03  0.36513421784E+03  0.63744374838E+03  0.15294330000E+03 0.  0.
<mgrwt>
<rscale>  0 0.73711103E+03</rscale>
<asrwt>0</asrwt>
<pdfrwt beam="1">  1        2 0.35570337E+00 0.82669831E+03</pdfrwt>
<pdfrwt beam="2">  1       -2 0.89201702E-01 0.82669831E+03</pdfrwt>
<totfact> 0.49641043E+00</totfact>
</mgrwt>
</event>
<event>
 4    1  0.2665544E-007  0.1242502E+04  0.7818608E-02  0.9116875E-01
          2   -1    0    0  501    0  0.00000000000E+00  0.00000000000E+00  0.14692887333E+04  0.14692887333E+04  0.25500000000E-02 0. -1.
         -2   -1    0    0    0  501 -0.00000000000E+00 -0.00000000000E+00 -0.10916457386E+04  0.10916457386E+04  0.25500000000E-02 0.  1.
    8880023    1    1    2    0    0  0.33777141103E+03  0.99795341992E+03  0.72810918167E+03  0.14401228215E+04  0.65864270000E+03 0. -1.
    8880022    1    1    2    0    0 -0.33777141103E+03 -0.99795341992E+03 -0.35046618690E+03  0.11208116504E+04  0.15294330000E+03 0.  0.
<mgrwt>
<rscale>  0 0.11954194E+04</rscale>
<asrwt>0</asrwt>
<pdfrwt beam="1">  1        2 0.22604442E+00 0.12425018E+04</pdfrwt>
<pdfrwt beam="2">  1       -2 0.16794550E+00 0.12425018E+04</pdfrwt>
<totfact> 0.28164230E+00</totfact>
</mgrwt>
</event>
<event>
 4    1  0.2665544E-007  0.7619466E+03  0.7818608E-02  0.9800094E-01
         -2   -1    0    0    0  501 -0.00000000000E+00  0.00000000000E+00  0.31758410018E+03  0.31758410019E+03  0.25500000000E-02 0.  1.
          2   -1    0    0  501    0  0.00000000000E+00 -0.00000000000E+00 -0.20455589823E+04  0.20455589823E+04  0.25500000000E-02 0. -1.
    8880023    1    1    2    0    0 -0.38307892936E+03 -0.17285070020E+01 -0.17905606293E+04  0.19459367994E+04  0.65864270000E+03 0.  0.
    8880022    1    1    2    0    0  0.38307892936E+03  0.17285070020E+01  0.62585747207E+02  0.41720628306E+03  0.15294330000E+03 0.  0.
<mgrwt>
<rscale>  0 0.65357514E+03</rscale>
<asrwt>0</asrwt>
<pdfrwt beam="1">  1        2 0.31470137E+00 0.76194663E+03</pdfrwt>
<pdfrwt beam="2">  1       -2 0.48859094E-01 0.76194663E+03</pdfrwt>
<totfact> 0.25808659E+01</totfact>
</mgrwt>
</event>
<event>
 4    1  0.2665544E-007  0.6814464E+03  0.7818608E-02  0.1008517E+00
         -2   -1    0    0    0  501 -0.00000000000E+00  0.00000000000E+00  0.31349205995E+03  0.31349205996E+03  0.25500000000E-02 0.  1.
          2   -1    0    0  501    0  0.00000000000E+00 -0.00000000000E+00 -0.11199897880E+04  0.11199897880E+04  0.25500000000E-02 0. -1.
    8880023    1    1    2    0    0 -0.13928873848E+03  0.10562950547E+03 -0.94346869179E+03  0.11638308828E+04  0.65864270000E+03 0. -1.
    8880022    1    1    2    0    0  0.13928873848E+03 -0.10562950547E+03  0.13697096374E+03  0.26965096517E+03  0.15294330000E+03 0.  0.
<mgrwt>
<rscale>  0 0.52068287E+03</rscale>
<asrwt>0</asrwt>
<pdfrwt beam="1">  1        2 0.17230612E+00 0.68144637E+03</pdfrwt>
<pdfrwt beam="2">  1       -2 0.48229548E-01 0.68144637E+03</pdfrwt>
<totfact> 0.88046448E+01</totfact>
</mgrwt>
</event>
<event>
 4    1  0.2665544E-007  0.6847675E+03  0.7818608E-02  0.1006746E+00
         -2   -1    0    0    0  501 -0.00000000000E+00  0.00000000000E+00  0.34604288737E+03  0.34604288738E+03  0.25500000000E-02 0.  1.
          2   -1    0    0  501    0  0.00000000000E+00 -0.00000000000E+00 -0.34390825865E+04  0.34390825865E+04  0.25500000000E-02 0. -1.
    8880023    1    1    2    0    0 -0.17158989716E+03 -0.75187879046E+02 -0.33575813672E+04  0.34266979956E+04  0.65864270000E+03 0. -1.
    8880022    1    1    2    0    0  0.17158989716E+03  0.75187879046E+02  0.26454166808E+03  0.35842747820E+03  0.15294330000E+03 0.  0.
<mgrwt>
<rscale>  0 0.52788663E+03</rscale>
<asrwt>0</asrwt>
<pdfrwt beam="1">  1        2 0.52908961E+00 0.68476749E+03</pdfrwt>
<pdfrwt beam="2">  1       -2 0.53237369E-01 0.68476749E+03</pdfrwt>
<totfact> 0.32778745E+00</totfact>
</mgrwt>
</event>
<event>
 4    1  0.2665544E-007  0.1312245E+04  0.7818608E-02  0.9055057E-01
         -2   -1    0    0    0  501 -0.00000000000E+00  0.00000000000E+00  0.11306014143E+04  0.11306014143E+04  0.25500000000E-02 0.  1.
          2   -1    0    0  501    0  0.00000000000E+00 -0.00000000000E+00 -0.17505944732E+04  0.17505944732E+04  0.25500000000E-02 0. -1.
    8880023    1    1    2    0    0 -0.97441050824E+03  0.58198124975E+03 -0.10264071137E+04  0.16659831281E+04  0.65864270000E+03 0.  0.
    8880022    1    1    2    0    0  0.97441050824E+03 -0.58198124975E+03  0.40641405490E+03  0.12152127594E+04  0.15294330000E+03 0.  0.
<mgrwt>
<rscale>  0 0.12683387E+04</rscale>
<asrwt>0</asrwt>
<pdfrwt beam="1">  1        2 0.26932223E+00 0.13122455E+04</pdfrwt>
<pdfrwt beam="2">  1       -2 0.17393868E+00 0.13122455E+04</pdfrwt>
<totfact> 0.17627353E+00</totfact>
</mgrwt>
</event>
<event>
 4    1  0.2665544E-007  0.1128390E+04  0.7818608E-02  0.9230087E-01
          2   -1    0    0  501    0  0.00000000000E+00  0.00000000000E+00  0.24925541463E+04  0.24925541463E+04  0.25500000000E-02 0. -1.
         -2   -1    0    0    0  501 -0.00000000000E+00 -0.00000000000E+00 -0.63771556557E+03  0.63771556558E+03  0.25500000000E-02 0.  1.
    8880023    1    1    2    0    0  0.41811522607E+03  0.81525016114E+03  0.18894324859E+04  0.22007313540E+04  0.65864270000E+03 0.  0.
    8880022    1    1    2    0    0 -0.41811522607E+03 -0.81525016114E+03 -0.34593905138E+02  0.92953835789E+03  0.15294330000E+03 0.  0.
<mgrwt>
<rscale>  0 0.10748205E+04</rscale>
<asrwt>0</asrwt>
<pdfrwt beam="1">  1        2 0.38346986E+00 0.11283897E+04</pdfrwt>
<pdfrwt beam="2">  1       -2 0.98110088E-01 0.11283897E+04</pdfrwt>
<totfact> 0.30135830E+00</totfact>
</mgrwt>
</event>
<event>
 4    1  0.2665544E-007  0.6696758E+03  0.7818608E-02  0.1015896E+00
         -2   -1    0    0    0  501 -0.00000000000E+00  0.00000000000E+00  0.78786696363E+03  0.78786696364E+03  0.25500000000E-02 0.  1.
          2   -1    0    0  501    0  0.00000000000E+00 -0.00000000000E+00 -0.67143318410E+03  0.67143318410E+03  0.25500000000E-02 0. -1.
    8880023    1    1    2    0    0  0.12052168112E+03 -0.11401987420E+02 -0.48511105572E+03  0.82692105039E+03  0.65864270000E+03 0. -1.
    8880022    1    1    2    0    0 -0.12052168112E+03  0.11401987420E+02  0.60154483525E+03  0.63237909735E+03  0.15294330000E+03 0.  0.
<mgrwt>
<rscale>  0 0.49197009E+03</rscale>
<asrwt>0</asrwt>
<pdfrwt beam="1">  1        2 0.10329741E+00 0.66967581E+03</pdfrwt>
<pdfrwt beam="2">  1       -2 0.12121030E+00 0.66967581E+03</pdfrwt>
<totfact> 0.22840353E+01</totfact>
</mgrwt>
</event>
<event>
 4    1  0.2665544E-007  0.6616635E+03  0.7818608E-02  0.1022513E+00
         -2   -1    0    0    0  501 -0.00000000000E+00  0.00000000000E+00  0.73572785202E+02  0.73572785246E+02  0.25500000000E-02 0.  1.
          2   -1    0    0  501    0  0.00000000000E+00 -0.00000000000E+00 -0.30572465690E+04  0.30572465690E+04  0.25500000000E-02 0. -1.
    8880023    1    1    2    0    0  0.23382437591E+02 -0.58665039620E+02 -0.28254024767E+04  0.29018438426E+04  0.65864270000E+03 0. -1.
    8880022    1    1    2    0    0 -0.23382437591E+02  0.58665039620E+02 -0.15827130706E+03  0.22897551161E+03  0.15294330000E+03 0.  0.
<mgrwt>
<rscale>  0 0.46790426E+03</rscale>
<asrwt>0</asrwt>
<pdfrwt beam="1">  1        2 0.47034553E+00 0.66166346E+03</pdfrwt>
<pdfrwt beam="2">  1       -2 0.11318892E-01 0.66166346E+03</pdfrwt>
<totfact> 0.96108729E+01</totfact>
</mgrwt>
</event>
<event>
 4    1  0.2665544E-007  0.6722456E+03  0.7818608E-02  0.1014102E+00
         -2   -1    0    0    0  501 -0.00000000000E+00  0.00000000000E+00  0.12044978644E+04  0.12044978644E+04  0.25500000000E-02 0.  1.
          2   -1    0    0  501    0  0.00000000000E+00 -0.00000000000E+00 -0.70131887223E+03  0.70131887223E+03  0.25500000000E-02 0. -1.
    8880023    1    1    2    0    0  0.11395050382E+03 -0.71549065859E+02 -0.52793804686E+03  0.85477059714E+03  0.65864270000E+03 0. -1.
    8880022    1    1    2    0    0 -0.11395050382E+03  0.71549065859E+02  0.10311170390E+04  0.10510461395E+04  0.15294330000E+03 0.  0.
<mgrwt>
<rscale>  0 0.49876538E+03</rscale>
<asrwt>0</asrwt>
<pdfrwt beam="1">  1        2 0.10789521E+00 0.67224563E+03</pdfrwt>
<pdfrwt beam="2">  1       -2 0.18530736E+00 0.67224563E+03</pdfrwt>
<totfact> 0.70134501E+00</totfact>
</mgrwt>
</event>
<event>
 4    1  0.2665544E-007  0.6645505E+03  0.7818608E-02  0.1019914E+00
          2   -1    0    0  501    0  0.00000000000E+00  0.00000000000E+00  0.43494189337E+04  0.43494189337E+04  0.25500000000E-02 0. -1.
         -2   -1    0    0    0  501 -0.00000000000E+00 -0.00000000000E+00 -0.11713928782E+03  0.11713928785E+03  0.25500000000E-02 0.  1.
    8880023    1    1    2    0    0  0.16904702223E+02 -0.86783366605E+02  0.42380183417E+04  0.42898049830E+04  0.65864270000E+03 0.  0.
    8880022    1    1    2    0    0 -0.16904702223E+02  0.86783366605E+02 -0.57386958289E+01  0.17675323850E+03  0.15294330000E+03 0.  1.
<mgrwt>
<rscale>  0 0.47717817E+03</rscale>
<asrwt>0</asrwt>
<pdfrwt beam="1">  1        2 0.66914142E+00 0.66455047E+03</pdfrwt>
<pdfrwt beam="2">  1       -2 0.18021428E-01 0.66455047E+03</pdfrwt>
<totfact> 0.50140848E+00</totfact>
</mgrwt>
</event>
<event>
 4    1  0.2665544E-007  0.7543189E+03  0.7818608E-02  0.9820044E-01
         -2   -1    0    0    0  501 -0.00000000000E+00  0.00000000000E+00  0.61912049943E+03  0.61912049943E+03  0.25500000000E-02 0.  1.
          2   -1    0    0  501    0  0.00000000000E+00 -0.00000000000E+00 -0.16323587389E+04  0.16323587389E+04  0.25500000000E-02 0. -1.
    8880023    1    1    2    0    0  0.32933549205E+03  0.16347755402E+03 -0.14658951366E+04  0.16485889527E+04  0.65864270000E+03 0. -1.
    8880022    1    1    2    0    0 -0.32933549205E+03 -0.16347755402E+03  0.45265689716E+03  0.60289028567E+03  0.15294330000E+03 0.  0.
<mgrwt>
<rscale>  0 0.64297894E+03</rscale>
<asrwt>0</asrwt>
<pdfrwt beam="1">  1        2 0.25113211E+00 0.75431889E+03</pdfrwt>
<pdfrwt beam="2">  1       -2 0.95249308E-01 0.75431889E+03</pdfrwt>
<totfact> 0.10171941E+01</totfact>
</mgrwt>
</event>
<event>
 4    1  0.2665544E-007  0.1518748E+04  0.7818608E-02  0.8896509E-01
         -2   -1    0    0    0  501 -0.00000000000E+00  0.00000000000E+00  0.25170612533E+04  0.25170612533E+04  0.25500000000E-02 0.  1.
          2   -1    0    0  501    0  0.00000000000E+00 -0.00000000000E+00 -0.11016224612E+04  0.11016224612E+04  0.25500000000E-02 0. -1.
    8880023    1    1    2    0    0  0.32453666624E+03 -0.13294592323E+04 -0.15897289150E+03  0.15270456720E+04  0.65864270000E+03 0.  0.
    8880022    1    1    2    0    0 -0.32453666624E+03  0.13294592323E+04  0.15744116836E+04  0.20916380424E+04  0.15294330000E+03 0.  0.
<mgrwt>
<rscale>  0 0.14820034E+04</rscale>
<asrwt>0</asrwt>
<pdfrwt beam="1">  1        2 0.16948038E+00 0.15187482E+04</pdfrwt>
<pdfrwt beam="2">  1       -2 0.38724019E+00 0.15187482E+04</pdfrwt>
<totfact> 0.18481392E-01</totfact>
</mgrwt>
</event>
<event>
 4    1  0.2665544E-007  0.1101389E+04  0.7818608E-02  0.9259511E-01
          2   -1    0    0  501    0  0.00000000000E+00  0.00000000000E+00  0.13942625914E+04  0.13942625914E+04  0.25500000000E-02 0. -1.
         -2   -1    0    0    0  501 -0.00000000000E+00 -0.00000000000E+00 -0.18867337815E+04  0.18867337815E+04  0.25500000000E-02 0.  1.
    8880023    1    1    2    0    0 -0.63826858061E+03  0.60980354376E+03  0.10342186582E+04  0.15108492917E+04  0.65864270000E+03 0.  0.
    8880022    1    1    2    0    0  0.63826858061E+03 -0.60980354376E+03 -0.15266898484E+04  0.17701470812E+04  0.15294330000E+03 0.  0.
<mgrwt>
<rscale>  0 0.10459731E+04</rscale>
<asrwt>0</asrwt>
<pdfrwt beam="1">  1        2 0.21450194E+00 0.11013888E+04</pdfrwt>
<pdfrwt beam="2">  1       -2 0.29026674E+00 0.11013888E+04</pdfrwt>
<totfact> 0.52517418E-01</totfact>
</mgrwt>
</event>
<event>
 4    1  0.2665544E-007  0.1133204E+04  0.7818608E-02  0.9224958E-01
          2   -1    0    0  501    0  0.00000000000E+00  0.00000000000E+00  0.27636399130E+04  0.27636399130E+04  0.25500000000E-02 0. -1.
         -2   -1    0    0    0  501 -0.00000000000E+00 -0.00000000000E+00 -0.42058992663E+03  0.42058992664E+03  0.25500000000E-02 0.  1.
    8880023    1    1    2    0    0  0.92023167357E+03  0.59278893089E+02  0.17240113148E+04  0.20630961053E+04  0.65864270000E+03 0.  0.
    8880022    1    1    2    0    0 -0.92023167357E+03 -0.59278893089E+02  0.61903867162E+03  0.11211337343E+04  0.15294330000E+03 0.  0.
<mgrwt>
<rscale>  0 0.10799490E+04</rscale>
<asrwt>0</asrwt>
<pdfrwt beam="1">  1        2 0.42517538E+00 0.11332037E+04</pdfrwt>
<pdfrwt beam="2">  1       -2 0.64706141E-01 0.11332037E+04</pdfrwt>
<totfact> 0.53611569E+00</totfact>
</mgrwt>
</event>
<event>
 4    1  0.2665544E-007  0.7881390E+03  0.7818608E-02  0.9737054E-01
          2   -1    0    0  501    0  0.00000000000E+00  0.00000000000E+00  0.26471744928E+04  0.26471744928E+04  0.25500000000E-02 0. -1.
         -2   -1    0    0    0  501 -0.00000000000E+00 -0.00000000000E+00 -0.45494865801E+03  0.45494865802E+03  0.25500000000E-02 0.  1.
    8880023    1    1    2    0    0  0.13228832061E+03 -0.41213186792E+03  0.24513760199E+04  0.25749577615E+04  0.65864270000E+03 0. -1.
    8880022    1    1    2    0    0 -0.13228832061E+03  0.41213186792E+03 -0.25915018505E+03  0.52716538937E+03  0.15294330000E+03 0.  1.
<mgrwt>
<rscale>  0 0.68852807E+03</rscale>
<asrwt>0</asrwt>
<pdfrwt beam="1">  1        2 0.40725761E+00 0.78813900E+03</pdfrwt>
<pdfrwt beam="2">  1       -2 0.69992102E-01 0.78813900E+03</pdfrwt>
<totfact> 0.55577449E+00</totfact>
</mgrwt>
</event>
<event>
 4    1  0.2665544E-007  0.8029909E+03  0.7818608E-02  0.9704366E-01
          2   -1    0    0  501    0  0.00000000000E+00  0.00000000000E+00  0.37319373307E+04  0.37319373307E+04  0.25500000000E-02 0. -1.
         -2   -1    0    0    0  501 -0.00000000000E+00 -0.00000000000E+00 -0.22628036320E+03  0.22628036321E+03  0.25500000000E-02 0.  1.
    8880023    1    1    2    0    0 -0.21404302269E+03 -0.40641078808E+03  0.33571220294E+04  0.34518201968E+04  0.65864270000E+03 0.  0.
    8880022    1    1    2    0    0  0.21404302269E+03  0.40641078808E+03  0.14853493805E+03  0.50639749710E+03  0.15294330000E+03 0.  0.
<mgrwt>
<rscale>  0 0.70757431E+03</rscale>
<asrwt>0</asrwt>
<pdfrwt beam="1">  1        2 0.57414419E+00 0.80299088E+03</pdfrwt>
<pdfrwt beam="2">  1       -2 0.34812364E-01 0.80299088E+03</pdfrwt>
<totfact> 0.46256017E+00</totfact>
</mgrwt>
</event>
<event>
 4    1  0.2665544E-007  0.7452522E+03  0.7818608E-02  0.9844904E-01
         -2   -1    0    0    0  501 -0.00000000000E+00  0.00000000000E+00  0.14633037860E+03  0.14633037862E+03  0.25500000000E-02 0.  1.
          2   -1    0    0  501    0  0.00000000000E+00 -0.00000000000E+00 -0.24609891641E+04  0.24609891641E+04  0.25500000000E-02 0. -1.
    8880023    1    1    2    0    0  0.34667327321E+03 -0.37526226930E+02 -0.10571790663E+04  0.12934559755E+04  0.65864270000E+03 0.  0.
    8880022    1    1    2    0    0 -0.34667327321E+03  0.37526226930E+02 -0.12574797192E+04  0.13138635672E+04  0.15294330000E+03 0.  0.
<mgrwt>
<rscale>  0 0.63007432E+03</rscale>
<asrwt>0</asrwt>
<pdfrwt beam="1">  1        2 0.37861369E+00 0.74525216E+03</pdfrwt>
<pdfrwt beam="2">  1       -2 0.22512368E-01 0.74525216E+03</pdfrwt>
<totfact> 0.65949799E+01</totfact>
</mgrwt>
</event>
<event>
 4    1  0.2665544E-007  0.7677548E+03  0.7818608E-02  0.9785429E-01
          2   -1    0    0  501    0  0.00000000000E+00  0.00000000000E+00  0.93419460384E+03  0.93419460385E+03  0.25500000000E-02 0. -1.
         -2   -1    0    0    0  501 -0.00000000000E+00 -0.00000000000E+00 -0.79869377182E+03  0.79869377183E+03  0.25500000000E-02 0.  1.
    8880023    1    1    2    0    0  0.36800137197E+03  0.14216990650E+03  0.69214431645E+03  0.10336881798E+04  0.65864270000E+03 0. -1.
    8880022    1    1    2    0    0 -0.36800137197E+03 -0.14216990650E+03 -0.55664348443E+03  0.69920019583E+03  0.15294330000E+03 0.  0.
<mgrwt>
<rscale>  0 0.66150378E+03</rscale>
<asrwt>0</asrwt>
<pdfrwt beam="1">  1        2 0.14372225E+00 0.76775484E+03</pdfrwt>
<pdfrwt beam="2">  1       -2 0.12287597E+00 0.76775484E+03</pdfrwt>
<totfact> 0.14119722E+01</totfact>
</mgrwt>
</event>
<event>
 4    1  0.2665544E-007  0.1126463E+04  0.7818608E-02  0.9232149E-01
         -2   -1    0    0    0  501 -0.00000000000E+00  0.00000000000E+00  0.13981971824E+04  0.13981971824E+04  0.25500000000E-02 0.  1.
          2   -1    0    0  501    0  0.00000000000E+00 -0.00000000000E+00 -0.15506288281E+04  0.15506288281E+04  0.25500000000E-02 0. -1.
    8880023    1    1    2    0    0  0.89642256737E+03  0.17758345988E+03 -0.11344327604E+04  0.15987048504E+04  0.65864270000E+03 0.  0.
    8880022    1    1    2    0    0 -0.89642256737E+03 -0.17758345988E+03  0.98200111473E+03  0.13501211601E+04  0.15294330000E+03 0.  0.
<mgrwt>
<rscale>  0 0.10727669E+04</rscale>
<asrwt>0</asrwt>
<pdfrwt beam="1">  1        2 0.23855828E+00 0.11264633E+04</pdfrwt>
<pdfrwt beam="2">  1       -2 0.21510726E+00 0.11264633E+04</pdfrwt>
<totfact> 0.12352803E+00</totfact>
</mgrwt>
</event>
<event>
 4    1  0.2665544E-007  0.7055642E+03  0.7818608E-02  0.9974857E-01
         -2   -1    0    0    0  501 -0.00000000000E+00  0.00000000000E+00  0.54481453134E+03  0.54481453134E+03  0.25500000000E-02 0.  1.
          2   -1    0    0  501    0  0.00000000000E+00 -0.00000000000E+00 -0.16520520295E+04  0.16520520295E+04  0.25500000000E-02 0. -1.
    8880023    1    1    2    0    0  0.10599227102E+03  0.22973085991E+03 -0.15277633720E+04  0.16828195853E+04  0.65864270000E+03 0.  0.
    8880022    1    1    2    0    0 -0.10599227102E+03 -0.22973085991E+03  0.42052587383E+03  0.51404697557E+03  0.15294330000E+03 0.  1.
<mgrwt>
<rscale>  0 0.56766582E+03</rscale>
<asrwt>0</asrwt>
<pdfrwt beam="1">  1        2 0.25416185E+00 0.70556420E+03</pdfrwt>
<pdfrwt beam="2">  1       -2 0.83817621E-01 0.70556420E+03</pdfrwt>
<totfact> 0.13410786E+01</totfact>
</mgrwt>
</event>
<event>
 4    1  0.2665544E-007  0.6609483E+03  0.7818608E-02  0.1023205E+00
          2   -1    0    0  501    0  0.00000000000E+00  0.00000000000E+00  0.15632460084E+04  0.15632460084E+04  0.25500000000E-02 0. -1.
         -2   -1    0    0    0  501 -0.00000000000E+00 -0.00000000000E+00 -0.18382853159E+03  0.18382853161E+03  0.25500000000E-02 0.  1.
    8880023    1    1    2    0    0 -0.52201347257E+02 -0.17816970689E+02  0.14311955227E+04  0.15764432294E+04  0.65864270000E+03 0. -1.
    8880022    1    1    2    0    0  0.52201347257E+02  0.17816970689E+02 -0.51778045910E+02  0.17063131059E+03  0.15294330000E+03 0.  0.
<mgrwt>
<rscale>  0 0.46547475E+03</rscale>
<asrwt>0</asrwt>
<pdfrwt beam="1">  1        2 0.24049938E+00 0.66094828E+03</pdfrwt>
<pdfrwt beam="2">  1       -2 0.28281313E-01 0.66094828E+03</pdfrwt>
<totfact> 0.13719919E+02</totfact>
</mgrwt>
</event>
<event>
 4    1  0.2665544E-007  0.7603558E+03  0.7818608E-02  0.9804187E-01
         -2   -1    0    0    0  501 -0.00000000000E+00  0.00000000000E+00  0.46061905216E+03  0.46061905217E+03  0.25500000000E-02 0.  1.
          2   -1    0    0  501    0  0.00000000000E+00 -0.00000000000E+00 -0.13082844808E+04  0.13082844808E+04  0.25500000000E-02 0. -1.
    8880023    1    1    2    0    0 -0.11021858171E+03 -0.36356932465E+03 -0.10624183615E+04  0.13064737926E+04  0.65864270000E+03 0. -1.
    8880022    1    1    2    0    0  0.11021858171E+03  0.36356932465E+03  0.21475293288E+03  0.46242974037E+03  0.15294330000E+03 0.  0.
<mgrwt>
<rscale>  0 0.65138321E+03</rscale>
<asrwt>0</asrwt>
<pdfrwt beam="1">  1        2 0.20127453E+00 0.76035584E+03</pdfrwt>
<pdfrwt beam="2">  1       -2 0.70864470E-01 0.76035584E+03</pdfrwt>
<totfact> 0.30149557E+01</totfact>
</mgrwt>
</event>
<event>
 4    1  0.2665544E-007  0.6587333E+03  0.7818608E-02  0.1025493E+00
          2   -1    0    0  501    0  0.00000000000E+00  0.00000000000E+00  0.23676124897E+04  0.23676124897E+04  0.25500000000E-02 0. -1.
         -2   -1    0    0    0  501 -0.00000000000E+00 -0.00000000000E+00 -0.30964069399E+03  0.30964069400E+03  0.25500000000E-02 0.  1.
    8880023    1    1    2    0    0  0.93689964009E+00 -0.10887438770E+02  0.22990409578E+04  0.23915515771E+04  0.65864270000E+03 0. -1.
    8880022    1    1    2    0    0 -0.93689964009E+00  0.10887438770E+02 -0.24106916207E+03  0.28570160661E+03  0.15294330000E+03 0.  0.
<mgrwt>
<rscale>  0 0.45755286E+03</rscale>
<asrwt>0</asrwt>
<pdfrwt beam="1">  1        2 0.36424807E+00 0.65873335E+03</pdfrwt>
<pdfrwt beam="2">  1       -2 0.47637031E-01 0.65873335E+03</pdfrwt>
<totfact> 0.18338036E+01</totfact>
</mgrwt>
</event>
<event>
 4    1  0.2665544E-007  0.6722535E+03  0.7818608E-02  0.1014096E+00
          2   -1    0    0  501    0  0.00000000000E+00  0.00000000000E+00  0.16621762914E+04  0.16621762914E+04  0.25500000000E-02 0. -1.
         -2   -1    0    0    0  501 -0.00000000000E+00 -0.00000000000E+00 -0.44918245066E+03  0.44918245067E+03  0.25500000000E-02 0.  1.
    8880023    1    1    2    0    0  0.94481723929E+02  0.95852683884E+02  0.15657680914E+04  0.17039819410E+04  0.65864270000E+03 0. -1.
    8880022    1    1    2    0    0 -0.94481723929E+02 -0.95852683884E+02 -0.35277425059E+03  0.40737680108E+03  0.15294330000E+03 0.  0.
<mgrwt>
<rscale>  0 0.49878559E+03</rscale>
<asrwt>0</asrwt>
<pdfrwt beam="1">  1        2 0.25571943E+00 0.67225348E+03</pdfrwt>
<pdfrwt beam="2">  1       -2 0.69104993E-01 0.67225348E+03</pdfrwt>
<totfact> 0.20426467E+01</totfact>
</mgrwt>
</event>
<event>
 4    1  0.2665544E-007  0.7577055E+03  0.7818608E-02  0.9811084E-01
         -2   -1    0    0    0  501 -0.00000000000E+00  0.00000000000E+00  0.46455342780E+03  0.46455342780E+03  0.25500000000E-02 0.  1.
          2   -1    0    0  501    0  0.00000000000E+00 -0.00000000000E+00 -0.12822201176E+04  0.12822201176E+04  0.25500000000E-02 0. -1.
    8880023    1    1    2    0    0 -0.36463444435E+03  0.85727240880E+02 -0.10387314070E+04  0.12857218128E+04  0.65864270000E+03 0. -1.
    8880022    1    1    2    0    0  0.36463444435E+03 -0.85727240880E+02  0.22106471725E+03  0.46105173253E+03  0.15294330000E+03 0.  0.
<mgrwt>
<rscale>  0 0.64771077E+03</rscale>
<asrwt>0</asrwt>
<pdfrwt beam="1">  1        2 0.19726463E+00 0.75770551E+03</pdfrwt>
<pdfrwt beam="2">  1       -2 0.71469759E-01 0.75770551E+03</pdfrwt>
<totfact> 0.30645191E+01</totfact>
</mgrwt>
</event>
<event>
 4    1  0.2665544E-007  0.8914738E+03  0.7818608E-02  0.9539860E-01
         -2   -1    0    0    0  501 -0.00000000000E+00  0.00000000000E+00  0.85320042526E+03  0.85320042527E+03  0.25500000000E-02 0.  1.
          2   -1    0    0  501    0  0.00000000000E+00 -0.00000000000E+00 -0.12582850961E+04  0.12582850961E+04  0.25500000000E-02 0. -1.
    8880023    1    1    2    0    0  0.49140155985E+03  0.34560067656E+03 -0.93795224194E+03  0.12940169764E+04  0.65864270000E+03 0. -1.
    8880022    1    1    2    0    0 -0.49140155985E+03 -0.34560067656E+03  0.53286757113E+03  0.81746854499E+03  0.15294330000E+03 0.  0.
<mgrwt>
<rscale>  0 0.81407838E+03</rscale>
<asrwt>0</asrwt>
<pdfrwt beam="1">  1        2 0.19358232E+00 0.89147379E+03</pdfrwt>
<pdfrwt beam="2">  1       -2 0.13126160E+00 0.89147379E+03</pdfrwt>
<totfact> 0.74387816E+00</totfact>
</mgrwt>
</event>
<event>
 4    1  0.2665544E-007  0.7010000E+03  0.7818608E-02  0.9993078E-01
          2   -1    0    0  501    0  0.00000000000E+00  0.00000000000E+00  0.24824553659E+04  0.24824553659E+04  0.25500000000E-02 0. -1.
         -2   -1    0    0    0  501 -0.00000000000E+00 -0.00000000000E+00 -0.49089211397E+03  0.49089211398E+03  0.25500000000E-02 0.  1.
    8880023    1    1    2    0    0  0.13818979216E+03  0.19619998673E+03  0.23860708318E+04  0.24869127596E+04  0.65864270000E+03 0. -1.
    8880022    1    1    2    0    0 -0.13818979216E+03 -0.19619998673E+03 -0.39450757987E+03  0.48643472023E+03  0.15294330000E+03 0.  0.
<mgrwt>
<rscale>  0 0.55954811E+03</rscale>
<asrwt>0</asrwt>
<pdfrwt beam="1">  1        2 0.38191621E+00 0.70100004E+03</pdfrwt>
<pdfrwt beam="2">  1       -2 0.75521863E-01 0.70100004E+03</pdfrwt>
<totfact> 0.59312673E+00</totfact>
</mgrwt>
</event>
<event>
 4    1  0.2665544E-007  0.8095879E+03  0.7818608E-02  0.9690436E-01
         -2   -1    0    0    0  501 -0.00000000000E+00  0.00000000000E+00  0.23229540384E+03  0.23229540386E+03  0.25500000000E-02 0.  1.
          2   -1    0    0  501    0  0.00000000000E+00 -0.00000000000E+00 -0.41608469609E+04  0.41608469609E+04  0.25500000000E-02 0. -1.
    8880023    1    1    2    0    0 -0.20374288104E+03 -0.42439518241E+03 -0.37950825952E+04  0.38804747832E+04  0.65864270000E+03 0. -1.
    8880022    1    1    2    0    0  0.20374288104E+03  0.42439518241E+03 -0.13346896192E+03  0.51266758161E+03  0.15294330000E+03 0.  0.
<mgrwt>
<rscale>  0 0.71589100E+03</rscale>
<asrwt>0</asrwt>
<pdfrwt beam="1">  1        2 0.64013025E+00 0.80958794E+03</pdfrwt>
<pdfrwt beam="2">  1       -2 0.35737757E-01 0.80958794E+03</pdfrwt>
<totfact> 0.20379180E+00</totfact>
</mgrwt>
</event>
<event>
 4    1  0.2665544E-007  0.1332350E+04  0.7818608E-02  0.9038115E-01
         -2   -1    0    0    0  501 -0.00000000000E+00  0.00000000000E+00  0.16659235921E+04  0.16659235921E+04  0.25500000000E-02 0.  1.
          2   -1    0    0  501    0  0.00000000000E+00 -0.00000000000E+00 -0.17753266829E+04  0.17753266829E+04  0.25500000000E-02 0. -1.
    8880023    1    1    2    0    0  0.10815654674E+04 -0.41420197886E+03 -0.12366745319E+04  0.18178342179E+04  0.65864270000E+03 0.  0.
    8880022    1    1    2    0    0 -0.10815654674E+04  0.41420197886E+03  0.11272714411E+04  0.16234160571E+04  0.15294330000E+03 0.  0.
<mgrwt>
<rscale>  0 0.12892734E+04</rscale>
<asrwt>0</asrwt>
<pdfrwt beam="1">  1        2 0.27312718E+00 0.13323503E+04</pdfrwt>
<pdfrwt beam="2">  1       -2 0.25629594E+00 0.13323503E+04</pdfrwt>
<totfact> 0.50060711E-01</totfact>
</mgrwt>
</event>
<event>
 4    1  0.2665544E-007  0.7328895E+03  0.7818608E-02  0.9881165E-01
         -2   -1    0    0    0  501 -0.00000000000E+00  0.00000000000E+00  0.59659386790E+03  0.59659386790E+03  0.25500000000E-02 0.  1.
          2   -1    0    0  501    0  0.00000000000E+00 -0.00000000000E+00 -0.12079334002E+04  0.12079334002E+04  0.25500000000E-02 0. -1.
    8880023    1    1    2    0    0  0.15090703484E+00  0.32142936607E+03 -0.10241946981E+04  0.12594053541E+04  0.65864270000E+03 0.  0.
    8880022    1    1    2    0    0 -0.15090703484E+00 -0.32142936607E+03  0.41285516580E+03  0.54512191397E+03  0.15294330000E+03 0.  0.
<mgrwt>
<rscale>  0 0.61182837E+03</rscale>
<asrwt>0</asrwt>
<pdfrwt beam="1">  1        2 0.18583591E+00 0.73288953E+03</pdfrwt>
<pdfrwt beam="2">  1       -2 0.91783672E-01 0.73288953E+03</pdfrwt>
<totfact> 0.19322009E+01</totfact>
</mgrwt>
</event>
<event>
 4    1  0.2665544E-007  0.9854134E+03  0.7818608E-02  0.9400895E-01
         -2   -1    0    0    0  501 -0.00000000000E+00  0.00000000000E+00  0.99399255061E+03  0.99399255062E+03  0.25500000000E-02 0.  1.
          2   -1    0    0  501    0  0.00000000000E+00 -0.00000000000E+00 -0.83987833646E+03  0.83987833646E+03  0.25500000000E-02 0. -1.
    8880023    1    1    2    0    0 -0.31247714337E+03 -0.66301381231E+03 -0.20016656852E+03  0.10055377377E+04  0.65864270000E+03 0. -1.
    8880022    1    1    2    0    0  0.31247714337E+03  0.66301381231E+03  0.35428078268E+03  0.82833314942E+03  0.15294330000E+03 0.  0.
<mgrwt>
<rscale>  0 0.92002049E+03</rscale>
<asrwt>0</asrwt>
<pdfrwt beam="1">  1        2 0.12921205E+00 0.98541336E+03</pdfrwt>
<pdfrwt beam="2">  1       -2 0.15292193E+00 0.98541336E+03</pdfrwt>
<totfact> 0.91178689E+00</totfact>
</mgrwt>
</event>
<event>
 4    1  0.2665544E-007  0.1043382E+04  0.7818608E-02  0.9326880E-01
          2   -1    0    0  501    0  0.00000000000E+00  0.00000000000E+00  0.11784127418E+04  0.11784127418E+04  0.25500000000E-02 0. -1.
         -2   -1    0    0    0  501 -0.00000000000E+00 -0.00000000000E+00 -0.21967200423E+04  0.21967200423E+04  0.25500000000E-02 0.  1.
    8880023    1    1    2    0    0  0.57105191930E+03  0.57335369681E+03  0.84195953938E+03  0.13407239941E+04  0.65864270000E+03 0.  0.
    8880022    1    1    2    0    0 -0.57105191930E+03 -0.57335369681E+03 -0.18602668399E+04  0.20344087900E+04  0.15294330000E+03 0.  0.
<mgrwt>
<rscale>  0 0.98345431E+03</rscale>
<asrwt>0</asrwt>
<pdfrwt beam="1">  1        2 0.18129427E+00 0.10433815E+04</pdfrwt>
<pdfrwt beam="2">  1       -2 0.33795693E+00 0.10433815E+04</pdfrwt>
<totfact> 0.36233146E-01</totfact>
</mgrwt>
</event>
<event>
 4    1  0.2665544E-007  0.1358873E+04  0.7818608E-02  0.9016316E-01
         -2   -1    0    0    0  501 -0.00000000000E+00  0.00000000000E+00  0.14434472460E+04  0.14434472460E+04  0.25500000000E-02 0.  1.
          2   -1    0    0  501    0  0.00000000000E+00 -0.00000000000E+00 -0.16370903969E+04  0.16370903969E+04  0.25500000000E-02 0. -1.
    8880023    1    1    2    0    0  0.90614749566E+03  0.76917069839E+03 -0.95487675801E+03  0.16608210850E+04  0.65864270000E+03 0.  0.
    8880022    1    1    2    0    0 -0.90614749566E+03 -0.76917069839E+03  0.76123360707E+03  0.14197165579E+04  0.15294330000E+03 0.  0.
<mgrwt>
<rscale>  0 0.13168401E+04</rscale>
<asrwt>0</asrwt>
<pdfrwt beam="1">  1        2 0.25186006E+00 0.13588735E+04</pdfrwt>
<pdfrwt beam="2">  1       -2 0.22206881E+00 0.13588735E+04</pdfrwt>
<totfact> 0.97199209E-01</totfact>
</mgrwt>
</event>
<event>
 4    1  0.2665544E-007  0.8847469E+03  0.7818608E-02  0.9550975E-01
          2   -1    0    0  501    0  0.00000000000E+00  0.00000000000E+00  0.18793001043E+04  0.18793001043E+04  0.25500000000E-02 0. -1.
         -2   -1    0    0    0  501 -0.00000000000E+00 -0.00000000000E+00 -0.33746269766E+03  0.33746269767E+03  0.25500000000E-02 0.  1.
    8880023    1    1    2    0    0  0.99826869139E+02  0.58223831793E+03  0.12722704052E+04  0.15496609477E+04  0.65864270000E+03 0. -1.
    8880022    1    1    2    0    0 -0.99826869139E+02 -0.58223831793E+03  0.26956700143E+03  0.66710185425E+03  0.15294330000E+03 0.  0.
<mgrwt>
<rscale>  0 0.80627733E+03</rscale>
<asrwt>0</asrwt>
<pdfrwt beam="1">  1        2 0.28912310E+00 0.88474690E+03</pdfrwt>
<pdfrwt beam="2">  1       -2 0.51917337E-01 0.88474690E+03</pdfrwt>
<totfact> 0.27702883E+01</totfact>
</mgrwt>
</event>
<event>
 4    1  0.2665544E-007  0.1095871E+04  0.7818608E-02  0.9265667E-01
         -2   -1    0    0    0  501 -0.00000000000E+00  0.00000000000E+00  0.97835160648E+03  0.97835160648E+03  0.25500000000E-02 0.  1.
          2   -1    0    0  501    0  0.00000000000E+00 -0.00000000000E+00 -0.20198810531E+04  0.20198810531E+04  0.25500000000E-02 0. -1.
    8880023    1    1    2    0    0 -0.28685841449E+03  0.82754745351E+03 -0.16065941124E+04  0.19447563821E+04  0.65864270000E+03 0.  0.
    8880022    1    1    2    0    0  0.28685841449E+03 -0.82754745351E+03  0.56506466570E+03  0.10534762775E+04  0.15294330000E+03 0.  0.
<mgrwt>
<rscale>  0 0.10400596E+04</rscale>
<asrwt>0</asrwt>
<pdfrwt beam="1">  1        2 0.31075093E+00 0.10958708E+04</pdfrwt>
<pdfrwt beam="2">  1       -2 0.15051563E+00 0.10958708E+04</pdfrwt>
<totfact> 0.19057672E+00</totfact>
</mgrwt>
</event>
<event>
 4    1  0.2665544E-007  0.6948291E+03  0.7818608E-02  0.1001937E+00
          2   -1    0    0  501    0  0.00000000000E+00  0.00000000000E+00  0.36093345383E+03  0.36093345384E+03  0.25500000000E-02 0. -1.
         -2   -1    0    0    0  501 -0.00000000000E+00 -0.00000000000E+00 -0.11242748917E+04  0.11242748917E+04  0.25500000000E-02 0.  1.
    8880023    1    1    2    0    0 -0.19649171054E+03  0.10182507714E+03 -0.20472874948E+02  0.69513069528E+03  0.65864270000E+03 0. -1.
    8880022    1    1    2    0    0  0.19649171054E+03 -0.10182507714E+03 -0.74286856289E+03  0.79007765022E+03  0.15294330000E+03 0.  0.
<mgrwt>
<rscale>  0 0.54809089E+03</rscale>
<asrwt>0</asrwt>
<pdfrwt beam="1">  1        2 0.55528224E-01 0.69482915E+03</pdfrwt>
<pdfrwt beam="2">  1       -2 0.17296537E+00 0.69482915E+03</pdfrwt>
<totfact> 0.18482954E+01</totfact>
</mgrwt>
</event>
<event>
 4    1  0.2665544E-007  0.8735823E+03  0.7818608E-02  0.9569845E-01
          2   -1    0    0  501    0  0.00000000000E+00  0.00000000000E+00  0.37174548083E+04  0.37174548083E+04  0.25500000000E-02 0. -1.
         -2   -1    0    0    0  501 -0.00000000000E+00 -0.00000000000E+00 -0.24425474059E+03  0.24425474060E+03  0.25500000000E-02 0.  1.
    8880023    1    1    2    0    0  0.29290866091E+03 -0.49349809973E+03  0.31829814458E+04  0.33006843152E+04  0.65864270000E+03 0. -1.
    8880022    1    1    2    0    0 -0.29290866091E+03  0.49349809973E+03  0.29021862193E+03  0.66102523371E+03  0.15294330000E+03 0.  0.
<mgrwt>
<rscale>  0 0.79324582E+03</rscale>
<asrwt>0</asrwt>
<pdfrwt beam="1">  1        2 0.57191611E+00 0.87358232E+03</pdfrwt>
<pdfrwt beam="2">  1       -2 0.37577654E-01 0.87358232E+03</pdfrwt>
<totfact> 0.40373970E+00</totfact>
</mgrwt>
</event>
<event>
 4    1  0.2665544E-007  0.7400646E+03  0.7818608E-02  0.9859759E-01
         -2   -1    0    0    0  501 -0.00000000000E+00  0.00000000000E+00  0.11311673562E+04  0.11311673562E+04  0.25500000000E-02 0.  1.
          2   -1    0    0  501    0  0.00000000000E+00 -0.00000000000E+00 -0.28946850918E+03  0.28946850919E+03  0.25500000000E-02 0. -1.
    8880023    1    1    2    0    0 -0.26382144008E+03  0.21043681324E+03  0.39038641982E+03  0.83671809330E+03  0.65864270000E+03 0. -1.
    8880022    1    1    2    0    0  0.26382144008E+03 -0.21043681324E+03  0.45131242724E+03  0.58391777213E+03  0.15294330000E+03 0.  1.
<mgrwt>
<rscale>  0 0.62251808E+03</rscale>
<asrwt>0</asrwt>
<pdfrwt beam="1">  1        2 0.44533616E-01 0.74006460E+03</pdfrwt>
<pdfrwt beam="2">  1       -2 0.17402575E+00 0.74006460E+03</pdfrwt>
<totfact> 0.23139777E+01</totfact>
</mgrwt>
</event>
<event>
 4    1  0.2665544E-007  0.9134419E+03  0.7818608E-02  0.9504789E-01
         -2   -1    0    0    0  501 -0.00000000000E+00  0.00000000000E+00  0.63501094865E+03  0.63501094865E+03  0.25500000000E-02 0.  1.
          2   -1    0    0  501    0  0.00000000000E+00 -0.00000000000E+00 -0.11312536001E+04  0.11312536001E+04  0.25500000000E-02 0. -1.
    8880023    1    1    2    0    0 -0.53189119787E+03 -0.34301258109E+03 -0.61933869693E+03  0.11036106673E+04  0.65864270000E+03 0.  0.
    8880022    1    1    2    0    0  0.53189119787E+03  0.34301258109E+03  0.12309604551E+03  0.66265388144E+03  0.15294330000E+03 0.  0.
<mgrwt>
<rscale>  0 0.83931694E+03</rscale>
<asrwt>0</asrwt>
<pdfrwt beam="1">  1        2 0.17403901E+00 0.91344189E+03</pdfrwt>
<pdfrwt beam="2">  1       -2 0.97693992E-01 0.91344189E+03</pdfrwt>
<totfact> 0.18223194E+01</totfact>
</mgrwt>
</event>
<event>
 4    1  0.2665544E-007  0.1030320E+04  0.7818608E-02  0.9342922E-01
          2   -1    0    0  501    0  0.00000000000E+00  0.00000000000E+00  0.17724017955E+04  0.17724017956E+04  0.25500000000E-02 0. -1.
         -2   -1    0    0    0  501 -0.00000000000E+00 -0.00000000000E+00 -0.83271127982E+03  0.83271127983E+03  0.25500000000E-02 0.  1.
    8880023    1    1    2    0    0 -0.42845168683E+03  0.66646702215E+03  0.13512825649E+04  0.16992715840E+04  0.65864270000E+03 0. -1.
    8880022    1    1    2    0    0  0.42845168683E+03 -0.66646702215E+03 -0.41159204921E+03  0.90584149140E+03  0.15294330000E+03 0.  0.
<mgrwt>
<rscale>  0 0.96925593E+03</rscale>
<asrwt>0</asrwt>
<pdfrwt beam="1">  1        2 0.27267720E+00 0.10303200E+04</pdfrwt>
<pdfrwt beam="2">  1       -2 0.12810943E+00 0.10303200E+04</pdfrwt>
<totfact> 0.39976581E+00</totfact>
</mgrwt>
</event>
<event>
 4    1  0.2665544E-007  0.8625812E+03  0.7818608E-02  0.9588988E-01
          2   -1    0    0  501    0  0.00000000000E+00  0.00000000000E+00  0.14556532694E+04  0.14556532694E+04  0.25500000000E-02 0. -1.
         -2   -1    0    0    0  501 -0.00000000000E+00 -0.00000000000E+00 -0.45009453038E+03  0.45009453038E+03  0.25500000000E-02 0.  1.
    8880023    1    1    2    0    0 -0.18839691137E+03 -0.52415913178E+03  0.10098876671E+04  0.13281263111E+04  0.65864270000E+03 0. -1.
    8880022    1    1    2    0    0  0.18839691137E+03  0.52415913178E+03 -0.43289280772E+01  0.57762148876E+03  0.15294330000E+03 0.  0.
<mgrwt>
<rscale>  0 0.78029315E+03</rscale>
<asrwt>0</asrwt>
<pdfrwt beam="1">  1        2 0.22394666E+00 0.86258124E+03</pdfrwt>
<pdfrwt beam="2">  1       -2 0.69245313E-01 0.86258124E+03</pdfrwt>
<totfact> 0.25869855E+01</totfact>
</mgrwt>
</event>
<event>
 4    1  0.2665544E-007  0.1180522E+04  0.7818608E-02  0.9176293E-01
          2   -1    0    0  501    0  0.00000000000E+00  0.00000000000E+00  0.32406264974E+04  0.32406264974E+04  0.25500000000E-02 0. -1.
         -2   -1    0    0    0  501 -0.00000000000E+00 -0.00000000000E+00 -0.40738551589E+03  0.40738551589E+03  0.25500000000E-02 0.  1.
    8880023    1    1    2    0    0 -0.39754575935E+03  0.89542096780E+03  0.93329787340E+03  0.15048842039E+04  0.65864270000E+03 0.  1.
    8880022    1    1    2    0    0  0.39754575935E+03 -0.89542096780E+03  0.18999431081E+04  0.21431278094E+04  0.15294330000E+03 0.  0.
<mgrwt>
<rscale>  0 0.11301509E+04</rscale>
<asrwt>0</asrwt>
<pdfrwt beam="1">  1        2 0.49855791E+00 0.11805217E+04</pdfrwt>
<pdfrwt beam="2">  1       -2 0.62674697E-01 0.11805217E+04</pdfrwt>
<totfact> 0.28878057E+00</totfact>
</mgrwt>
</event>
<event>
 4    1  0.2665544E-007  0.6598241E+03  0.7818608E-02  0.1024337E+00
         -2   -1    0    0    0  501 -0.00000000000E+00  0.00000000000E+00  0.21670982717E+03  0.21670982719E+03  0.25500000000E-02 0.  1.
          2   -1    0    0  501    0  0.00000000000E+00 -0.00000000000E+00 -0.21684808958E+04  0.21684808958E+04  0.25500000000E-02 0. -1.
    8880023    1    1    2    0    0 -0.11138950982E+02  0.37862694790E+02 -0.20797429165E+04  0.21819024874E+04  0.65864270000E+03 0. -1.
    8880022    1    1    2    0    0  0.11138950982E+02 -0.37862694790E+02  0.12797184779E+03  0.20328823559E+03  0.15294330000E+03 0.  0.
<mgrwt>
<rscale>  0 0.46153375E+03</rscale>
<asrwt>0</asrwt>
<pdfrwt beam="1">  1        2 0.33361243E+00 0.65982412E+03</pdfrwt>
<pdfrwt beam="2">  1       -2 0.33339975E-01 0.65982412E+03</pdfrwt>
<totfact> 0.47293045E+01</totfact>
</mgrwt>
</event>
<event>
 4    1  0.2665544E-007  0.7885646E+03  0.7818608E-02  0.9736090E-01
         -2   -1    0    0    0  501 -0.00000000000E+00  0.00000000000E+00  0.49019196380E+03  0.49019196380E+03  0.25500000000E-02 0.  1.
          2   -1    0    0  501    0  0.00000000000E+00 -0.00000000000E+00 -0.14698504419E+04  0.14698504419E+04  0.25500000000E-02 0. -1.
    8880023    1    1    2    0    0 -0.74479980858E+02  0.42717293155E+03 -0.12111632830E+04  0.14452510804E+04  0.65864270000E+03 0. -1.
    8880022    1    1    2    0    0  0.74479980858E+02 -0.42717293155E+03  0.23150480484E+03  0.51479132537E+03  0.15294330000E+03 0.  0.
<mgrwt>
<rscale>  0 0.68908074E+03</rscale>
<asrwt>0</asrwt>
<pdfrwt beam="1">  1        2 0.22613084E+00 0.78856464E+03</pdfrwt>
<pdfrwt beam="2">  1       -2 0.75414149E-01 0.78856464E+03</pdfrwt>
<totfact> 0.21216682E+01</totfact>
</mgrwt>
</event>
<event>
 4    1  0.2665544E-007  0.1565531E+04  0.7818608E-02  0.8864697E-01
         -2   -1    0    0    0  501 -0.00000000000E+00  0.00000000000E+00  0.11721675486E+04  0.11721675486E+04  0.25500000000E-02 0.  1.
          2   -1    0    0  501    0  0.00000000000E+00 -0.00000000000E+00 -0.33284768659E+04  0.33284768659E+04  0.25500000000E-02 0. -1.
    8880023    1    1    2    0    0 -0.12316947128E+04 -0.70710980389E+03  0.36070008198E+03  0.16065462632E+04  0.65864270000E+03 0.  0.
    8880022    1    1    2    0    0  0.12316947128E+04  0.70710980389E+03 -0.25170093993E+04  0.28940981513E+04  0.15294330000E+03 0.  0.
<mgrwt>
<rscale>  0 0.15300739E+04</rscale>
<asrwt>0</asrwt>
<pdfrwt beam="1">  1        2 0.51207336E+00 0.15655307E+04</pdfrwt>
<pdfrwt beam="2">  1       -2 0.18033347E+00 0.15655307E+04</pdfrwt>
<totfact> 0.18066495E-01</totfact>
</mgrwt>
</event>
<event>
 4    1  0.2665544E-007  0.1556479E+04  0.7818608E-02  0.8870751E-01
          2   -1    0    0  501    0  0.00000000000E+00  0.00000000000E+00  0.87112217529E+03  0.87112217530E+03  0.25500000000E-02 0. -1.
         -2   -1    0    0    0  501 -0.00000000000E+00 -0.00000000000E+00 -0.26455495808E+04  0.26455495808E+04  0.25500000000E-02 0.  1.
    8880023    1    1    2    0    0  0.10055271451E+04 -0.98880275582E+03 -0.57587846887E+03  0.16595969229E+04  0.65864270000E+03 0.  0.
    8880022    1    1    2    0    0 -0.10055271451E+04  0.98880275582E+03 -0.11985489367E+04  0.18570748332E+04  0.15294330000E+03 0.  0.
<mgrwt>
<rscale>  0 0.15207803E+04</rscale>
<asrwt>0</asrwt>
<pdfrwt beam="1">  1        2 0.13401880E+00 0.15564787E+04</pdfrwt>
<pdfrwt beam="2">  1       -2 0.40700762E+00 0.15564787E+04</pdfrwt>
<totfact> 0.19399008E-01</totfact>
</mgrwt>
</event>
<event>
 4    1  0.2665544E-007  0.7202524E+03  0.7818608E-02  0.9921733E-01
          2   -1    0    0  501    0  0.00000000000E+00  0.00000000000E+00  0.22209619154E+04  0.22209619154E+04  0.25500000000E-02 0. -1.
         -2   -1    0    0    0  501 -0.00000000000E+00 -0.00000000000E+00 -0.18758711807E+04  0.18758711807E+04  0.25500000000E-02 0.  1.
    8880023    1    1    2    0    0 -0.93641273041E+02  0.27601555540E+03  0.21472668952E+04  0.22648440565E+04  0.65864270000E+03 0. -1.
    8880022    1    1    2    0    0  0.93641273041E+02 -0.27601555540E+03 -0.18021761605E+04  0.18319890396E+04  0.15294330000E+03 0.  0.
<mgrwt>
<rscale>  0 0.59219481E+03</rscale>
<asrwt>0</asrwt>
<pdfrwt beam="1">  1        2 0.34168645E+00 0.72025237E+03</pdfrwt>
<pdfrwt beam="2">  1       -2 0.28859557E+00 0.72025237E+03</pdfrwt>
<totfact> 0.20217434E-01</totfact>
</mgrwt>
</event>
<event>
 4    1  0.2665544E-007  0.1474282E+04  0.7818608E-02  0.8928013E-01
          2   -1    0    0  501    0  0.00000000000E+00  0.00000000000E+00  0.27532941078E+04  0.27532941078E+04  0.25500000000E-02 0. -1.
         -2   -1    0    0    0  501 -0.00000000000E+00 -0.00000000000E+00 -0.74968212064E+03  0.74968212064E+03  0.25500000000E-02 0.  1.
    8880023    1    1    2    0    0 -0.47439728648E+03 -0.12307086019E+04  0.66436126100E+03  0.16170598441E+04  0.65864270000E+03 0.  0.
    8880022    1    1    2    0    0  0.47439728648E+03  0.12307086019E+04  0.13392507262E+04  0.18859163843E+04  0.15294330000E+03 0.  0.
<mgrwt>
<rscale>  0 0.14362155E+04</rscale>
<asrwt>0</asrwt>
<pdfrwt beam="1">  1        2 0.42358371E+00 0.14742817E+04</pdfrwt>
<pdfrwt beam="2">  1       -2 0.11533571E+00 0.14742817E+04</pdfrwt>
<totfact> 0.13785498E+00</totfact>
</mgrwt>
</event>
<event>
 4    1  0.2665544E-007  0.1674598E+04  0.7818608E-02  0.8795272E-01
         -2   -1    0    0    0  501 -0.00000000000E+00  0.00000000000E+00  0.12075146637E+04  0.12075146637E+04  0.25500000000E-02 0.  1.
          2   -1    0    0  501    0  0.00000000000E+00 -0.00000000000E+00 -0.43351401567E+04  0.43351401567E+04  0.25500000000E-02 0. -1.
    8880023    1    1    2    0    0 -0.63212761801E+03 -0.14038812228E+04 -0.35616791889E+04  0.39357129804E+04  0.65864270000E+03 0.  0.
    8880022    1    1    2    0    0  0.63212761801E+03  0.14038812228E+04  0.43405369593E+03  0.16069418400E+04  0.15294330000E+03 0.  0.
<mgrwt>
<rscale>  0 0.16417999E+04</rscale>
<asrwt>0</asrwt>
<pdfrwt beam="1">  1        2 0.66694463E+00 0.16745979E+04</pdfrwt>
<pdfrwt beam="2">  1       -2 0.18577149E+00 0.16745979E+04</pdfrwt>
<totfact> 0.27394099E-02</totfact>
</mgrwt>
</event>
<event>
 4    1  0.2665544E-007  0.9144255E+03  0.7818608E-02  0.9503260E-01
          2   -1    0    0  501    0  0.00000000000E+00  0.00000000000E+00  0.76660870417E+03  0.76660870417E+03  0.25500000000E-02 0. -1.
         -2   -1    0    0    0  501 -0.00000000000E+00 -0.00000000000E+00 -0.28374189228E+04  0.28374189228E+04  0.25500000000E-02 0.  1.
    8880023    1    1    2    0    0 -0.61611045125E+03 -0.15090278700E+03  0.43645728534E+03  0.10132467160E+04  0.65864270000E+03 0.  0.
    8880022    1    1    2    0    0  0.61611045125E+03  0.15090278700E+03 -0.25072675040E+04  0.25907809110E+04  0.15294330000E+03 0.  0.
<mgrwt>
<rscale>  0 0.84043911E+03</rscale>
<asrwt>0</asrwt>
<pdfrwt beam="1">  1        2 0.11793980E+00 0.91442547E+03</pdfrwt>
<pdfrwt beam="2">  1       -2 0.43652598E+00 0.91442547E+03</pdfrwt>
<totfact> 0.16064652E-01</totfact>
</mgrwt>
</event>
<event>
 4    1  0.2665544E-007  0.7742522E+03  0.7818608E-02  0.9769516E-01
         -2   -1    0    0    0  501 -0.00000000000E+00  0.00000000000E+00  0.28150029607E+03  0.28150029608E+03  0.25500000000E-02 0.  1.
          2   -1    0    0  501    0  0.00000000000E+00 -0.00000000000E+00 -0.23198846420E+04  0.23198846420E+04  0.25500000000E-02 0. -1.
    8880023    1    1    2    0    0  0.35547055021E+03 -0.19823447766E+03 -0.20232392580E+04  0.21663248883E+04  0.65864270000E+03 0.  0.
    8880022    1    1    2    0    0 -0.35547055021E+03  0.19823447766E+03 -0.15145087892E+02  0.43506004977E+03  0.15294330000E+03 0.  0.
<mgrwt>
<rscale>  0 0.67024456E+03</rscale>
<asrwt>0</asrwt>
<pdfrwt beam="1">  1        2 0.35690532E+00 0.77425217E+03</pdfrwt>
<pdfrwt beam="2">  1       -2 0.43307739E-01 0.77425217E+03</pdfrwt>
<totfact> 0.23159378E+01</totfact>
</mgrwt>
</event>
<event>
 4    1  0.2665544E-007  0.8153397E+03  0.7818608E-02  0.9678560E-01
         -2   -1    0    0    0  501 -0.00000000000E+00  0.00000000000E+00  0.73644876873E+03  0.73644876873E+03  0.25500000000E-02 0.  1.
          2   -1    0    0  501    0  0.00000000000E+00 -0.00000000000E+00 -0.21163575968E+04  0.21163575968E+04  0.25500000000E-02 0. -1.
    8880023    1    1    2    0    0 -0.39872153128E+03 -0.26830903561E+03 -0.19368363885E+04  0.21014552102E+04  0.65864270000E+03 0. -1.
    8880022    1    1    2    0    0  0.39872153128E+03  0.26830903561E+03  0.55692756045E+03  0.75135115538E+03  0.15294330000E+03 0.  0.
<mgrwt>
<rscale>  0 0.72307791E+03</rscale>
<asrwt>0</asrwt>
<pdfrwt beam="1">  1        2 0.32559347E+00 0.81533969E+03</pdfrwt>
<pdfrwt beam="2">  1       -2 0.11329981E+00 0.81533969E+03</pdfrwt>
<totfact> 0.36167441E+00</totfact>
</mgrwt>
</event>
<event>
 4    1  0.2665544E-007  0.9637358E+03  0.7818608E-02  0.9430621E-01
         -2   -1    0    0    0  501 -0.00000000000E+00  0.00000000000E+00  0.66528123352E+03  0.66528123353E+03  0.25500000000E-02 0.  1.
          2   -1    0    0  501    0  0.00000000000E+00 -0.00000000000E+00 -0.20320006285E+04  0.20320006285E+04  0.25500000000E-02 0. -1.
    8880023    1    1    2    0    0  0.23911377213E+03  0.66166537941E+03 -0.16603110282E+04  0.19197446150E+04  0.65864270000E+03 0. -1.
    8880022    1    1    2    0    0 -0.23911377213E+03 -0.66166537941E+03  0.29359163323E+03  0.77753724699E+03  0.15294330000E+03 0.  0.
<mgrwt>
<rscale>  0 0.89597992E+03</rscale>
<asrwt>0</asrwt>
<pdfrwt beam="1">  1        2 0.31261548E+00 0.96373579E+03</pdfrwt>
<pdfrwt beam="2">  1       -2 0.10235096E+00 0.96373579E+03</pdfrwt>
<totfact> 0.50380333E+00</totfact>
</mgrwt>
</event>
<event>
 4    1  0.2665544E-007  0.7736899E+03  0.7818608E-02  0.9770874E-01
          2   -1    0    0  501    0  0.00000000000E+00  0.00000000000E+00  0.21805282735E+04  0.21805282735E+04  0.25500000000E-02 0. -1.
         -2   -1    0    0    0  501 -0.00000000000E+00 -0.00000000000E+00 -0.33304453161E+03  0.33304453162E+03  0.25500000000E-02 0.  1.
    8880023    1    1    2    0    0 -0.40447174759E+03  0.34474672535E+02  0.19234077073E+04  0.20731843412E+04  0.65864270000E+03 0. -1.
    8880022    1    1    2    0    0  0.40447174759E+03 -0.34474672535E+02 -0.75923965418E+02  0.44038846395E+03  0.15294330000E+03 0.  0.
<mgrwt>
<rscale>  0 0.66949322E+03</rscale>
<asrwt>0</asrwt>
<pdfrwt beam="1">  1        2 0.33546589E+00 0.77368993E+03</pdfrwt>
<pdfrwt beam="2">  1       -2 0.51237620E-01 0.77368993E+03</pdfrwt>
<totfact> 0.19722320E+01</totfact>
</mgrwt>
</event>
<event>
 4    1  0.2665544E-007  0.1459583E+04  0.7818608E-02  0.8938716E-01
         -2   -1    0    0    0  501 -0.00000000000E+00  0.00000000000E+00  0.17621301478E+04  0.17621301478E+04  0.25500000000E-02 0.  1.
          2   -1    0    0  501    0  0.00000000000E+00 -0.00000000000E+00 -0.12828621241E+04  0.12828621241E+04  0.25500000000E-02 0. -1.
    8880023    1    1    2    0    0 -0.26724602980E+03  0.12748150083E+04 -0.33998964880E+03  0.14986583711E+04  0.65864270000E+03 0. -1.
    8880022    1    1    2    0    0  0.26724602980E+03 -0.12748150083E+04  0.81925767249E+03  0.15463339008E+04  0.15294330000E+03 0.  0.
<mgrwt>
<rscale>  0 0.14210576E+04</rscale>
<asrwt>0</asrwt>
<pdfrwt beam="1">  1        2 0.19736340E+00 0.14595835E+04</pdfrwt>
<pdfrwt beam="2">  1       -2 0.27109695E+00 0.14595835E+04</pdfrwt>
<totfact> 0.76430727E-01</totfact>
</mgrwt>
</event>
<event>
 4    1  0.2665544E-007  0.1368452E+04  0.7818608E-02  0.9008593E-01
         -2   -1    0    0    0  501 -0.00000000000E+00  0.00000000000E+00  0.14719857824E+04  0.14719857824E+04  0.25500000000E-02 0.  1.
          2   -1    0    0  501    0  0.00000000000E+00 -0.00000000000E+00 -0.24963726341E+04  0.24963726341E+04  0.25500000000E-02 0. -1.
    8880023    1    1    2    0    0 -0.52732414021E+03 -0.10773945045E+04 -0.19939902563E+04  0.24183996808E+04  0.65864270000E+03 0.  0.
    8880022    1    1    2    0    0  0.52732414021E+03  0.10773945045E+04  0.96960340464E+03  0.15499587358E+04  0.15294330000E+03 0.  0.
<mgrwt>
<rscale>  0 0.13267817E+04</rscale>
<asrwt>0</asrwt>
<pdfrwt beam="1">  1        2 0.38405733E+00 0.13684516E+04</pdfrwt>
<pdfrwt beam="2">  1       -2 0.22645935E+00 0.13684516E+04</pdfrwt>
<totfact> 0.30019038E-01</totfact>
</mgrwt>
</event>
<event>
 4    1  0.2665544E-007  0.8878425E+03  0.7818608E-02  0.9545837E-01
         -2   -1    0    0    0  501 -0.00000000000E+00  0.00000000000E+00  0.77947916023E+03  0.77947916023E+03  0.25500000000E-02 0.  1.
          2   -1    0    0  501    0  0.00000000000E+00 -0.00000000000E+00 -0.86509433981E+03  0.86509433982E+03  0.25500000000E-02 0. -1.
    8880023    1    1    2    0    0 -0.58675902273E+03 -0.10083660955E+03 -0.37669041948E+03  0.96444805509E+03  0.65864270000E+03 0.  0.
    8880022    1    1    2    0    0  0.58675902273E+03  0.10083660955E+03  0.29107523989E+03  0.68012544496E+03  0.15294330000E+03 0.  0.
<mgrwt>
<rscale>  0 0.80987183E+03</rscale>
<asrwt>0</asrwt>
<pdfrwt beam="1">  1        2 0.13309144E+00 0.88784254E+03</pdfrwt>
<pdfrwt beam="2">  1       -2 0.11991987E+00 0.88784254E+03</pdfrwt>
<totfact> 0.16513466E+01</totfact>
</mgrwt>
</event>
<event>
 4    1  0.2665544E-007  0.1324026E+04  0.7818608E-02  0.9045085E-01
          2   -1    0    0  501    0  0.00000000000E+00  0.00000000000E+00  0.29309631820E+04  0.29309631820E+04  0.25500000000E-02 0. -1.
         -2   -1    0    0    0  501 -0.00000000000E+00 -0.00000000000E+00 -0.93216865154E+03  0.93216865154E+03  0.25500000000E-02 0.  1.
    8880023    1    1    2    0    0 -0.43269111635E+03  0.10639606227E+04  0.23107152055E+04  0.26631651800E+04  0.65864270000E+03 0. -1.
    8880022    1    1    2    0    0  0.43269111635E+03 -0.10639606227E+04 -0.31192067508E+03  0.11999666535E+04  0.15294330000E+03 0.  0.
<mgrwt>
<rscale>  0 0.12806093E+04</rscale>
<asrwt>0</asrwt>
<pdfrwt beam="1">  1        2 0.45091741E+00 0.13240257E+04</pdfrwt>
<pdfrwt beam="2">  1       -2 0.14341056E+00 0.13240257E+04</pdfrwt>
<totfact> 0.62780410E-01</totfact>
</mgrwt>
</event>
<event>
 4    1  0.2665544E-007  0.8567154E+03  0.7818608E-02  0.9599433E-01
         -2   -1    0    0    0  501 -0.00000000000E+00  0.00000000000E+00  0.40073702004E+03  0.40073702005E+03  0.25500000000E-02 0.  1.
          2   -1    0    0  501    0  0.00000000000E+00 -0.00000000000E+00 -0.16352621450E+04  0.16352621450E+04  0.25500000000E-02 0. -1.
    8880023    1    1    2    0    0  0.53741051228E+03 -0.10649450400E+03 -0.11888287159E+04  0.14653583385E+04  0.65864270000E+03 0.  0.
    8880022    1    1    2    0    0 -0.53741051228E+03  0.10649450400E+03 -0.45696408988E+02  0.57064082652E+03  0.15294330000E+03 0.  0.
<mgrwt>
<rscale>  0 0.77333722E+03</rscale>
<asrwt>0</asrwt>
<pdfrwt beam="1">  1        2 0.25157879E+00 0.85671544E+03</pdfrwt>
<pdfrwt beam="2">  1       -2 0.61651850E-01 0.85671544E+03</pdfrwt>
<totfact> 0.26407856E+01</totfact>
</mgrwt>
</event>
<event>
 4    1  0.2665544E-007  0.7073476E+03  0.7818608E-02  0.9967985E-01
          2   -1    0    0  501    0  0.00000000000E+00  0.00000000000E+00  0.31681928827E+03  0.31681928828E+03  0.25500000000E-02 0. -1.
         -2   -1    0    0    0  501 -0.00000000000E+00 -0.00000000000E+00 -0.11400141792E+04  0.11400141792E+04  0.25500000000E-02 0.  1.
    8880023    1    1    2    0    0  0.12898230661E+03 -0.22336971507E+03 -0.15456386451E+03  0.72403774729E+03  0.65864270000E+03 0. -1.
    8880022    1    1    2    0    0 -0.12898230661E+03  0.22336971507E+03 -0.66863102639E+03  0.73279572017E+03  0.15294330000E+03 0.  0.
<mgrwt>
<rscale>  0 0.57076587E+03</rscale>
<asrwt>0</asrwt>
<pdfrwt beam="1">  1        2 0.48741429E-01 0.70734763E+03</pdfrwt>
<pdfrwt beam="2">  1       -2 0.17538680E+00 0.70734763E+03</pdfrwt>
<totfact> 0.20532863E+01</totfact>
</mgrwt>
</event>
<event>
 4    1  0.2665544E-007  0.9708233E+03  0.7818608E-02  0.9420766E-01
         -2   -1    0    0    0  501 -0.00000000000E+00  0.00000000000E+00  0.11155758592E+04  0.11155758592E+04  0.25500000000E-02 0.  1.
          2   -1    0    0  501    0  0.00000000000E+00 -0.00000000000E+00 -0.17046419177E+04  0.17046419177E+04  0.25500000000E-02 0. -1.
    8880023    1    1    2    0    0 -0.71305031486E+03 -0.15711670075E+02 -0.14164416523E+04  0.17172084232E+04  0.65864270000E+03 0. -1.
    8880022    1    1    2    0    0  0.71305031486E+03  0.15711670075E+02  0.82737559380E+03  0.11030093537E+04  0.15294330000E+03 0.  0.
<mgrwt>
<rscale>  0 0.90386209E+03</rscale>
<asrwt>0</asrwt>
<pdfrwt beam="1">  1        2 0.26225260E+00 0.97082327E+03</pdfrwt>
<pdfrwt beam="2">  1       -2 0.17162706E+00 0.97082327E+03</pdfrwt>
<totfact> 0.20195126E+00</totfact>
</mgrwt>
</event>
<event>
 4    1  0.2665544E-007  0.6974826E+03  0.7818608E-02  0.1000781E+00
         -2   -1    0    0    0  501 -0.00000000000E+00  0.00000000000E+00  0.13260179166E+04  0.13260179166E+04  0.25500000000E-02 0.  1.
          2   -1    0    0  501    0  0.00000000000E+00 -0.00000000000E+00 -0.10789077922E+04  0.10789077922E+04  0.25500000000E-02 0. -1.
    8880023    1    1    2    0    0 -0.18775866730E+03  0.13197921678E+03 -0.94882375178E+03  0.11776028826E+04  0.65864270000E+03 0.  0.
    8880022    1    1    2    0    0  0.18775866730E+03 -0.13197921678E+03  0.11959338762E+04  0.12273228263E+04  0.15294330000E+03 0.  1.
<mgrwt>
<rscale>  0 0.55309162E+03</rscale>
<asrwt>0</asrwt>
<pdfrwt beam="1">  1        2 0.16598581E+00 0.69748264E+03</pdfrwt>
<pdfrwt beam="2">  1       -2 0.20400276E+00 0.69748264E+03</pdfrwt>
<totfact> 0.29087142E+00</totfact>
</mgrwt>
</event>
<event>
 4    1  0.2665544E-007  0.7409361E+03  0.7818608E-02  0.9857229E-01
         -2   -1    0    0    0  501 -0.00000000000E+00  0.00000000000E+00  0.32730426031E+03  0.32730426032E+03  0.25500000000E-02 0.  1.
          2   -1    0    0  501    0  0.00000000000E+00 -0.00000000000E+00 -0.40391430199E+04  0.40391430199E+04  0.25500000000E-02 0. -1.
    8880023    1    1    2    0    0  0.30736663864E+03  0.14388158216E+03 -0.38856208494E+04  0.39556334197E+04  0.65864270000E+03 0. -1.
    8880022    1    1    2    0    0 -0.30736663864E+03 -0.14388158216E+03  0.17378208975E+03  0.41081386049E+03  0.15294330000E+03 0.  0.
<mgrwt>
<rscale>  0 0.62379714E+03</rscale>
<asrwt>0</asrwt>
<pdfrwt beam="1">  1        2 0.62140658E+00 0.74093614E+03</pdfrwt>
<pdfrwt beam="2">  1       -2 0.50354504E-01 0.74093614E+03</pdfrwt>
<totfact> 0.13231912E+00</totfact>
</mgrwt>
</event>
<event>
 4    1  0.2665544E-007  0.1043764E+04  0.7818608E-02  0.9326415E-01
         -2   -1    0    0    0  501 -0.00000000000E+00  0.00000000000E+00  0.74153276784E+03  0.74153276785E+03  0.25500000000E-02 0.  1.
          2   -1    0    0  501    0  0.00000000000E+00 -0.00000000000E+00 -0.26228182947E+04  0.26228182947E+04  0.25500000000E-02 0. -1.
    8880023    1    1    2    0    0 -0.80954162778E+03 -0.16615348536E+02 -0.22356924261E+04  0.24673395687E+04  0.65864270000E+03 0.  0.
    8880022    1    1    2    0    0  0.80954162778E+03  0.16615348536E+02  0.35440689921E+03  0.89701149387E+03  0.15294330000E+03 0.  0.
<mgrwt>
<rscale>  0 0.98386969E+03</rscale>
<asrwt>0</asrwt>
<pdfrwt beam="1">  1        2 0.40351050E+00 0.10437643E+04</pdfrwt>
<pdfrwt beam="2">  1       -2 0.11408197E+00 0.10437643E+04</pdfrwt>
<totfact> 0.17803417E+00</totfact>
</mgrwt>
</event>
<event>
 4    1  0.2665544E-007  0.6661999E+03  0.7818608E-02  0.1018547E+00
          2   -1    0    0  501    0  0.00000000000E+00  0.00000000000E+00  0.39553464459E+04  0.39553464459E+04  0.25500000000E-02 0. -1.
         -2   -1    0    0    0  501 -0.00000000000E+00 -0.00000000000E+00 -0.12420563303E+03  0.12420563306E+03  0.25500000000E-02 0.  1.
    8880023    1    1    2    0    0 -0.10004670365E+03  0.16667845543E+01  0.38392337704E+04  0.38966059938E+04  0.65864270000E+03 0. -1.
    8880022    1    1    2    0    0  0.10004670365E+03 -0.16667845543E+01 -0.80929575485E+01  0.18294608512E+03  0.15294330000E+03 0.  0.
<mgrwt>
<rscale>  0 0.48214523E+03</rscale>
<asrwt>0</asrwt>
<pdfrwt beam="1">  1        2 0.60851472E+00 0.66619992E+03</pdfrwt>
<pdfrwt beam="2">  1       -2 0.19108563E-01 0.66619992E+03</pdfrwt>
<totfact> 0.96173829E+00</totfact>
</mgrwt>
</event>
<event>
 4    1  0.2665544E-007  0.1444664E+04  0.7818608E-02  0.8949732E-01
         -2   -1    0    0    0  501 -0.00000000000E+00  0.00000000000E+00  0.10105679173E+04  0.10105679173E+04  0.25500000000E-02 0.  1.
          2   -1    0    0  501    0  0.00000000000E+00 -0.00000000000E+00 -0.29201388719E+04  0.29201388719E+04  0.25500000000E-02 0. -1.
    8880023    1    1    2    0    0 -0.41284415034E+03 -0.12177044330E+04 -0.21729314489E+04  0.26093458311E+04  0.65864270000E+03 0. -1.
    8880022    1    1    2    0    0  0.41284415034E+03  0.12177044330E+04  0.26336049431E+03  0.13213609581E+04  0.15294330000E+03 0.  0.
<mgrwt>
<rscale>  0 0.14056592E+04</rscale>
<asrwt>0</asrwt>
<pdfrwt beam="1">  1        2 0.44925213E+00 0.14446642E+04</pdfrwt>
<pdfrwt beam="2">  1       -2 0.15547199E+00 0.14446642E+04</pdfrwt>
<totfact> 0.50635342E-01</totfact>
</mgrwt>
</event>
<event>
 4    1  0.2665544E-007  0.1248791E+04  0.7818608E-02  0.9111094E-01
         -2   -1    0    0    0  501 -0.00000000000E+00  0.00000000000E+00  0.84902880411E+03  0.84902880411E+03  0.25500000000E-02 0.  1.
          2   -1    0    0  501    0  0.00000000000E+00 -0.00000000000E+00 -0.17985542758E+04  0.17985542758E+04  0.25500000000E-02 0. -1.
    8880023    1    1    2    0    0  0.88249094220E+03 -0.58896330945E+03 -0.96071968518E+03  0.15755826106E+04  0.65864270000E+03 0.  0.
    8880022    1    1    2    0    0 -0.88249094220E+03  0.58896330945E+03  0.11194213452E+02  0.10720004694E+04  0.15294330000E+03 0.  0.
<mgrwt>
<rscale>  0 0.12020155E+04</rscale>
<asrwt>0</asrwt>
<pdfrwt beam="1">  1        2 0.27670066E+00 0.12487907E+04</pdfrwt>
<pdfrwt beam="2">  1       -2 0.13061982E+00 0.12487907E+04</pdfrwt>
<totfact> 0.35962125E+00</totfact>
</mgrwt>
</event>
<event>
 4    1  0.2665544E-007  0.7206377E+03  0.7818608E-02  0.9920434E-01
          2   -1    0    0  501    0  0.00000000000E+00  0.00000000000E+00  0.29454172265E+04  0.29454172265E+04  0.25500000000E-02 0. -1.
         -2   -1    0    0    0  501 -0.00000000000E+00 -0.00000000000E+00 -0.21027456456E+03  0.21027456458E+03  0.25500000000E-02 0.  1.
    8880023    1    1    2    0    0  0.98694878483E+02  0.27525948457E+03  0.27322412699E+04  0.28256788611E+04  0.65864270000E+03 0. -1.
    8880022    1    1    2    0    0 -0.98694878483E+02 -0.27525948457E+03  0.29013920684E+01  0.33001293001E+03  0.15294330000E+03 0.  0.
<mgrwt>
<rscale>  0 0.59281102E+03</rscale>
<asrwt>0</asrwt>
<pdfrwt beam="1">  1        2 0.45314112E+00 0.72063768E+03</pdfrwt>
<pdfrwt beam="2">  1       -2 0.32349932E-01 0.72063768E+03</pdfrwt>
<totfact> 0.17821985E+01</totfact>
</mgrwt>
</event>
<event>
 4    1  0.2665544E-007  0.9879813E+03  0.7818608E-02  0.9397453E-01
          2   -1    0    0  501    0  0.00000000000E+00  0.00000000000E+00  0.31479236180E+04  0.31479236180E+04  0.25500000000E-02 0. -1.
         -2   -1    0    0    0  501 -0.00000000000E+00 -0.00000000000E+00 -0.12489267461E+04  0.12489267461E+04  0.25500000000E-02 0.  1.
    8880023    1    1    2    0    0 -0.69497351927E+03  0.24353378358E+03  0.29462547645E+04  0.31074948495E+04  0.65864270000E+03 0. -1.
    8880022    1    1    2    0    0  0.69497351927E+03 -0.24353378358E+03 -0.10472578926E+04  0.12893555145E+04  0.15294330000E+03 0.  0.
<mgrwt>
<rscale>  0 0.92285554E+03</rscale>
<asrwt>0</asrwt>
<pdfrwt beam="1">  1        2 0.48429594E+00 0.98798133E+03</pdfrwt>
<pdfrwt beam="2">  1       -2 0.19214258E+00 0.98798133E+03</pdfrwt>
<totfact> 0.21514129E-01</totfact>
</mgrwt>
</event>
<event>
 4    1  0.2665544E-007  0.1431314E+04  0.7818608E-02  0.8959725E-01
          2   -1    0    0  501    0  0.00000000000E+00  0.00000000000E+00  0.26626691551E+04  0.26626691551E+04  0.25500000000E-02 0. -1.
         -2   -1    0    0    0  501 -0.00000000000E+00 -0.00000000000E+00 -0.14553416396E+04  0.14553416396E+04  0.25500000000E-02 0.  1.
    8880023    1    1    2    0    0 -0.11817276565E+04 -0.46729939389E+03  0.21115152968E+04  0.25509127842E+04  0.65864270000E+03 0.  0.
    8880022    1    1    2    0    0  0.11817276565E+04  0.46729939389E+03 -0.90418778123E+03  0.15670980105E+04  0.15294330000E+03 0.  0.
<mgrwt>
<rscale>  0 0.13918690E+04</rscale>
<asrwt>0</asrwt>
<pdfrwt beam="1">  1        2 0.40964141E+00 0.14313138E+04</pdfrwt>
<pdfrwt beam="2">  1       -2 0.22389872E+00 0.14313138E+04</pdfrwt>
<totfact> 0.24719678E-01</totfact>
</mgrwt>
</event>
<event>
 4    1  0.2665544E-007  0.7982564E+03  0.7818608E-02  0.9714579E-01
          2   -1    0    0  501    0  0.00000000000E+00  0.00000000000E+00  0.28097230445E+04  0.28097230445E+04  0.25500000000E-02 0. -1.
         -2   -1    0    0    0  501 -0.00000000000E+00 -0.00000000000E+00 -0.19662224178E+03  0.19662224179E+03  0.25500000000E-02 0.  1.
    8880023    1    1    2    0    0 -0.39603376134E+03 -0.21577840344E+03  0.23045762523E+04  0.24389106110E+04  0.65864270000E+03 0. -1.
    8880022    1    1    2    0    0  0.39603376134E+03  0.21577840344E+03  0.30852455047E+03  0.56743467533E+03  0.15294330000E+03 0.  0.
<mgrwt>
<rscale>  0 0.70155370E+03</rscale>
<asrwt>0</asrwt>
<pdfrwt beam="1">  1        2 0.43226508E+00 0.79825639E+03</pdfrwt>
<pdfrwt beam="2">  1       -2 0.30249576E-01 0.79825639E+03</pdfrwt>
<totfact> 0.24065162E+01</totfact>
</mgrwt>
</event>
<event>
 4    1  0.2665544E-007  0.1097787E+04  0.7818608E-02  0.9263524E-01
         -2   -1    0    0    0  501 -0.00000000000E+00  0.00000000000E+00  0.51755870910E+03  0.51755870910E+03  0.25500000000E-02 0.  1.
          2   -1    0    0  501    0  0.00000000000E+00 -0.00000000000E+00 -0.24096579582E+04  0.24096579582E+04  0.25500000000E-02 0. -1.
    8880023    1    1    2    0    0  0.84840978059E+03  0.22699342856E+03 -0.36121747700E+03  0.11556874337E+04  0.65864270000E+03 0.  1.
    8880022    1    1    2    0    0 -0.84840978059E+03 -0.22699342856E+03 -0.15308817721E+04  0.17715292336E+04  0.15294330000E+03 0.  0.
<mgrwt>
<rscale>  0 0.10421134E+04</rscale>
<asrwt>0</asrwt>
<pdfrwt beam="1">  1        2 0.37071660E+00 0.10977866E+04</pdfrwt>
<pdfrwt beam="2">  1       -2 0.79624418E-01 0.10977866E+04</pdfrwt>
<totfact> 0.54647810E+00</totfact>
</mgrwt>
</event>
<event>
 4    1  0.2665544E-007  0.6626498E+03  0.7818608E-02  0.1021592E+00
          2   -1    0    0  501    0  0.00000000000E+00  0.00000000000E+00  0.25540850622E+04  0.25540850622E+04  0.25500000000E-02 0. -1.
         -2   -1    0    0    0  501 -0.00000000000E+00 -0.00000000000E+00 -0.59533844547E+03  0.59533844547E+03  0.25500000000E-02 0.  1.
    8880023    1    1    2    0    0 -0.55498810598E+02  0.47058043449E+02  0.24978960321E+04  0.25842966878E+04  0.65864270000E+03 0. -1.
    8880022    1    1    2    0    0  0.55498810598E+02 -0.47058043449E+02 -0.53914941534E+03  0.56512681984E+03  0.15294330000E+03 0.  0.
<mgrwt>
<rscale>  0 0.47116416E+03</rscale>
<asrwt>0</asrwt>
<pdfrwt beam="1">  1        2 0.39293616E+00 0.66264982E+03</pdfrwt>
<pdfrwt beam="2">  1       -2 0.91590530E-01 0.66264982E+03</pdfrwt>
<totfact> 0.35175142E+00</totfact>
</mgrwt>
</event>
<event>
 4    1  0.2665544E-007  0.6778930E+03  0.7818608E-02  0.1010542E+00
         -2   -1    0    0    0  501 -0.00000000000E+00  0.00000000000E+00  0.18500425981E+03  0.18500425983E+03  0.25500000000E-02 0.  1.
          2   -1    0    0  501    0  0.00000000000E+00 -0.00000000000E+00 -0.45015179781E+04  0.45015179781E+04  0.25500000000E-02 0. -1.
    8880023    1    1    2    0    0 -0.17495472143E+02 -0.15944458675E+03 -0.43983362523E+04  0.44502697292E+04  0.65864270000E+03 0. -1.
    8880022    1    1    2    0    0  0.17495472143E+02  0.15944458675E+03  0.81822534045E+02  0.23625250873E+03  0.15294330000E+03 0.  0.
<mgrwt>
<rscale>  0 0.51259987E+03</rscale>
<asrwt>0</asrwt>
<pdfrwt beam="1">  1        2 0.69254115E+00 0.67789297E+03</pdfrwt>
<pdfrwt beam="2">  1       -2 0.28462197E-01 0.67789297E+03</pdfrwt>
<totfact> 0.16059492E+00</totfact>
</mgrwt>
</event>
<event>
 4    1  0.2665544E-007  0.7312542E+03  0.7818608E-02  0.9886197E-01
         -2   -1    0    0    0  501 -0.00000000000E+00  0.00000000000E+00  0.81457139173E+03  0.81457139174E+03  0.25500000000E-02 0.  1.
          2   -1    0    0  501    0  0.00000000000E+00 -0.00000000000E+00 -0.94305603188E+03  0.94305603188E+03  0.25500000000E-02 0. -1.
    8880023    1    1    2    0    0  0.22958049355E+03 -0.21957984334E+03 -0.74721012373E+03  0.10454930348E+04  0.65864270000E+03 0. -1.
    8880022    1    1    2    0    0 -0.22958049355E+03  0.21957984334E+03  0.61872548359E+03  0.71213438878E+03  0.15294330000E+03 0.  0.
<mgrwt>
<rscale>  0 0.60934936E+03</rscale>
<asrwt>0</asrwt>
<pdfrwt beam="1">  1        2 0.14508554E+00 0.73125421E+03</pdfrwt>
<pdfrwt beam="2">  1       -2 0.12531868E+00 0.73125421E+03</pdfrwt>
<totfact> 0.13314932E+01</totfact>
</mgrwt>
</event>
<event>
 4    1  0.2665544E-007  0.7643544E+03  0.7818608E-02  0.9793962E-01
         -2   -1    0    0    0  501 -0.00000000000E+00  0.00000000000E+00  0.56510651983E+03  0.56510651984E+03  0.25500000000E-02 0.  1.
          2   -1    0    0  501    0  0.00000000000E+00 -0.00000000000E+00 -0.12979151845E+04  0.12979151845E+04  0.25500000000E-02 0. -1.
    8880023    1    1    2    0    0  0.38702291651E+03 -0.25312258591E+02 -0.10781818520E+04  0.13216329901E+04  0.65864270000E+03 0.  0.
    8880022    1    1    2    0    0 -0.38702291651E+03  0.25312258591E+02  0.34537318732E+03  0.54138871421E+03  0.15294330000E+03 0.  0.
<mgrwt>
<rscale>  0 0.65687581E+03</rscale>
<asrwt>0</asrwt>
<pdfrwt beam="1">  1        2 0.19967926E+00 0.76435440E+03</pdfrwt>
<pdfrwt beam="2">  1       -2 0.86939465E-01 0.76435440E+03</pdfrwt>
<totfact> 0.19330160E+01</totfact>
</mgrwt>
</event>
<event>
 4    1  0.2665544E-007  0.1169018E+04  0.7818608E-02  0.9187844E-01
          2   -1    0    0  501    0  0.00000000000E+00  0.00000000000E+00  0.24627245926E+04  0.24627245926E+04  0.25500000000E-02 0. -1.
         -2   -1    0    0    0  501 -0.00000000000E+00 -0.00000000000E+00 -0.91238041963E+03  0.91238041963E+03  0.25500000000E-02 0.  1.
    8880023    1    1    2    0    0 -0.95955285193E+03 -0.10977524986E+03  0.19860658227E+04  0.23045737002E+04  0.65864270000E+03 0.  0.
    8880022    1    1    2    0    0  0.95955285193E+03  0.10977524986E+03 -0.43572164970E+03  0.10705313121E+04  0.15294330000E+03 0.  0.
<mgrwt>
<rscale>  0 0.11179786E+04</rscale>
<asrwt>0</asrwt>
<pdfrwt beam="1">  1        2 0.37888070E+00 0.11690177E+04</pdfrwt>
<pdfrwt beam="2">  1       -2 0.14036622E+00 0.11690177E+04</pdfrwt>
<totfact> 0.12815882E+00</totfact>
</mgrwt>
</event>
<event>
 4    1  0.2665544E-007  0.1573731E+04  0.7818608E-02  0.8859253E-01
          2   -1    0    0  501    0  0.00000000000E+00  0.00000000000E+00  0.16094805085E+04  0.16094805085E+04  0.25500000000E-02 0. -1.
         -2   -1    0    0    0  501 -0.00000000000E+00 -0.00000000000E+00 -0.23034669993E+04  0.23034669993E+04  0.25500000000E-02 0.  1.
    8880023    1    1    2    0    0  0.80710563810E+03 -0.11795765002E+04  0.86222731631E+03  0.17944543411E+04  0.65864270000E+03 0. -1.
    8880022    1    1    2    0    0 -0.80710563810E+03  0.11795765002E+04 -0.15562138072E+04  0.21184931667E+04  0.15294330000E+03 0.  0.
<mgrwt>
<rscale>  0 0.15384905E+04</rscale>
<asrwt>0</asrwt>
<pdfrwt beam="1">  1        2 0.24761238E+00 0.15737314E+04</pdfrwt>
<pdfrwt beam="2">  1       -2 0.35437954E+00 0.15737314E+04</pdfrwt>
<totfact> 0.15008199E-01</totfact>
</mgrwt>
</event>
<event>
 4    1  0.2665544E-007  0.1227250E+04  0.7818608E-02  0.9131078E-01
         -2   -1    0    0    0  501 -0.00000000000E+00  0.00000000000E+00  0.14567779275E+04  0.14567779275E+04  0.25500000000E-02 0.  1.
          2   -1    0    0  501    0  0.00000000000E+00 -0.00000000000E+00 -0.14544984232E+04  0.14544984232E+04  0.25500000000E-02 0. -1.
    8880023    1    1    2    0    0 -0.56986632600E+03  0.86462993212E+03 -0.90595264559E+03  0.15254156651E+04  0.65864270000E+03 0.  0.
    8880022    1    1    2    0    0  0.56986632600E+03 -0.86462993212E+03  0.90823214989E+03  0.13858606857E+04  0.15294330000E+03 0.  0.
<mgrwt>
<rscale>  0 0.11794036E+04</rscale>
<asrwt>0</asrwt>
<pdfrwt beam="1">  1        2 0.22376899E+00 0.12272501E+04</pdfrwt>
<pdfrwt beam="2">  1       -2 0.22411968E+00 0.12272501E+04</pdfrwt>
<totfact> 0.12131843E+00</totfact>
</mgrwt>
</event>
<event>
 4    1  0.2665544E-007  0.7611069E+03  0.7818608E-02  0.9802250E-01
         -2   -1    0    0    0  501 -0.00000000000E+00  0.00000000000E+00  0.25016515410E+04  0.25016515410E+04  0.25500000000E-02 0.  1.
          2   -1    0    0  501    0  0.00000000000E+00 -0.00000000000E+00 -0.47311465142E+03  0.47311465142E+03  0.25500000000E-02 0. -1.
    8880023    1    1    2    0    0  0.92024876471E+02  0.37014183318E+03 -0.13462214598E+03  0.77292100697E+03  0.65864270000E+03 0. -1.
    8880022    1    1    2    0    0 -0.92024876471E+02 -0.37014183318E+03  0.21631590355E+04  0.22018451854E+04  0.15294330000E+03 0.  0.
<mgrwt>
<rscale>  0 0.65241927E+03</rscale>
<asrwt>0</asrwt>
<pdfrwt beam="1">  1        2 0.72786869E-01 0.76110693E+03</pdfrwt>
<pdfrwt beam="2">  1       -2 0.38486947E+00 0.76110693E+03</pdfrwt>
<totfact> 0.64743249E-01</totfact>
</mgrwt>
</event>
<event>
 4    1  0.2665544E-007  0.6753185E+03  0.7818608E-02  0.1012106E+00
         -2   -1    0    0    0  501 -0.00000000000E+00  0.00000000000E+00  0.21833005562E+03  0.21833005563E+03  0.25500000000E-02 0.  1.
          2   -1    0    0  501    0  0.00000000000E+00 -0.00000000000E+00 -0.44525970309E+04  0.44525970309E+04  0.25500000000E-02 0. -1.
    8880023    1    1    2    0    0  0.14675572537E+03 -0.26601053442E+02 -0.43673395417E+04  0.44192431182E+04  0.65864270000E+03 0. -1.
    8880022    1    1    2    0    0 -0.14675572537E+03  0.26601053442E+02  0.13307256641E+03  0.25168396834E+03  0.15294330000E+03 0.  0.
<mgrwt>
<rscale>  0 0.50646045E+03</rscale>
<asrwt>0</asrwt>
<pdfrwt beam="1">  1        2 0.68501486E+00 0.67531849E+03</pdfrwt>
<pdfrwt beam="2">  1       -2 0.33589243E-01 0.67531849E+03</pdfrwt>
<totfact> 0.13126034E+00</totfact>
</mgrwt>
</event>
<event>
 4    1  0.2665544E-007  0.7904521E+03  0.7818608E-02  0.9731834E-01
          2   -1    0    0  501    0  0.00000000000E+00  0.00000000000E+00  0.17281069516E+04  0.17281069516E+04  0.25500000000E-02 0. -1.
         -2   -1    0    0    0  501 -0.00000000000E+00 -0.00000000000E+00 -0.36854881831E+03  0.36854881832E+03  0.25500000000E-02 0.  1.
    8880023    1    1    2    0    0 -0.42344640624E+03 -0.10815463699E+03  0.14244802204E+04  0.16290974154E+04  0.65864270000E+03 0. -1.
    8880022    1    1    2    0    0  0.42344640624E+03  0.10815463699E+03 -0.64922087075E+02  0.46755835450E+03  0.15294330000E+03 0.  0.
<mgrwt>
<rscale>  0 0.69152634E+03</rscale>
<asrwt>0</asrwt>
<pdfrwt beam="1">  1        2 0.26586261E+00 0.79045208E+03</pdfrwt>
<pdfrwt beam="2">  1       -2 0.56699818E-01 0.79045208E+03</pdfrwt>
<totfact> 0.28221048E+01</totfact>
</mgrwt>
</event>
<event>
 4    1  0.2665544E-007  0.9609272E+03  0.7818608E-02  0.9434563E-01
          2   -1    0    0  501    0  0.00000000000E+00  0.00000000000E+00  0.30677044599E+04  0.30677044599E+04  0.25500000000E-02 0. -1.
         -2   -1    0    0    0  501 -0.00000000000E+00 -0.00000000000E+00 -0.41948603396E+03  0.41948603397E+03  0.25500000000E-02 0.  1.
    8880023    1    1    2    0    0  0.69939023688E+03 -0.20596707694E+02  0.25970806567E+04  0.27691531325E+04  0.65864270000E+03 0.  0.
    8880022    1    1    2    0    0 -0.69939023688E+03  0.20596707694E+02  0.51137769252E+02  0.71803736134E+03  0.15294330000E+03 0.  0.
<mgrwt>
<rscale>  0 0.89285017E+03</rscale>
<asrwt>0</asrwt>
<pdfrwt beam="1">  1        2 0.47195453E+00 0.96092723E+03</pdfrwt>
<pdfrwt beam="2">  1       -2 0.64536313E-01 0.96092723E+03</pdfrwt>
<totfact> 0.36041563E+00</totfact>
</mgrwt>
</event>
<event>
 4    1  0.2665544E-007  0.9016960E+03  0.7818608E-02  0.9523314E-01
          2   -1    0    0  501    0  0.00000000000E+00  0.00000000000E+00  0.16215214361E+04  0.16215214361E+04  0.25500000000E-02 0. -1.
         -2   -1    0    0    0  501 -0.00000000000E+00 -0.00000000000E+00 -0.57283847628E+03  0.57283847629E+03  0.25500000000E-02 0.  1.
    8880023    1    1    2    0    0 -0.59069559511E+03 -0.17413847424E+03  0.12385621800E+04  0.15320221847E+04  0.65864270000E+03 0.  0.
    8880022    1    1    2    0    0  0.59069559511E+03  0.17413847424E+03 -0.18987922019E+03  0.66233772772E+03  0.15294330000E+03 0.  0.
<mgrwt>
<rscale>  0 0.82586553E+03</rscale>
<asrwt>0</asrwt>
<pdfrwt beam="1">  1        2 0.24946484E+00 0.90169601E+03</pdfrwt>
<pdfrwt beam="2">  1       -2 0.88128996E-01 0.90169601E+03</pdfrwt>
<totfact> 0.12125669E+01</totfact>
</mgrwt>
</event>
<event>
 4    1  0.2665544E-007  0.1442972E+04  0.7818608E-02  0.8950992E-01
         -2   -1    0    0    0  501 -0.00000000000E+00  0.00000000000E+00  0.14413445914E+04  0.14413445914E+04  0.25500000000E-02 0.  1.
          2   -1    0    0  501    0  0.00000000000E+00 -0.00000000000E+00 -0.26612061499E+04  0.26612061499E+04  0.25500000000E-02 0. -1.
    8880023    1    1    2    0    0 -0.33092947374E+03  0.12405012672E+04 -0.20931279522E+04  0.25423124397E+04  0.65864270000E+03 0.  0.
    8880022    1    1    2    0    0  0.33092947374E+03 -0.12405012672E+04  0.87326639364E+03  0.15602383016E+04  0.15294330000E+03 0.  0.
<mgrwt>
<rscale>  0 0.14039117E+04</rscale>
<asrwt>0</asrwt>
<pdfrwt beam="1">  1        2 0.40941633E+00 0.14429719E+04</pdfrwt>
<pdfrwt beam="2">  1       -2 0.22174532E+00 0.14429719E+04</pdfrwt>
<totfact> 0.25520055E-01</totfact>
</mgrwt>
</event>
<event>
 4    1  0.2665544E-007  0.7375323E+03  0.7818608E-02  0.9867194E-01
          2   -1    0    0  501    0  0.00000000000E+00  0.00000000000E+00  0.31060289039E+04  0.31060289039E+04  0.25500000000E-02 0. -1.
         -2   -1    0    0    0  501 -0.00000000000E+00 -0.00000000000E+00 -0.12762659795E+04  0.12762659795E+04  0.25500000000E-02 0.  1.
    8880023    1    1    2    0    0  0.32665476158E+03  0.58654782504E+02  0.30347664038E+04  0.31231011909E+04  0.65864270000E+03 0.  0.
    8880022    1    1    2    0    0 -0.32665476158E+03 -0.58654782504E+02 -0.12050034794E+04  0.12591936925E+04  0.15294330000E+03 0.  0.
<mgrwt>
<rscale>  0 0.61877867E+03</rscale>
<asrwt>0</asrwt>
<pdfrwt beam="1">  1        2 0.47785059E+00 0.73753232E+03</pdfrwt>
<pdfrwt beam="2">  1       -2 0.19634861E+00 0.73753232E+03</pdfrwt>
<totfact> 0.22710567E-01</totfact>
</mgrwt>
</event>
<event>
 4    1  0.2665544E-007  0.8283728E+03  0.7818608E-02  0.9652507E-01
         -2   -1    0    0    0  501 -0.00000000000E+00  0.00000000000E+00  0.61798950249E+03  0.61798950250E+03  0.25500000000E-02 0.  1.
          2   -1    0    0  501    0  0.00000000000E+00 -0.00000000000E+00 -0.24296827325E+04  0.24296827325E+04  0.25500000000E-02 0. -1.
    8880023    1    1    2    0    0 -0.48566125603E+03 -0.12854711724E+03 -0.22283307002E+04  0.23773218404E+04  0.65864270000E+03 0. -1.
    8880022    1    1    2    0    0  0.48566125603E+03  0.12854711724E+03  0.41663747021E+03  0.67035039462E+03  0.15294330000E+03 0.  0.
<mgrwt>
<rscale>  0 0.73916308E+03</rscale>
<asrwt>0</asrwt>
<pdfrwt beam="1">  1        2 0.37379734E+00 0.82837276E+03</pdfrwt>
<pdfrwt beam="2">  1       -2 0.95075310E-01 0.82837276E+03</pdfrwt>
<totfact> 0.36762909E+00</totfact>
</mgrwt>
</event>
<event>
 4    1  0.2665544E-007  0.7739563E+03  0.7818608E-02  0.9770230E-01
          2   -1    0    0  501    0  0.00000000000E+00  0.00000000000E+00  0.82341898800E+03  0.82341898801E+03  0.25500000000E-02 0. -1.
         -2   -1    0    0    0  501 -0.00000000000E+00 -0.00000000000E+00 -0.47757766304E+03  0.47757766305E+03  0.25500000000E-02 0.  1.
    8880023    1    1    2    0    0  0.81704814190E+02  0.39814886470E+03  0.38600367946E+03  0.86487411913E+03  0.65864270000E+03 0. -1.
    8880022    1    1    2    0    0 -0.81704814190E+02 -0.39814886470E+03 -0.40162354501E+02  0.43612253193E+03  0.15294330000E+03 0. -1.
<mgrwt>
<rscale>  0 0.66984934E+03</rscale>
<asrwt>0</asrwt>
<pdfrwt beam="1">  1        2 0.12667984E+00 0.77395633E+03</pdfrwt>
<pdfrwt beam="2">  1       -2 0.73473486E-01 0.77395633E+03</pdfrwt>
<totfact> 0.56036977E+01</totfact>
</mgrwt>
</event>
<event>
 4    1  0.2665544E-007  0.7367866E+03  0.7818608E-02  0.9869408E-01
         -2   -1    0    0    0  501 -0.00000000000E+00  0.00000000000E+00  0.34049876442E+03  0.34049876443E+03  0.25500000000E-02 0.  1.
          2   -1    0    0  501    0  0.00000000000E+00 -0.00000000000E+00 -0.28347752526E+04  0.28347752526E+04  0.25500000000E-02 0. -1.
    8880023    1    1    2    0    0  0.17241999801E+03  0.28163030410E+03 -0.26709706309E+04  0.27707288935E+04  0.65864270000E+03 0. -1.
    8880022    1    1    2    0    0 -0.17241999801E+03 -0.28163030410E+03  0.17669414272E+03  0.40454512354E+03  0.15294330000E+03 0.  0.
<mgrwt>
<rscale>  0 0.61767073E+03</rscale>
<asrwt>0</asrwt>
<pdfrwt beam="1">  1        2 0.43611925E+00 0.73678660E+03</pdfrwt>
<pdfrwt beam="2">  1       -2 0.52384427E-01 0.73678660E+03</pdfrwt>
<totfact> 0.80421846E+00</totfact>
</mgrwt>
</event>
<event>
 4    1  0.2665544E-007  0.1401526E+04  0.7818608E-02  0.8982498E-01
         -2   -1    0    0    0  501 -0.00000000000E+00  0.00000000000E+00  0.88346589060E+03  0.88346589060E+03  0.25500000000E-02 0.  1.
          2   -1    0    0  501    0  0.00000000000E+00 -0.00000000000E+00 -0.27800674223E+04  0.27800674223E+04  0.25500000000E-02 0. -1.
    8880023    1    1    2    0    0 -0.12183988859E+04  0.21440419511E+03 -0.19667396204E+04  0.24150237980E+04  0.65864270000E+03 0. -1.
    8880022    1    1    2    0    0  0.12183988859E+04 -0.21440419511E+03  0.70138088763E+02  0.12485095148E+04  0.15294330000E+03 0.  0.
<mgrwt>
<rscale>  0 0.13610599E+04</rscale>
<asrwt>0</asrwt>
<pdfrwt beam="1">  1        2 0.42770268E+00 0.14015260E+04</pdfrwt>
<pdfrwt beam="2">  1       -2 0.13591783E+00 0.14015260E+04</pdfrwt>
<totfact> 0.88369957E-01</totfact>
</mgrwt>
</event>
<event>
 4    1  0.2665544E-007  0.9988205E+03  0.7818608E-02  0.9383102E-01
          2   -1    0    0  501    0  0.00000000000E+00  0.00000000000E+00  0.33182439658E+04  0.33182439658E+04  0.25500000000E-02 0. -1.
         -2   -1    0    0    0  501 -0.00000000000E+00 -0.00000000000E+00 -0.44486176735E+03  0.44486176736E+03  0.25500000000E-02 0.  1.
    8880023    1    1    2    0    0  0.74643307415E+03 -0.81668991806E+02  0.28237472622E+04  0.29951946457E+04  0.65864270000E+03 0. -1.
    8880022    1    1    2    0    0 -0.74643307415E+03  0.81668991806E+02  0.49634936270E+02  0.76791108751E+03  0.15294330000E+03 0.  0.
<mgrwt>
<rscale>  0 0.93479426E+03</rscale>
<asrwt>0</asrwt>
<pdfrwt beam="1">  1        2 0.51049908E+00 0.99882049E+03</pdfrwt>
<pdfrwt beam="2">  1       -2 0.68440271E-01 0.99882049E+03</pdfrwt>
<totfact> 0.21799407E+00</totfact>
</mgrwt>
</event>
<event>
 4    1  0.2665544E-007  0.9401152E+03  0.7818608E-02  0.9464481E-01
         -2   -1    0    0    0  501 -0.00000000000E+00  0.00000000000E+00  0.83229597038E+03  0.83229597038E+03  0.25500000000E-02 0.  1.
          2   -1    0    0  501    0  0.00000000000E+00 -0.00000000000E+00 -0.92061110676E+03  0.92061110676E+03  0.25500000000E-02 0. -1.
    8880023    1    1    2    0    0  0.15315599936E+03 -0.65310770010E+03 -0.36883593315E+03  0.10098794878E+04  0.65864270000E+03 0.  0.
    8880022    1    1    2    0    0 -0.15315599936E+03  0.65310770010E+03  0.28052079677E+03  0.74302758933E+03  0.15294330000E+03 0.  0.
<mgrwt>
<rscale>  0 0.86953912E+03</rscale>
<asrwt>0</asrwt>
<pdfrwt beam="1">  1        2 0.14163248E+00 0.94011522E+03</pdfrwt>
<pdfrwt beam="2">  1       -2 0.12804553E+00 0.94011522E+03</pdfrwt>
<totfact> 0.12782221E+01</totfact>
</mgrwt>
</event>
<event>
 4    1  0.2665544E-007  0.7274443E+03  0.7818608E-02  0.9898158E-01
          2   -1    0    0  501    0  0.00000000000E+00  0.00000000000E+00  0.11670470574E+04  0.11670470574E+04  0.25500000000E-02 0. -1.
         -2   -1    0    0    0  501 -0.00000000000E+00 -0.00000000000E+00 -0.84806521811E+03  0.84806521812E+03  0.25500000000E-02 0.  1.
    8880023    1    1    2    0    0  0.11689994219E+03 -0.28583100625E+03  0.10089642539E+04  0.12438585259E+04  0.65864270000E+03 0. -1.
    8880022    1    1    2    0    0 -0.11689994219E+03  0.28583100625E+03 -0.68998241467E+03  0.77125374954E+03  0.15294330000E+03 0.  0.
<mgrwt>
<rscale>  0 0.60350660E+03</rscale>
<asrwt>0</asrwt>
<pdfrwt beam="1">  1        2 0.17954570E+00 0.72744427E+03</pdfrwt>
<pdfrwt beam="2">  1       -2 0.13047157E+00 0.72744427E+03</pdfrwt>
<totfact> 0.87247778E+00</totfact>
</mgrwt>
</event>
<event>
 4    1  0.2665544E-007  0.9689278E+03  0.7818608E-02  0.9423389E-01
          2   -1    0    0  501    0  0.00000000000E+00  0.00000000000E+00  0.18339313189E+04  0.18339313189E+04  0.25500000000E-02 0. -1.
         -2   -1    0    0    0  501 -0.00000000000E+00 -0.00000000000E+00 -0.17560347943E+04  0.17560347943E+04  0.25500000000E-02 0.  1.
    8880023    1    1    2    0    0  0.65985641411E+03  0.26381877020E+03  0.16185672638E+04  0.18864201612E+04  0.65864270000E+03 0.  0.
    8880022    1    1    2    0    0 -0.65985641411E+03 -0.26381877020E+03 -0.15406707393E+04  0.17035459520E+04  0.15294330000E+03 0.  0.
<mgrwt>
<rscale>  0 0.90175625E+03</rscale>
<asrwt>0</asrwt>
<pdfrwt beam="1">  1        2 0.28214328E+00 0.96892778E+03</pdfrwt>
<pdfrwt beam="2">  1       -2 0.27015920E+00 0.96892778E+03</pdfrwt>
<totfact> 0.40329775E-01</totfact>
</mgrwt>
</event>
<event>
 4    1  0.2665544E-007  0.1352105E+04  0.7818608E-02  0.9021821E-01
         -2   -1    0    0    0  501 -0.00000000000E+00  0.00000000000E+00  0.73247324703E+03  0.73247324703E+03  0.25500000000E-02 0.  1.
          2   -1    0    0  501    0  0.00000000000E+00 -0.00000000000E+00 -0.28413190460E+04  0.28413190460E+04  0.25500000000E-02 0. -1.
    8880023    1    1    2    0    0  0.39391050126E+03  0.11131991821E+04 -0.19494707609E+04  0.23724722034E+04  0.65864270000E+03 0.  0.
    8880022    1    1    2    0    0 -0.39391050126E+03 -0.11131991821E+04 -0.15937503811E+03  0.12013200897E+04  0.15294330000E+03 0.  0.
<mgrwt>
<rscale>  0 0.13098107E+04</rscale>
<asrwt>0</asrwt>
<pdfrwt beam="1">  1        2 0.43712600E+00 0.13521051E+04</pdfrwt>
<pdfrwt beam="2">  1       -2 0.11268819E+00 0.13521051E+04</pdfrwt>
<totfact> 0.13093056E+00</totfact>
</mgrwt>
</event>
<event>
 4    1  0.2665544E-007  0.6957210E+03  0.7818608E-02  0.1001544E+00
          2   -1    0    0  501    0  0.00000000000E+00  0.00000000000E+00  0.10668022442E+04  0.10668022442E+04  0.25500000000E-02 0. -1.
         -2   -1    0    0    0  501 -0.00000000000E+00 -0.00000000000E+00 -0.23065623932E+03  0.23065623933E+03  0.25500000000E-02 0.  1.
    8880023    1    1    2    0    0 -0.44402591332E+02  0.21964966000E+03  0.72338032903E+03  0.10036467855E+04  0.65864270000E+03 0. -1.
    8880022    1    1    2    0    0  0.44402591332E+02 -0.21964966000E+03  0.11276567582E+03  0.29381169805E+03  0.15294330000E+03 0. -1.
<mgrwt>
<rscale>  0 0.54978499E+03</rscale>
<asrwt>0</asrwt>
<pdfrwt beam="1">  1        2 0.16412342E+00 0.69572104E+03</pdfrwt>
<pdfrwt beam="2">  1       -2 0.35485576E-01 0.69572104E+03</pdfrwt>
<totfact> 0.17299888E+02</totfact>
</mgrwt>
</event>
<event>
 4    1  0.2665544E-007  0.7135994E+03  0.7818608E-02  0.9944870E-01
         -2   -1    0    0    0  501 -0.00000000000E+00  0.00000000000E+00  0.16788023000E+03  0.16788023002E+03  0.25500000000E-02 0.  1.
          2   -1    0    0  501    0  0.00000000000E+00 -0.00000000000E+00 -0.21861952162E+04  0.21861952162E+04  0.25500000000E-02 0. -1.
    8880023    1    1    2    0    0 -0.15986154283E+02  0.27415016962E+03 -0.18795863201E+04  0.20104896950E+04  0.65864270000E+03 0. -1.
    8880022    1    1    2    0    0  0.15986154283E+02 -0.27415016962E+03 -0.13872866606E+03  0.34358575120E+03  0.15294330000E+03 0.  0.
<mgrwt>
<rscale>  0 0.58135111E+03</rscale>
<asrwt>0</asrwt>
<pdfrwt beam="1">  1        2 0.33633770E+00 0.71359938E+03</pdfrwt>
<pdfrwt beam="2">  1       -2 0.25827729E-01 0.71359938E+03</pdfrwt>
<totfact> 0.73583940E+01</totfact>
</mgrwt>
</event>
<event>
 4    1  0.2665544E-007  0.7915736E+03  0.7818608E-02  0.9729321E-01
         -2   -1    0    0    0  501 -0.00000000000E+00  0.00000000000E+00  0.71994852734E+03  0.71994852734E+03  0.25500000000E-02 0.  1.
          2   -1    0    0  501    0  0.00000000000E+00 -0.00000000000E+00 -0.12303759939E+04  0.12303759939E+04  0.25500000000E-02 0. -1.
    8880023    1    1    2    0    0 -0.33157817573E+03 -0.28780980448E+03 -0.99985347564E+03  0.12752630118E+04  0.65864270000E+03 0. -1.
    8880022    1    1    2    0    0  0.33157817573E+03  0.28780980448E+03  0.48942600909E+03  0.67506150946E+03  0.15294330000E+03 0.  0.
<mgrwt>
<rscale>  0 0.69297563E+03</rscale>
<asrwt>0</asrwt>
<pdfrwt beam="1">  1        2 0.18928861E+00 0.79157361E+03</pdfrwt>
<pdfrwt beam="2">  1       -2 0.11076131E+00 0.79157361E+03</pdfrwt>
<totfact> 0.11914335E+01</totfact>
</mgrwt>
</event>
<event>
 4    1  0.2665544E-007  0.9900968E+03  0.7818608E-02  0.9394630E-01
         -2   -1    0    0    0  501 -0.00000000000E+00  0.00000000000E+00  0.90844927208E+03  0.90844927208E+03  0.25500000000E-02 0.  1.
          2   -1    0    0  501    0  0.00000000000E+00 -0.00000000000E+00 -0.95254151062E+03  0.95254151063E+03  0.25500000000E-02 0. -1.
    8880023    1    1    2    0    0 -0.20555099648E+03  0.71009178307E+03 -0.34478004103E+03  0.10484107189E+04  0.65864270000E+03 0.  0.
    8880022    1    1    2    0    0  0.20555099648E+03 -0.71009178307E+03  0.30068780249E+03  0.81258006382E+03  0.15294330000E+03 0.  0.
<mgrwt>
<rscale>  0 0.92518916E+03</rscale>
<asrwt>0</asrwt>
<pdfrwt beam="1">  1        2 0.14654485E+00 0.99009684E+03</pdfrwt>
<pdfrwt beam="2">  1       -2 0.13976143E+00 0.99009684E+03</pdfrwt>
<totfact> 0.96841844E+00</totfact>
</mgrwt>
</event>
<event>
 4    1  0.2665544E-007  0.1186721E+04  0.7818608E-02  0.9170140E-01
         -2   -1    0    0    0  501 -0.00000000000E+00  0.00000000000E+00  0.42078072886E+03  0.42078072887E+03  0.25500000000E-02 0.  1.
          2   -1    0    0  501    0  0.00000000000E+00 -0.00000000000E+00 -0.35346573382E+04  0.35346573382E+04  0.25500000000E-02 0. -1.
    8880023    1    1    2    0    0  0.65781323068E+03  0.73605606071E+03 -0.25395927228E+04  0.28031835785E+04  0.65864270000E+03 0.  0.
    8880022    1    1    2    0    0 -0.65781323068E+03 -0.73605606071E+03 -0.57428388652E+03  0.11522544885E+04  0.15294330000E+03 0.  0.
<mgrwt>
<rscale>  0 0.11367023E+04</rscale>
<asrwt>0</asrwt>
<pdfrwt beam="1">  1        2 0.54379342E+00 0.11867211E+04</pdfrwt>
<pdfrwt beam="2">  1       -2 0.64735499E-01 0.11867211E+04</pdfrwt>
<totfact> 0.17070929E+00</totfact>
</mgrwt>
</event>
<event>
 4    1  0.2665544E-007  0.1013744E+04  0.7818608E-02  0.9363793E-01
         -2   -1    0    0    0  501 -0.00000000000E+00  0.00000000000E+00  0.82929286145E+03  0.82929286145E+03  0.25500000000E-02 0.  1.
          2   -1    0    0  501    0  0.00000000000E+00 -0.00000000000E+00 -0.13676196568E+04  0.13676196568E+04  0.25500000000E-02 0. -1.
    8880023    1    1    2    0    0  0.49603402295E+03 -0.58975961227E+03 -0.87787346404E+03  0.13410213187E+04  0.65864270000E+03 0.  0.
    8880022    1    1    2    0    0 -0.49603402295E+03  0.58975961227E+03  0.33954666868E+03  0.85589119952E+03  0.15294330000E+03 0.  0.
<mgrwt>
<rscale>  0 0.95116193E+03</rscale>
<asrwt>0</asrwt>
<pdfrwt beam="1">  1        2 0.21040302E+00 0.10137437E+04</pdfrwt>
<pdfrwt beam="2">  1       -2 0.12758352E+00 0.10137437E+04</pdfrwt>
<totfact> 0.68195152E+00</totfact>
</mgrwt>
</event>
<event>
 4    1  0.2665544E-007  0.1401777E+04  0.7818608E-02  0.8982304E-01
          2   -1    0    0  501    0  0.00000000000E+00  0.00000000000E+00  0.30163256013E+04  0.30163256013E+04  0.25500000000E-02 0. -1.
         -2   -1    0    0    0  501 -0.00000000000E+00 -0.00000000000E+00 -0.95906195623E+03  0.95906195623E+03  0.25500000000E-02 0.  1.
    8880023    1    1    2    0    0 -0.31466425722E+03 -0.11967262578E+04  0.23111003472E+04  0.27029913710E+04  0.65864270000E+03 0.  0.
    8880022    1    1    2    0    0  0.31466425722E+03  0.11967262578E+04 -0.25383670212E+03  0.12723961865E+04  0.15294330000E+03 0.  0.
<mgrwt>
<rscale>  0 0.13613193E+04</rscale>
<asrwt>0</asrwt>
<pdfrwt beam="1">  1        2 0.46405008E+00 0.14017766E+04</pdfrwt>
<pdfrwt beam="2">  1       -2 0.14754800E+00 0.14017766E+04</pdfrwt>
<totfact> 0.51060500E-01</totfact>
</mgrwt>
</event>
<event>
 4    1  0.2665544E-007  0.8991523E+03  0.7818608E-02  0.9527394E-01
         -2   -1    0    0    0  501 -0.00000000000E+00  0.00000000000E+00  0.11805387145E+04  0.11805387145E+04  0.25500000000E-02 0.  1.
          2   -1    0    0  501    0  0.00000000000E+00 -0.00000000000E+00 -0.14325626414E+04  0.14325626414E+04  0.25500000000E-02 0. -1.
    8880023    1    1    2    0    0  0.28644239771E+03  0.54093944740E+03 -0.11845749188E+04  0.14871760748E+04  0.65864270000E+03 0.  0.
    8880022    1    1    2    0    0 -0.28644239771E+03 -0.54093944740E+03  0.93255099191E+03  0.11259252810E+04  0.15294330000E+03 0.  0.
<mgrwt>
<rscale>  0 0.82293974E+03</rscale>
<asrwt>0</asrwt>
<pdfrwt beam="1">  1        2 0.22039425E+00 0.89915234E+03</pdfrwt>
<pdfrwt beam="2">  1       -2 0.18162134E+00 0.89915234E+03</pdfrwt>
<totfact> 0.24634196E+00</totfact>
</mgrwt>
</event>
<event>
 4    1  0.2665544E-007  0.1589965E+04  0.7818608E-02  0.8848589E-01
          2   -1    0    0  501    0  0.00000000000E+00  0.00000000000E+00  0.35957890500E+04  0.35957890500E+04  0.25500000000E-02 0. -1.
         -2   -1    0    0    0  501 -0.00000000000E+00 -0.00000000000E+00 -0.73294938987E+03  0.73294938987E+03  0.25500000000E-02 0.  1.
    8880023    1    1    2    0    0 -0.13478702369E+04 -0.52671231386E+03  0.22374764960E+04  0.27448663562E+04  0.65864270000E+03 0.  0.
    8880022    1    1    2    0    0  0.13478702369E+04  0.52671231386E+03  0.62536316412E+03  0.15838720836E+04  0.15294330000E+03 0. -1.
<mgrwt>
<rscale>  0 0.15551437E+04</rscale>
<asrwt>0</asrwt>
<pdfrwt beam="1">  1        2 0.55319832E+00 0.15899655E+04</pdfrwt>
<pdfrwt beam="2">  1       -2 0.11276144E+00 0.15899655E+04</pdfrwt>
<totfact> 0.40884677E-01</totfact>
</mgrwt>
</event>
<event>
 4    1  0.2665544E-007  0.1171703E+04  0.7818608E-02  0.9185132E-01
         -2   -1    0    0    0  501 -0.00000000000E+00  0.00000000000E+00  0.24086956808E+04  0.24086956808E+04  0.25500000000E-02 0.  1.
          2   -1    0    0  501    0  0.00000000000E+00 -0.00000000000E+00 -0.56114107383E+03  0.56114107383E+03  0.25500000000E-02 0. -1.
    8880023    1    1    2    0    0 -0.60285808052E+03  0.75870951934E+03  0.43463740335E+03  0.12497191199E+04  0.65864270000E+03 0.  0.
    8880022    1    1    2    0    0  0.60285808052E+03 -0.75870951934E+03  0.14129172036E+04  0.17201176347E+04  0.15294330000E+03 0.  0.
<mgrwt>
<rscale>  0 0.11208218E+04</rscale>
<asrwt>0</asrwt>
<pdfrwt beam="1">  1        2 0.86329396E-01 0.11717031E+04</pdfrwt>
<pdfrwt beam="2">  1       -2 0.37056856E+00 0.11717031E+04</pdfrwt>
<totfact> 0.61537607E-01</totfact>
</mgrwt>
</event>
<event>
 4    1  0.2665544E-007  0.1988070E+04  0.7818608E-02  0.8625070E-01
          2   -1    0    0  501    0  0.00000000000E+00  0.00000000000E+00  0.16341064083E+04  0.16341064083E+04  0.25500000000E-02 0. -1.
         -2   -1    0    0    0  501 -0.00000000000E+00 -0.00000000000E+00 -0.26077396747E+04  0.26077396747E+04  0.25500000000E-02 0.  1.
    8880023    1    1    2    0    0 -0.34729190394E+03 -0.18433661590E+04  0.23991461611E+03  0.20024933687E+04  0.65864270000E+03 0. -1.
    8880022    1    1    2    0    0  0.34729190394E+03  0.18433661590E+04 -0.12135478825E+04  0.22393527142E+04  0.15294330000E+03 0.  0.
<mgrwt>
<rscale>  0 0.19610099E+04</rscale>
<asrwt>0</asrwt>
<pdfrwt beam="1">  1        2 0.25140099E+00 0.19880696E+04</pdfrwt>
<pdfrwt beam="2">  1       -2 0.40119072E+00 0.19880696E+04</pdfrwt>
<totfact> 0.69436296E-02</totfact>
</mgrwt>
</event>
<event>
 4    1  0.2665544E-007  0.8362413E+03  0.7818608E-02  0.9637309E-01
          2   -1    0    0  501    0  0.00000000000E+00  0.00000000000E+00  0.22815863508E+04  0.22815863508E+04  0.25500000000E-02 0. -1.
         -2   -1    0    0    0  501 -0.00000000000E+00 -0.00000000000E+00 -0.17435679431E+04  0.17435679431E+04  0.25500000000E-02 0.  1.
    8880023    1    1    2    0    0  0.50034212466E+03 -0.12307367606E+03  0.21601139801E+04  0.23163315792E+04  0.65864270000E+03 0. -1.
    8880022    1    1    2    0    0 -0.50034212466E+03  0.12307367606E+03 -0.16220955724E+04  0.17088227147E+04  0.15294330000E+03 0.  0.
<mgrwt>
<rscale>  0 0.74875305E+03</rscale>
<asrwt>0</asrwt>
<pdfrwt beam="1">  1        2 0.35101328E+00 0.83624134E+03</pdfrwt>
<pdfrwt beam="2">  1       -2 0.26824122E+00 0.83624134E+03</pdfrwt>
<totfact> 0.24095796E-01</totfact>
</mgrwt>
</event>
<event>
 4    1  0.2665544E-007  0.1405535E+04  0.7818608E-02  0.8979394E-01
         -2   -1    0    0    0  501 -0.00000000000E+00  0.00000000000E+00  0.12317889945E+04  0.12317889945E+04  0.25500000000E-02 0.  1.
          2   -1    0    0  501    0  0.00000000000E+00 -0.00000000000E+00 -0.25293819019E+04  0.25293819019E+04  0.25500000000E-02 0. -1.
    8880023    1    1    2    0    0 -0.12087253769E+04  0.28407863797E+03 -0.19074751124E+04  0.23693858318E+04  0.65864270000E+03 0.  0.
    8880022    1    1    2    0    0  0.12087253769E+04 -0.28407863797E+03  0.60988220503E+03  0.13917850647E+04  0.15294330000E+03 0.  0.
<mgrwt>
<rscale>  0 0.13652094E+04</rscale>
<asrwt>0</asrwt>
<pdfrwt beam="1">  1        2 0.38913568E+00 0.14055347E+04</pdfrwt>
<pdfrwt beam="2">  1       -2 0.18950600E+00 0.14055347E+04</pdfrwt>
<totfact> 0.49704619E-01</totfact>
</mgrwt>
</event>
<event>
 4    1  0.2665544E-007  0.1135937E+04  0.7818608E-02  0.9222061E-01
          2   -1    0    0  501    0  0.00000000000E+00  0.00000000000E+00  0.23199314735E+04  0.23199314735E+04  0.25500000000E-02 0. -1.
         -2   -1    0    0    0  501 -0.00000000000E+00 -0.00000000000E+00 -0.66433480191E+03  0.66433480191E+03  0.25500000000E-02 0.  1.
    8880023    1    1    2    0    0  0.62434856920E+03  0.68317826603E+03  0.17006550385E+04  0.20451360457E+04  0.65864270000E+03 0.  0.
    8880022    1    1    2    0    0 -0.62434856920E+03 -0.68317826603E+03 -0.45058366885E+02  0.93913022978E+03  0.15294330000E+03 0.  0.
<mgrwt>
<rscale>  0 0.10828596E+04</rscale>
<asrwt>0</asrwt>
<pdfrwt beam="1">  1        2 0.35691253E+00 0.11359374E+04</pdfrwt>
<pdfrwt beam="2">  1       -2 0.10220535E+00 0.11359374E+04</pdfrwt>
<totfact> 0.34230439E+00</totfact>
</mgrwt>
</event>
<event>
 4    1  0.3976254E-007  0.1006474E+04  0.7818608E-02  0.9373137E-01
         -2   -1    0    0    0  501 -0.00000000000E+00  0.00000000000E+00  0.26515973045E+04  0.26515973045E+04  0.25500000000E-02 0.  1.
          2   -1    0    0  501    0  0.00000000000E+00 -0.00000000000E+00 -0.20703878789E+04  0.20703878789E+04  0.25500000000E-02 0. -1.
    8880023    1    1    2    0    0  0.19643106012E+02 -0.76078472480E+03 -0.18847955785E+04  0.21366899232E+04  0.65864270000E+03 0. -1.
    8880022    1    1    2    0    0 -0.19643106012E+02  0.76078472480E+03  0.24660050041E+04  0.25852952602E+04  0.15294330000E+03 0.  0.
<mgrwt>
<rscale>  0 0.94319799E+03</rscale>
<asrwt>0</asrwt>
<pdfrwt beam="1">  1        2 0.31852122E+00 0.10064738E+04</pdfrwt>
<pdfrwt beam="2">  1       -2 0.40793804E+00 0.10064738E+04</pdfrwt>
<totfact> 0.41137645E-02</totfact>
</mgrwt>
</event>
<event>
 4    1  0.2665544E-007  0.9229850E+03  0.7818608E-02  0.9490097E-01
          2   -1    0    0  501    0  0.00000000000E+00  0.00000000000E+00  0.44400355182E+04  0.44400355182E+04  0.25500000000E-02 0. -1.
         -2   -1    0    0    0  501 -0.00000000000E+00 -0.00000000000E+00 -0.27854815326E+03  0.27854815327E+03  0.25500000000E-02 0.  1.
    8880023    1    1    2    0    0 -0.41490985004E+03 -0.49592428708E+03  0.38947154335E+04  0.40025878624E+04  0.65864270000E+03 0. -1.
    8880022    1    1    2    0    0  0.41490985004E+03  0.49592428708E+03  0.26677193145E+03  0.71599580906E+03  0.15294330000E+03 0.  0.
<mgrwt>
<rscale>  0 0.85017865E+03</rscale>
<asrwt>0</asrwt>
<pdfrwt beam="1">  1        2 0.68308242E+00 0.92298499E+03</pdfrwt>
<pdfrwt beam="2">  1       -2 0.42853560E-01 0.92298499E+03</pdfrwt>
<totfact> 0.79192865E-01</totfact>
</mgrwt>
</event>
<event>
 4    1  0.2665544E-007  0.8693276E+03  0.7818608E-02  0.9577182E-01
         -2   -1    0    0    0  501 -0.00000000000E+00  0.00000000000E+00  0.16126760105E+04  0.16126760105E+04  0.25500000000E-02 0.  1.
          2   -1    0    0  501    0  0.00000000000E+00 -0.00000000000E+00 -0.13075161647E+04  0.13075161647E+04  0.25500000000E-02 0. -1.
    8880023    1    1    2    0    0 -0.52078832304E+03 -0.22516605109E+03 -0.10971069398E+04  0.13997764363E+04  0.65864270000E+03 0. -1.
    8880022    1    1    2    0    0  0.52078832304E+03  0.22516605109E+03  0.14022667857E+04  0.15204157389E+04  0.15294330000E+03 0.  0.
<mgrwt>
<rscale>  0 0.78825010E+03</rscale>
<asrwt>0</asrwt>
<pdfrwt beam="1">  1        2 0.20115633E+00 0.86932758E+03</pdfrwt>
<pdfrwt beam="2">  1       -2 0.24810400E+00 0.86932758E+03</pdfrwt>
<totfact> 0.10984233E+00</totfact>
</mgrwt>
</event>
<event>
 4    1  0.2665544E-007  0.8499962E+03  0.7818608E-02  0.9611612E-01
         -2   -1    0    0    0  501 -0.00000000000E+00  0.00000000000E+00  0.84674381118E+03  0.84674381118E+03  0.25500000000E-02 0.  1.
          2   -1    0    0  501    0  0.00000000000E+00 -0.00000000000E+00 -0.86267728342E+03  0.86267728342E+03  0.25500000000E-02 0. -1.
    8880023    1    1    2    0    0  0.50085674847E+03  0.19448872280E+03 -0.48617535274E+03  0.97921398359E+03  0.65864270000E+03 0.  0.
    8880022    1    1    2    0    0 -0.50085674847E+03 -0.19448872280E+03  0.47024188050E+03  0.73020711102E+03  0.15294330000E+03 0.  0.
<mgrwt>
<rscale>  0 0.76532361E+03</rscale>
<asrwt>0</asrwt>
<pdfrwt beam="1">  1        2 0.13271958E+00 0.84999621E+03</pdfrwt>
<pdfrwt beam="2">  1       -2 0.13026828E+00 0.84999621E+03</pdfrwt>
<totfact> 0.13510158E+01</totfact>
</mgrwt>
</event>
<event>
 4    1  0.2665544E-007  0.2185258E+04  0.7818608E-02  0.8534903E-01
          2   -1    0    0  501    0  0.00000000000E+00  0.00000000000E+00  0.44733899486E+04  0.44733899486E+04  0.25500000000E-02 0. -1.
         -2   -1    0    0    0  501 -0.00000000000E+00 -0.00000000000E+00 -0.10465471830E+04  0.10465471830E+04  0.25500000000E-02 0.  1.
    8880023    1    1    2    0    0  0.20277633434E+04  0.47929112554E+03  0.21811232892E+04  0.30874995010E+04  0.65864270000E+03 0.  0.
    8880022    1    1    2    0    0 -0.20277633434E+04 -0.47929112554E+03  0.12457194764E+04  0.24324376306E+04  0.15294330000E+03 0.  0.
<mgrwt>
<rscale>  0 0.21608486E+04</rscale>
<asrwt>0</asrwt>
<pdfrwt beam="1">  1        2 0.68821385E+00 0.21852584E+04</pdfrwt>
<pdfrwt beam="2">  1       -2 0.16100726E+00 0.21852584E+04</pdfrwt>
<totfact> 0.28727961E-02</totfact>
</mgrwt>
</event>
<event>
 4    1  0.2665544E-007  0.1387310E+04  0.7818608E-02  0.8993606E-01
         -2   -1    0    0    0  501 -0.00000000000E+00  0.00000000000E+00  0.70360112811E+03  0.70360112812E+03  0.25500000000E-02 0.  1.
          2   -1    0    0  501    0  0.00000000000E+00 -0.00000000000E+00 -0.37119599605E+04  0.37119599605E+04  0.25500000000E-02 0. -1.
    8880023    1    1    2    0    0 -0.10057710922E+04  0.69227442436E+03 -0.28566633274E+04  0.31757132964E+04  0.65864270000E+03 0.  0.
    8880022    1    1    2    0    0  0.10057710922E+04 -0.69227442436E+03 -0.15169550496E+03  0.12398477922E+04  0.15294330000E+03 0.  0.
<mgrwt>
<rscale>  0 0.13463361E+04</rscale>
<asrwt>0</asrwt>
<pdfrwt beam="1">  1        2 0.57107075E+00 0.13873102E+04</pdfrwt>
<pdfrwt beam="2">  1       -2 0.10824633E+00 0.13873102E+04</pdfrwt>
<totfact> 0.38189832E-01</totfact>
</mgrwt>
</event>
<event>
 4    1  0.2665544E-007  0.9844223E+03  0.7818608E-02  0.9402228E-01
          2   -1    0    0  501    0  0.00000000000E+00  0.00000000000E+00  0.11526620858E+04  0.11526620858E+04  0.25500000000E-02 0. -1.
         -2   -1    0    0    0  501 -0.00000000000E+00 -0.00000000000E+00 -0.80519399756E+03  0.80519399756E+03  0.25500000000E-02 0.  1.
    8880023    1    1    2    0    0  0.12207583435E+03 -0.72136990134E+03  0.61872440061E+03  0.11627154140E+04  0.65864270000E+03 0. -1.
    8880022    1    1    2    0    0 -0.12207583435E+03  0.72136990134E+03 -0.27125631242E+03  0.79514066927E+03  0.15294330000E+03 0.  0.
<mgrwt>
<rscale>  0 0.91892565E+03</rscale>
<asrwt>0</asrwt>
<pdfrwt beam="1">  1        2 0.17733263E+00 0.98442229E+03</pdfrwt>
<pdfrwt beam="2">  1       -2 0.12387600E+00 0.98442229E+03</pdfrwt>
<totfact> 0.98594626E+00</totfact>
</mgrwt>
</event>
<event>
 4    1  0.2665544E-007  0.8426967E+03  0.7818608E-02  0.9625116E-01
         -2   -1    0    0    0  501 -0.00000000000E+00  0.00000000000E+00  0.12188200502E+04  0.12188200502E+04  0.25500000000E-02 0.  1.
          2   -1    0    0  501    0  0.00000000000E+00 -0.00000000000E+00 -0.69597007700E+03  0.69597007700E+03  0.25500000000E-02 0. -1.
    8880023    1    1    2    0    0  0.34540440561E+01  0.52565722234E+03 -0.32695870455E+03  0.90390245412E+03  0.65864270000E+03 0. -1.
    8880022    1    1    2    0    0 -0.34540440561E+01 -0.52565722234E+03  0.84980867779E+03  0.10108876731E+04  0.15294330000E+03 0.  0.
<mgrwt>
<rscale>  0 0.75655892E+03</rscale>
<asrwt>0</asrwt>
<pdfrwt beam="1">  1        2 0.10707232E+00 0.84269665E+03</pdfrwt>
<pdfrwt beam="2">  1       -2 0.18751077E+00 0.84269665E+03</pdfrwt>
<totfact> 0.67052553E+00</totfact>
</mgrwt>
</event>
<event>
 4    1  0.2665544E-007  0.1047381E+04  0.7818608E-02  0.9322036E-01
          2   -1    0    0  501    0  0.00000000000E+00  0.00000000000E+00  0.35627285651E+04  0.35627285651E+04  0.25500000000E-02 0. -1.
         -2   -1    0    0    0  501 -0.00000000000E+00 -0.00000000000E+00 -0.52369295062E+03  0.52369295062E+03  0.25500000000E-02 0.  1.
    8880023    1    1    2    0    0 -0.75417674472E+03  0.30727052167E+03  0.30835935575E+04  0.32566174430E+04  0.65864270000E+03 0.  0.
    8880022    1    1    2    0    0  0.75417674472E+03 -0.30727052167E+03 -0.44557943064E+02  0.82980407270E+03  0.15294330000E+03 0.  0.
<mgrwt>
<rscale>  0 0.98779267E+03</rscale>
<asrwt>0</asrwt>
<pdfrwt beam="1">  1        2 0.54811207E+00 0.10473815E+04</pdfrwt>
<pdfrwt beam="2">  1       -2 0.80568149E-01 0.10473815E+04</pdfrwt>
<totfact> 0.10273976E+00</totfact>
</mgrwt>
</event>
<event>
 4    1  0.2665544E-007  0.8660840E+03  0.7818608E-02  0.9582831E-01
          2   -1    0    0  501    0  0.00000000000E+00  0.00000000000E+00  0.30511583813E+04  0.30511583813E+04  0.25500000000E-02 0. -1.
         -2   -1    0    0    0  501 -0.00000000000E+00 -0.00000000000E+00 -0.27977316449E+03  0.27977316450E+03  0.25500000000E-02 0.  1.
    8880023    1    1    2    0    0 -0.34002457123E+03  0.44796721186E+03  0.25736643217E+04  0.27154833048E+04  0.65864270000E+03 0.  0.
    8880022    1    1    2    0    0  0.34002457123E+03 -0.44796721186E+03  0.19772089517E+03  0.61544824099E+03  0.15294330000E+03 0.  0.
<mgrwt>
<rscale>  0 0.78443009E+03</rscale>
<asrwt>0</asrwt>
<pdfrwt beam="1">  1        2 0.46940901E+00 0.86608402E+03</pdfrwt>
<pdfrwt beam="2">  1       -2 0.43042023E-01 0.86608402E+03</pdfrwt>
<totfact> 0.86417236E+00</totfact>
</mgrwt>
</event>
<event>
 4    1  0.2665544E-007  0.7047049E+03  0.7818608E-02  0.9978216E-01
         -2   -1    0    0    0  501 -0.00000000000E+00  0.00000000000E+00  0.54363476912E+03  0.54363476912E+03  0.25500000000E-02 0.  1.
          2   -1    0    0  501    0  0.00000000000E+00 -0.00000000000E+00 -0.10887607446E+04  0.10887607446E+04  0.25500000000E-02 0. -1.
    8880023    1    1    2    0    0  0.23771901840E+03  0.79299982345E+02 -0.91832971176E+03  0.11575571194E+04  0.65864270000E+03 0. -1.
    8880022    1    1    2    0    0 -0.23771901840E+03 -0.79299982345E+02  0.37320373630E+03  0.47483839431E+03  0.15294330000E+03 0.  0.
<mgrwt>
<rscale>  0 0.56615831E+03</rscale>
<asrwt>0</asrwt>
<pdfrwt beam="1">  1        2 0.16750165E+00 0.70470492E+03</pdfrwt>
<pdfrwt beam="2">  1       -2 0.83636118E-01 0.70470492E+03</pdfrwt>
<totfact> 0.28285650E+01</totfact>
</mgrwt>
</event>
<event>
 4    1  0.2665544E-007  0.7493312E+03  0.7818608E-02  0.9833555E-01
         -2   -1    0    0    0  501 -0.00000000000E+00  0.00000000000E+00  0.64428709451E+03  0.64428709452E+03  0.25500000000E-02 0.  1.
          2   -1    0    0  501    0  0.00000000000E+00 -0.00000000000E+00 -0.13901676288E+04  0.13901676288E+04  0.25500000000E-02 0. -1.
    8880023    1    1    2    0    0  0.17066493531E+03  0.31394348881E+03 -0.12136081344E+04  0.14263035948E+04  0.65864270000E+03 0. -1.
    8880022    1    1    2    0    0 -0.17066493531E+03 -0.31394348881E+03  0.46772760007E+03  0.60815112858E+03  0.15294330000E+03 0.  0.
<mgrwt>
<rscale>  0 0.63592480E+03</rscale>
<asrwt>0</asrwt>
<pdfrwt beam="1">  1        2 0.21387194E+00 0.74933120E+03</pdfrwt>
<pdfrwt beam="2">  1       -2 0.99121092E-01 0.74933120E+03</pdfrwt>
<totfact> 0.12644146E+01</totfact>
</mgrwt>
</event>
<event>
 4    1  0.2665544E-007  0.7828399E+03  0.7818608E-02  0.9749208E-01
         -2   -1    0    0    0  501 -0.00000000000E+00  0.00000000000E+00  0.27621644127E+03  0.27621644128E+03  0.25500000000E-02 0.  1.
          2   -1    0    0  501    0  0.00000000000E+00 -0.00000000000E+00 -0.19377585087E+04  0.19377585087E+04  0.25500000000E-02 0. -1.
    8880023    1    1    2    0    0  0.20194537093E+03  0.37181466067E+03 -0.15707141743E+04  0.17549875494E+04  0.65864270000E+03 0.  0.
    8880022    1    1    2    0    0 -0.20194537093E+03 -0.37181466067E+03 -0.90827893088E+02  0.45898740060E+03  0.15294330000E+03 0.  0.
<mgrwt>
<rscale>  0 0.68161056E+03</rscale>
<asrwt>0</asrwt>
<pdfrwt beam="1">  1        2 0.29811669E+00 0.78283988E+03</pdfrwt>
<pdfrwt beam="2">  1       -2 0.42494838E-01 0.78283988E+03</pdfrwt>
<totfact> 0.38970189E+01</totfact>
</mgrwt>
</event>
<event>
 4    1  0.2665544E-007  0.8482635E+03  0.7818608E-02  0.9614791E-01
          2   -1    0    0  501    0  0.00000000000E+00  0.00000000000E+00  0.50935360449E+03  0.50935360450E+03  0.25500000000E-02 0. -1.
         -2   -1    0    0    0  501 -0.00000000000E+00 -0.00000000000E+00 -0.23443568341E+04  0.23443568341E+04  0.25500000000E-02 0.  1.
    8880023    1    1    2    0    0 -0.38635000892E+03 -0.36942455668E+03  0.87178816801E+02  0.85273160187E+03  0.65864270000E+03 0. -1.
    8880022    1    1    2    0    0  0.38635000892E+03  0.36942455668E+03 -0.19221820464E+04  0.20009788367E+04  0.15294330000E+03 0.  0.
<mgrwt>
<rscale>  0 0.76324889E+03</rscale>
<asrwt>0</asrwt>
<pdfrwt beam="1">  1        2 0.78362094E-01 0.84826354E+03</pdfrwt>
<pdfrwt beam="2">  1       -2 0.36067028E+00 0.84826354E+03</pdfrwt>
<totfact> 0.83366248E-01</totfact>
</mgrwt>
</event>
<event>
 4    1  0.2665544E-007  0.1783563E+04  0.7818608E-02  0.8731684E-01
         -2   -1    0    0    0  501 -0.00000000000E+00  0.00000000000E+00  0.25877832083E+04  0.25877832083E+04  0.25500000000E-02 0.  1.
          2   -1    0    0  501    0  0.00000000000E+00 -0.00000000000E+00 -0.20153732736E+04  0.20153732736E+04  0.25500000000E-02 0. -1.
    8880023    1    1    2    0    0 -0.11853850682E+04  0.11585114250E+04 -0.12170332777E+04  0.21592282619E+04  0.65864270000E+03 0.  0.
    8880022    1    1    2    0    0  0.11853850682E+04 -0.11585114250E+04  0.17894432123E+04  0.24439282201E+04  0.15294330000E+03 0.  0.
<mgrwt>
<rscale>  0 0.17530310E+04</rscale>
<asrwt>0</asrwt>
<pdfrwt beam="1">  1        2 0.31005743E+00 0.17835629E+04</pdfrwt>
<pdfrwt beam="2">  1       -2 0.39812049E+00 0.17835629E+04</pdfrwt>
<totfact> 0.45363955E-02</totfact>
</mgrwt>
</event>
<event>
 4    1  0.2665544E-007  0.1304781E+04  0.7818608E-02  0.9061442E-01
         -2   -1    0    0    0  501 -0.00000000000E+00  0.00000000000E+00  0.21849716207E+04  0.21849716207E+04  0.25500000000E-02 0.  1.
          2   -1    0    0  501    0  0.00000000000E+00 -0.00000000000E+00 -0.10295646743E+04  0.10295646743E+04  0.25500000000E-02 0. -1.
    8880023    1    1    2    0    0  0.10137030178E+04  0.49096896437E+03 -0.32831589618E+03  0.13454537770E+04  0.65864270000E+03 0.  0.
    8880022    1    1    2    0    0 -0.10137030178E+04 -0.49096896437E+03  0.14837228426E+04  0.18690825180E+04  0.15294330000E+03 0.  0.
<mgrwt>
<rscale>  0 0.12605575E+04</rscale>
<asrwt>0</asrwt>
<pdfrwt beam="1">  1        2 0.15839457E+00 0.13047814E+04</pdfrwt>
<pdfrwt beam="2">  1       -2 0.33614948E+00 0.13047814E+04</pdfrwt>
<totfact> 0.44399534E-01</totfact>
</mgrwt>
</event>
<event>
 4    1  0.2665544E-007  0.1118510E+04  0.7818608E-02  0.9240722E-01
         -2   -1    0    0    0  501 -0.00000000000E+00  0.00000000000E+00  0.62135564231E+03  0.62135564231E+03  0.25500000000E-02 0.  1.
          2   -1    0    0  501    0  0.00000000000E+00 -0.00000000000E+00 -0.21093235396E+04  0.21093235396E+04  0.25500000000E-02 0. -1.
    8880023    1    1    2    0    0  0.26367941583E+03 -0.86471227980E+03 -0.14251514022E+04  0.18116624649E+04  0.65864270000E+03 0.  0.
    8880022    1    1    2    0    0 -0.26367941583E+03  0.86471227980E+03 -0.62816495113E+02  0.91901671706E+03  0.15294330000E+03 0.  0.
<mgrwt>
<rscale>  0 0.10642815E+04</rscale>
<asrwt>0</asrwt>
<pdfrwt beam="1">  1        2 0.32451131E+00 0.11185099E+04</pdfrwt>
<pdfrwt beam="2">  1       -2 0.95593177E-01 0.11185099E+04</pdfrwt>
<totfact> 0.52725594E+00</totfact>
</mgrwt>
</event>
<event>
 4    1  0.2665544E-007  0.8711421E+03  0.7818608E-02  0.9574043E-01
          2   -1    0    0  501    0  0.00000000000E+00  0.00000000000E+00  0.18110864848E+04  0.18110864848E+04  0.25500000000E-02 0. -1.
         -2   -1    0    0    0  501 -0.00000000000E+00 -0.00000000000E+00 -0.51878612976E+03  0.51878612976E+03  0.25500000000E-02 0.  1.
    8880023    1    1    2    0    0  0.55210638221E+03 -0.14232690570E+03  0.14740405133E+04  0.17122161214E+04  0.65864270000E+03 0.  0.
    8880022    1    1    2    0    0 -0.55210638221E+03  0.14232690570E+03 -0.18174015826E+03  0.61765649313E+03  0.15294330000E+03 0.  0.
<mgrwt>
<rscale>  0 0.79038274E+03</rscale>
<asrwt>0</asrwt>
<pdfrwt beam="1">  1        2 0.27862869E+00 0.87114213E+03</pdfrwt>
<pdfrwt beam="2">  1       -2 0.79813252E-01 0.87114213E+03</pdfrwt>
<totfact> 0.11993246E+01</totfact>
</mgrwt>
</event>
<event>
 4    1  0.2665544E-007  0.1523385E+04  0.7818608E-02  0.8893297E-01
          2   -1    0    0  501    0  0.00000000000E+00  0.00000000000E+00  0.30258848982E+04  0.30258848982E+04  0.25500000000E-02 0. -1.
         -2   -1    0    0    0  501 -0.00000000000E+00 -0.00000000000E+00 -0.12977839892E+04  0.12977839892E+04  0.25500000000E-02 0.  1.
    8880023    1    1    2    0    0 -0.12974489907E+04  0.45112896890E+03  0.23559916077E+04  0.28056011641E+04  0.65864270000E+03 0.  0.
    8880022    1    1    2    0    0  0.12974489907E+04 -0.45112896890E+03 -0.62789069872E+03  0.15180677233E+04  0.15294330000E+03 0.  0.
<mgrwt>
<rscale>  0 0.14867722E+04</rscale>
<asrwt>0</asrwt>
<pdfrwt beam="1">  1        2 0.46552075E+00 0.15233849E+04</pdfrwt>
<pdfrwt beam="2">  1       -2 0.19965908E+00 0.15233849E+04</pdfrwt>
<totfact> 0.21075972E-01</totfact>
</mgrwt>
</event>
<event>
 4    1  0.2665544E-007  0.1056139E+04  0.7818608E-02  0.9311537E-01
          2   -1    0    0  501    0  0.00000000000E+00  0.00000000000E+00  0.18704847477E+04  0.18704847477E+04  0.25500000000E-02 0. -1.
         -2   -1    0    0    0  501 -0.00000000000E+00 -0.00000000000E+00 -0.17974582148E+04  0.17974582148E+04  0.25500000000E-02 0.  1.
    8880023    1    1    2    0    0 -0.74409928806E+03 -0.35768174964E+03  0.16047912706E+04  0.19211416431E+04  0.65864270000E+03 0.  0.
    8880022    1    1    2    0    0  0.74409928806E+03  0.35768174964E+03 -0.15317647377E+04  0.17468013193E+04  0.15294330000E+03 0.  0.
<mgrwt>
<rscale>  0 0.99727615E+03</rscale>
<asrwt>0</asrwt>
<pdfrwt beam="1">  1        2 0.28776688E+00 0.10561393E+04</pdfrwt>
<pdfrwt beam="2">  1       -2 0.27653203E+00 0.10561393E+04</pdfrwt>
<totfact> 0.34717015E-01</totfact>
</mgrwt>
</event>
<event>
 4    1  0.2665544E-007  0.8172855E+03  0.7818608E-02  0.9674597E-01
          2   -1    0    0  501    0  0.00000000000E+00  0.00000000000E+00  0.21965496416E+04  0.21965496416E+04  0.25500000000E-02 0. -1.
         -2   -1    0    0    0  501 -0.00000000000E+00 -0.00000000000E+00 -0.11977454284E+04  0.11977454284E+04  0.25500000000E-02 0.  1.
    8880023    1    1    2    0    0  0.22619692500E+03  0.42776208222E+03  0.20609802120E+04  0.22171141352E+04  0.65864270000E+03 0. -1.
    8880022    1    1    2    0    0 -0.22619692500E+03 -0.42776208222E+03 -0.10621759988E+04  0.11771809348E+04  0.15294330000E+03 0.  0.
<mgrwt>
<rscale>  0 0.72549653E+03</rscale>
<asrwt>0</asrwt>
<pdfrwt beam="1">  1        2 0.33793071E+00 0.81728554E+03</pdfrwt>
<pdfrwt beam="2">  1       -2 0.18426853E+00 0.81728554E+03</pdfrwt>
<totfact> 0.90794105E-01</totfact>
</mgrwt>
</event>
<event>
 4    1  0.2665544E-007  0.1380185E+04  0.7818608E-02  0.8999235E-01
          2   -1    0    0  501    0  0.00000000000E+00  0.00000000000E+00  0.20921061418E+04  0.20921061418E+04  0.25500000000E-02 0. -1.
         -2   -1    0    0    0  501 -0.00000000000E+00 -0.00000000000E+00 -0.86639265505E+03  0.86639265506E+03  0.25500000000E-02 0.  1.
    8880023    1    1    2    0    0  0.12083781227E+04  0.10450636593E+03  0.10260829453E+04  0.17198126889E+04  0.65864270000E+03 0.  0.
    8880022    1    1    2    0    0 -0.12083781227E+04 -0.10450636593E+03  0.19963054141E+03  0.12386861080E+04  0.15294330000E+03 0.  0.
<mgrwt>
<rscale>  0 0.13389506E+04</rscale>
<asrwt>0</asrwt>
<pdfrwt beam="1">  1        2 0.32186248E+00 0.13801846E+04</pdfrwt>
<pdfrwt beam="2">  1       -2 0.13329118E+00 0.13801846E+04</pdfrwt>
<totfact> 0.23163848E+00</totfact>
</mgrwt>
</event>
<event>
 4    1  0.2665544E-007  0.1043376E+04  0.7818608E-02  0.9326887E-01
          2   -1    0    0  501    0  0.00000000000E+00  0.00000000000E+00  0.39591522152E+04  0.39591522152E+04  0.25500000000E-02 0. -1.
         -2   -1    0    0    0  501 -0.00000000000E+00 -0.00000000000E+00 -0.25933008430E+03  0.25933008431E+03  0.25500000000E-02 0.  1.
    8880023    1    1    2    0    0 -0.80691813707E+03  0.60884264500E+02  0.28504831523E+04  0.30354387132E+04  0.65864270000E+03 0.  0.
    8880022    1    1    2    0    0  0.80691813707E+03 -0.60884264500E+02  0.84933897857E+03  0.11830435863E+04  0.15294330000E+03 0.  0.
<mgrwt>
<rscale>  0 0.98344860E+03</rscale>
<asrwt>0</asrwt>
<pdfrwt beam="1">  1        2 0.60910033E+00 0.10433762E+04</pdfrwt>
<pdfrwt beam="2">  1       -2 0.39896937E-01 0.10433762E+04</pdfrwt>
<totfact> 0.22931967E+00</totfact>
</mgrwt>
</event>
<event>
 4    1  0.2665544E-007  0.6993585E+03  0.7818608E-02  0.9999873E-01
          2   -1    0    0  501    0  0.00000000000E+00  0.00000000000E+00  0.11638131201E+04  0.11638131201E+04  0.25500000000E-02 0. -1.
         -2   -1    0    0    0  501 -0.00000000000E+00 -0.00000000000E+00 -0.31733677872E+03  0.31733677873E+03  0.25500000000E-02 0.  1.
    8880023    1    1    2    0    0 -0.22133758683E+03 -0.79383827816E+02  0.95215412139E+03  0.11813973915E+04  0.65864270000E+03 0.  0.
    8880022    1    1    2    0    0  0.22133758683E+03  0.79383827816E+02 -0.10567778001E+03  0.29975250735E+03  0.15294330000E+03 0.  1.
<mgrwt>
<rscale>  0 0.55655815E+03</rscale>
<asrwt>0</asrwt>
<pdfrwt beam="1">  1        2 0.17904817E+00 0.69935851E+03</pdfrwt>
<pdfrwt beam="2">  1       -2 0.48821043E-01 0.69935851E+03</pdfrwt>
<totfact> 0.80718771E+01</totfact>
</mgrwt>
</event>
<event>
 4    1  0.2665544E-007  0.6890626E+03  0.7818608E-02  0.1004601E+00
          2   -1    0    0  501    0  0.00000000000E+00  0.00000000000E+00  0.30500681284E+04  0.30500681284E+04  0.25500000000E-02 0. -1.
         -2   -1    0    0    0  501 -0.00000000000E+00 -0.00000000000E+00 -0.20053827783E+03  0.20053827784E+03  0.25500000000E-02 0.  1.
    8880023    1    1    2    0    0  0.16277562876E+03  0.12042071364E+03  0.29094035430E+04  0.29898890006E+04  0.65864270000E+03 0. -1.
    8880022    1    1    2    0    0 -0.16277562876E+03 -0.12042071364E+03 -0.59873692359E+02  0.26071740572E+03  0.15294330000E+03 0.  0.
<mgrwt>
<rscale>  0 0.53677863E+03</rscale>
<asrwt>0</asrwt>
<pdfrwt beam="1">  1        2 0.46924124E+00 0.68906260E+03</pdfrwt>
<pdfrwt beam="2">  1       -2 0.30852043E-01 0.68906260E+03</pdfrwt>
<totfact> 0.16906888E+01</totfact>
</mgrwt>
</event>
<event>
 4    1  0.2665544E-007  0.7102408E+03  0.7818608E-02  0.9957108E-01
         -2   -1    0    0    0  501 -0.00000000000E+00  0.00000000000E+00  0.12002831279E+04  0.12002831279E+04  0.25500000000E-02 0.  1.
          2   -1    0    0  501    0  0.00000000000E+00 -0.00000000000E+00 -0.15336332447E+04  0.15336332447E+04  0.25500000000E-02 0. -1.
    8880023    1    1    2    0    0 -0.24406542334E+03  0.10518491979E+03 -0.14292137833E+04  0.15959617924E+04  0.65864270000E+03 0.  0.
    8880022    1    1    2    0    0  0.24406542334E+03 -0.10518491979E+03  0.10958636665E+04  0.11379545803E+04  0.15294330000E+03 0.  1.
<mgrwt>
<rscale>  0 0.57571658E+03</rscale>
<asrwt>0</asrwt>
<pdfrwt beam="1">  1        2 0.23594358E+00 0.71024081E+03</pdfrwt>
<pdfrwt beam="2">  1       -2 0.18465894E+00 0.71024081E+03</pdfrwt>
<totfact> 0.21249508E+00</totfact>
</mgrwt>
</event>
<event>
 4    1  0.2665544E-007  0.9830402E+03  0.7818608E-02  0.9404090E-01
          2   -1    0    0  501    0  0.00000000000E+00  0.00000000000E+00  0.26201012096E+04  0.26201012096E+04  0.25500000000E-02 0. -1.
         -2   -1    0    0    0  501 -0.00000000000E+00 -0.00000000000E+00 -0.82225809935E+03  0.82225809935E+03  0.25500000000E-02 0.  1.
    8880023    1    1    2    0    0  0.13478025474E+03 -0.71721130227E+03  0.23282862039E+04  0.25273077815E+04  0.65864270000E+03 0. -1.
    8880022    1    1    2    0    0 -0.13478025474E+03  0.71721130227E+03 -0.53044309366E+03  0.91505152740E+03  0.15294330000E+03 0.  0.
<mgrwt>
<rscale>  0 0.91739815E+03</rscale>
<asrwt>0</asrwt>
<pdfrwt beam="1">  1        2 0.40309250E+00 0.98304017E+03</pdfrwt>
<pdfrwt beam="2">  1       -2 0.12650124E+00 0.98304017E+03</pdfrwt>
<totfact> 0.13941868E+00</totfact>
</mgrwt>
</event>
<event>
 4    1  0.2665544E-007  0.1251415E+04  0.7818608E-02  0.9108695E-01
         -2   -1    0    0    0  501 -0.00000000000E+00  0.00000000000E+00  0.52827210521E+03  0.52827210522E+03  0.25500000000E-02 0.  1.
          2   -1    0    0  501    0  0.00000000000E+00 -0.00000000000E+00 -0.27711558171E+04  0.27711558171E+04  0.25500000000E-02 0. -1.
    8880023    1    1    2    0    0 -0.97088550295E+03 -0.43544218546E+03 -0.16528461074E+04  0.20731471289E+04  0.65864270000E+03 0.  0.
    8880022    1    1    2    0    0  0.97088550295E+03  0.43544218546E+03 -0.59003760442E+03  0.12262807934E+04  0.15294330000E+03 0.  0.
<mgrwt>
<rscale>  0 0.12047664E+04</rscale>
<asrwt>0</asrwt>
<pdfrwt beam="1">  1        2 0.42633166E+00 0.12514147E+04</pdfrwt>
<pdfrwt beam="2">  1       -2 0.81272633E-01 0.12514147E+04</pdfrwt>
<totfact> 0.31588420E+00</totfact>
</mgrwt>
</event>
<event>
 4    1  0.2665544E-007  0.8229033E+03  0.7818608E-02  0.9663301E-01
          2   -1    0    0  501    0  0.00000000000E+00  0.00000000000E+00  0.24236188424E+04  0.24236188424E+04  0.25500000000E-02 0. -1.
         -2   -1    0    0    0  501 -0.00000000000E+00 -0.00000000000E+00 -0.13468317187E+04  0.13468317187E+04  0.25500000000E-02 0.  1.
    8880023    1    1    2    0    0 -0.47638951579E+03 -0.12811203389E+03  0.22999414492E+04  0.24427240000E+04  0.65864270000E+03 0.  0.
    8880022    1    1    2    0    0  0.47638951579E+03  0.12811203389E+03 -0.12231543255E+04  0.13277265611E+04  0.15294330000E+03 0.  1.
<mgrwt>
<rscale>  0 0.73244485E+03</rscale>
<asrwt>0</asrwt>
<pdfrwt beam="1">  1        2 0.37286444E+00 0.82290332E+03</pdfrwt>
<pdfrwt beam="2">  1       -2 0.20720488E+00 0.82290332E+03</pdfrwt>
<totfact> 0.47842933E-01</totfact>
</mgrwt>
</event>
<event>
 4    1  0.2665544E-007  0.2203745E+04  0.7818608E-02  0.8526986E-01
          2   -1    0    0  501    0  0.00000000000E+00  0.00000000000E+00  0.27567130969E+04  0.27567130969E+04  0.25500000000E-02 0. -1.
         -2   -1    0    0    0  501 -0.00000000000E+00 -0.00000000000E+00 -0.22216524408E+04  0.22216524408E+04  0.25500000000E-02 0.  1.
    8880023    1    1    2    0    0 -0.13043153272E+04 -0.16496798307E+04 -0.94951560656E+03  0.23995983226E+04  0.65864270000E+03 0.  0.
    8880022    1    1    2    0    0  0.13043153272E+04  0.16496798307E+04  0.14845762626E+04  0.25787672150E+04  0.15294330000E+03 0.  0.
<mgrwt>
<rscale>  0 0.21795563E+04</rscale>
<asrwt>0</asrwt>
<pdfrwt beam="1">  1        2 0.42410970E+00 0.22037450E+04</pdfrwt>
<pdfrwt beam="2">  1       -2 0.34179269E+00 0.22037450E+04</pdfrwt>
<totfact> 0.37215232E-02</totfact>
</mgrwt>
</event>
<event>
 4    1  0.2665544E-007  0.7109969E+03  0.7818608E-02  0.9954318E-01
         -2   -1    0    0    0  501 -0.00000000000E+00  0.00000000000E+00  0.14168154631E+03  0.14168154634E+03  0.25500000000E-02 0.  1.
          2   -1    0    0  501    0  0.00000000000E+00 -0.00000000000E+00 -0.24547069880E+04  0.24547069880E+04  0.25500000000E-02 0. -1.
    8880023    1    1    2    0    0  0.25787141402E+01 -0.26776805873E+03 -0.21115182449E+04  0.22280094003E+04  0.65864270000E+03 0. -1.
    8880022    1    1    2    0    0 -0.25787141402E+01  0.26776805873E+03 -0.20150719686E+03  0.36837913410E+03  0.15294330000E+03 0.  0.
<mgrwt>
<rscale>  0 0.57699523E+03</rscale>
<asrwt>0</asrwt>
<pdfrwt beam="1">  1        2 0.37764720E+00 0.71099690E+03</pdfrwt>
<pdfrwt beam="2">  1       -2 0.21797163E-01 0.71099690E+03</pdfrwt>
<totfact> 0.70717278E+01</totfact>
</mgrwt>
</event>
<event>
 4    1  0.2665544E-007  0.7663462E+03  0.7818608E-02  0.9788946E-01
         -2   -1    0    0    0  501 -0.00000000000E+00  0.00000000000E+00  0.45950357490E+03  0.45950357491E+03  0.25500000000E-02 0.  1.
          2   -1    0    0  501    0  0.00000000000E+00 -0.00000000000E+00 -0.26423379948E+04  0.26423379948E+04  0.25500000000E-02 0. -1.
    8880023    1    1    2    0    0 -0.15079712916E+03 -0.36157508873E+03 -0.24742330358E+04  0.25901960622E+04  0.65864270000E+03 0. -1.
    8880022    1    1    2    0    0  0.15079712916E+03  0.36157508873E+03  0.29139861593E+03  0.51164550748E+03  0.15294330000E+03 0.  0.
<mgrwt>
<rscale>  0 0.65959129E+03</rscale>
<asrwt>0</asrwt>
<pdfrwt beam="1">  1        2 0.40651353E+00 0.76634622E+03</pdfrwt>
<pdfrwt beam="2">  1       -2 0.70692859E-01 0.76634622E+03</pdfrwt>
<totfact> 0.54939866E+00</totfact>
</mgrwt>
</event>
<event>
 4    1  0.2665544E-007  0.1720055E+04  0.7818608E-02  0.8768098E-01
          2   -1    0    0  501    0  0.00000000000E+00  0.00000000000E+00  0.30602260166E+04  0.30602260166E+04  0.25500000000E-02 0. -1.
         -2   -1    0    0    0  501 -0.00000000000E+00 -0.00000000000E+00 -0.91515686050E+03  0.91515686050E+03  0.25500000000E-02 0.  1.
    8880023    1    1    2    0    0  0.95424819457E+03  0.12705070923E+04  0.84368396771E+03  0.19158263836E+04  0.65864270000E+03 0.  0.
    8880022    1    1    2    0    0 -0.95424819457E+03 -0.12705070923E+04  0.13013851884E+04  0.20595564935E+04  0.15294330000E+03 0.  0.
<mgrwt>
<rscale>  0 0.16882441E+04</rscale>
<asrwt>0</asrwt>
<pdfrwt beam="1">  1        2 0.47080400E+00 0.17200547E+04</pdfrwt>
<pdfrwt beam="2">  1       -2 0.14079336E+00 0.17200547E+04</pdfrwt>
<totfact> 0.52390616E-01</totfact>
</mgrwt>
</event>
<event>
 4    1  0.2665544E-007  0.9642960E+03  0.7818608E-02  0.9429837E-01
          2   -1    0    0  501    0  0.00000000000E+00  0.00000000000E+00  0.12369913367E+04  0.12369913367E+04  0.25500000000E-02 0. -1.
         -2   -1    0    0    0  501 -0.00000000000E+00 -0.00000000000E+00 -0.80661576837E+03  0.80661576837E+03  0.25500000000E-02 0.  1.
    8880023    1    1    2    0    0 -0.62965207789E+03 -0.31558646749E+03  0.78214213567E+03  0.12416171247E+04  0.65864270000E+03 0. -1.
    8880022    1    1    2    0    0  0.62965207789E+03  0.31558646749E+03 -0.35176656737E+03  0.80198998035E+03  0.15294330000E+03 0.  0.
<mgrwt>
<rscale>  0 0.89660376E+03</rscale>
<asrwt>0</asrwt>
<pdfrwt beam="1">  1        2 0.19030636E+00 0.96429599E+03</pdfrwt>
<pdfrwt beam="2">  1       -2 0.12409473E+00 0.96429599E+03</pdfrwt>
<totfact> 0.87565225E+00</totfact>
</mgrwt>
</event>
<event>
 4    1  0.2665544E-007  0.6667601E+03  0.7818608E-02  0.1018100E+00
          2   -1    0    0  501    0  0.00000000000E+00  0.00000000000E+00  0.12891141845E+04  0.12891141845E+04  0.25500000000E-02 0. -1.
         -2   -1    0    0    0  501 -0.00000000000E+00 -0.00000000000E+00 -0.37775956527E+03  0.37775956528E+03  0.25500000000E-02 0.  1.
    8880023    1    1    2    0    0 -0.85090090161E+02  0.59316957224E+02  0.11713914976E+04  0.13478601826E+04  0.65864270000E+03 0. -1.
    8880022    1    1    2    0    0  0.85090090161E+02 -0.59316957224E+02 -0.26003687844E+03  0.31901356714E+03  0.15294330000E+03 0.  0.
<mgrwt>
<rscale>  0 0.48378433E+03</rscale>
<asrwt>0</asrwt>
<pdfrwt beam="1">  1        2 0.19832526E+00 0.66676010E+03</pdfrwt>
<pdfrwt beam="2">  1       -2 0.58116855E-01 0.66676010E+03</pdfrwt>
<totfact> 0.47767507E+01</totfact>
</mgrwt>
</event>
<event>
 4    1  0.2665544E-007  0.8605639E+03  0.7818608E-02  0.9592561E-01
          2   -1    0    0  501    0  0.00000000000E+00  0.00000000000E+00  0.38095130958E+04  0.38095130958E+04  0.25500000000E-02 0. -1.
         -2   -1    0    0    0  501 -0.00000000000E+00 -0.00000000000E+00 -0.33814283037E+03  0.33814283038E+03  0.25500000000E-02 0.  1.
    8880023    1    1    2    0    0  0.22182048979E+03 -0.50749948098E+03  0.34678763160E+04  0.35730570108E+04  0.65864270000E+03 0. -1.
    8880022    1    1    2    0    0 -0.22182048979E+03  0.50749948098E+03  0.34939494170E+01  0.57459891541E+03  0.15294330000E+03 0.  0.
<mgrwt>
<rscale>  0 0.77790496E+03</rscale>
<asrwt>0</asrwt>
<pdfrwt beam="1">  1        2 0.58607890E+00 0.86056392E+03</pdfrwt>
<pdfrwt beam="2">  1       -2 0.52021977E-01 0.86056392E+03</pdfrwt>
<totfact> 0.18114391E+00</totfact>
</mgrwt>
</event>
<event>
 4    1  0.2665544E-007  0.7814186E+03  0.7818608E-02  0.9752515E-01
         -2   -1    0    0    0  501 -0.00000000000E+00  0.00000000000E+00  0.24921177858E+03  0.24921177859E+03  0.25500000000E-02 0.  1.
          2   -1    0    0  501    0  0.00000000000E+00 -0.00000000000E+00 -0.46095062858E+04  0.46095062858E+04  0.25500000000E-02 0. -1.
    8880023    1    1    2    0    0 -0.42044470603E+03 -0.55690921112E+01 -0.43411048081E+04  0.44108736013E+04  0.65864270000E+03 0. -1.
    8880022    1    1    2    0    0  0.42044470603E+03  0.55690921112E+01 -0.19189699202E+02  0.44784446316E+03  0.15294330000E+03 0.  0.
<mgrwt>
<rscale>  0 0.67974314E+03</rscale>
<asrwt>0</asrwt>
<pdfrwt beam="1">  1        2 0.70915475E+00 0.78141856E+03</pdfrwt>
<pdfrwt beam="2">  1       -2 0.38340277E-01 0.78141856E+03</pdfrwt>
<totfact> 0.69832551E-01</totfact>
</mgrwt>
</event>
<event>
 4    1  0.2665544E-007  0.1067225E+04  0.7818608E-02  0.9298456E-01
          2   -1    0    0  501    0  0.00000000000E+00  0.00000000000E+00  0.14607945873E+04  0.14607945873E+04  0.25500000000E-02 0. -1.
         -2   -1    0    0    0  501 -0.00000000000E+00 -0.00000000000E+00 -0.76429794427E+03  0.76429794428E+03  0.25500000000E-02 0.  1.
    8880023    1    1    2    0    0  0.76233100457E+03  0.35215036893E+03  0.84179825779E+03  0.13592619159E+04  0.65864270000E+03 0. -1.
    8880022    1    1    2    0    0 -0.76233100457E+03 -0.35215036893E+03 -0.14530161475E+03  0.86583061572E+03  0.15294330000E+03 0.  0.
<mgrwt>
<rscale>  0 0.10092514E+04</rscale>
<asrwt>0</asrwt>
<pdfrwt beam="1">  1        2 0.22473763E+00 0.10672247E+04</pdfrwt>
<pdfrwt beam="2">  1       -2 0.11758430E+00 0.10672247E+04</pdfrwt>
<totfact> 0.73650238E+00</totfact>
</mgrwt>
</event>
<event>
 4    1  0.2665544E-007  0.9009439E+03  0.7818608E-02  0.9524518E-01
         -2   -1    0    0    0  501 -0.00000000000E+00  0.00000000000E+00  0.83023027540E+03  0.83023027540E+03  0.25500000000E-02 0.  1.
          2   -1    0    0  501    0  0.00000000000E+00 -0.00000000000E+00 -0.14571183651E+04  0.14571183651E+04  0.25500000000E-02 0. -1.
    8880023    1    1    2    0    0 -0.61017581965E+03 -0.74666951669E+02 -0.11534503196E+04  0.14636077106E+04  0.65864270000E+03 0.  0.
    8880022    1    1    2    0    0  0.61017581965E+03  0.74666951669E+02  0.52656222991E+03  0.82374092987E+03  0.15294330000E+03 0.  0.
<mgrwt>
<rscale>  0 0.82500091E+03</rscale>
<asrwt>0</asrwt>
<pdfrwt beam="1">  1        2 0.22417206E+00 0.90094389E+03</pdfrwt>
<pdfrwt beam="2">  1       -2 0.12772773E+00 0.90094389E+03</pdfrwt>
<totfact> 0.61234283E+00</totfact>
</mgrwt>
</event>
<event>
 4    1  0.2665544E-007  0.7352076E+03  0.7818608E-02  0.9874133E-01
          2   -1    0    0  501    0  0.00000000000E+00  0.00000000000E+00  0.15139293815E+04  0.15139293815E+04  0.25500000000E-02 0. -1.
         -2   -1    0    0    0  501 -0.00000000000E+00 -0.00000000000E+00 -0.23102617982E+03  0.23102617984E+03  0.25500000000E-02 0.  1.
    8880023    1    1    2    0    0  0.32457651606E+03  0.37014911828E+02  0.11409630160E+04  0.13573234060E+04  0.65864270000E+03 0. -1.
    8880022    1    1    2    0    0 -0.32457651606E+03 -0.37014911828E+02  0.14194018565E+03  0.38763215526E+03  0.15294330000E+03 0.  0.
<mgrwt>
<rscale>  0 0.61531432E+03</rscale>
<asrwt>0</asrwt>
<pdfrwt beam="1">  1        2 0.23291222E+00 0.73520761E+03</pdfrwt>
<pdfrwt beam="2">  1       -2 0.35542489E-01 0.73520761E+03</pdfrwt>
<totfact> 0.94587164E+01</totfact>
</mgrwt>
</event>
<event>
 4    1  0.2665544E-007  0.1515030E+04  0.7818608E-02  0.8899095E-01
         -2   -1    0    0    0  501 -0.00000000000E+00  0.00000000000E+00  0.16864647150E+04  0.16864647150E+04  0.25500000000E-02 0.  1.
          2   -1    0    0  501    0  0.00000000000E+00 -0.00000000000E+00 -0.14548383461E+04  0.14548383461E+04  0.25500000000E-02 0. -1.
    8880023    1    1    2    0    0 -0.25265051430E+03  0.13407738054E+04  0.72870816167E+03  0.16811699708E+04  0.65864270000E+03 0.  1.
    8880022    1    1    2    0    0  0.25265051430E+03 -0.13407738054E+04 -0.49708179284E+03  0.14601330903E+04  0.15294330000E+03 0.  0.
<mgrwt>
<rscale>  0 0.14781789E+04</rscale>
<asrwt>0</asrwt>
<pdfrwt beam="1">  1        2 0.22382128E+00 0.15150303E+04</pdfrwt>
<pdfrwt beam="2">  1       -2 0.25945611E+00 0.15150303E+04</pdfrwt>
<totfact> 0.71118623E-01</totfact>
</mgrwt>
</event>
<event>
 4    1  0.2665544E-007  0.8286130E+03  0.7818608E-02  0.9652037E-01
         -2   -1    0    0    0  501 -0.00000000000E+00  0.00000000000E+00  0.59336885737E+03  0.59336885737E+03  0.25500000000E-02 0.  1.
          2   -1    0    0  501    0  0.00000000000E+00 -0.00000000000E+00 -0.17803876930E+04  0.17803876930E+04  0.25500000000E-02 0. -1.
    8880023    1    1    2    0    0  0.24788470239E+03  0.43742715322E+03 -0.15343658411E+04  0.17438113661E+04  0.65864270000E+03 0.  0.
    8880022    1    1    2    0    0 -0.24788470239E+03 -0.43742715322E+03  0.34734700540E+03  0.62994518430E+03  0.15294330000E+03 0.  0.
<mgrwt>
<rscale>  0 0.73945720E+03</rscale>
<asrwt>0</asrwt>
<pdfrwt beam="1">  1        2 0.27390580E+00 0.82861303E+03</pdfrwt>
<pdfrwt beam="2">  1       -2 0.91287518E-01 0.82861303E+03</pdfrwt>
<totfact> 0.92222530E+00</totfact>
</mgrwt>
</event>
<event>
 4    1  0.2665544E-007  0.1040442E+04  0.7818608E-02  0.9330460E-01
         -2   -1    0    0    0  501 -0.00000000000E+00  0.00000000000E+00  0.15214102122E+04  0.15214102122E+04  0.25500000000E-02 0.  1.
          2   -1    0    0  501    0  0.00000000000E+00 -0.00000000000E+00 -0.11532569574E+04  0.11532569574E+04  0.25500000000E-02 0. -1.
    8880023    1    1    2    0    0  0.15055109640E+03 -0.79122935676E+03 -0.75401301262E+03  0.12849339894E+04  0.65864270000E+03 0.  0.
    8880022    1    1    2    0    0 -0.15055109640E+03  0.79122935676E+03  0.11221662674E+04  0.13897331803E+04  0.15294330000E+03 0.  0.
<mgrwt>
<rscale>  0 0.98026335E+03</rscale>
<asrwt>0</asrwt>
<pdfrwt beam="1">  1        2 0.17742415E+00 0.10404421E+04</pdfrwt>
<pdfrwt beam="2">  1       -2 0.23406311E+00 0.10404421E+04</pdfrwt>
<totfact> 0.16134176E+00</totfact>
</mgrwt>
</event>
<event>
 4    1  0.2665544E-007  0.6773740E+03  0.7818608E-02  0.1010850E+00
         -2   -1    0    0    0  501 -0.00000000000E+00  0.00000000000E+00  0.75729162337E+03  0.75729162337E+03  0.25500000000E-02 0.  1.
          2   -1    0    0  501    0  0.00000000000E+00 -0.00000000000E+00 -0.83525052824E+03  0.83525052824E+03  0.25500000000E-02 0. -1.
    8880023    1    1    2    0    0  0.10084585313E+03 -0.12188304100E+03 -0.67498168248E+03  0.95626138672E+03  0.65864270000E+03 0. -1.
    8880022    1    1    2    0    0 -0.10084585313E+03  0.12188304100E+03  0.59702277761E+03  0.63628076490E+03  0.15294330000E+03 0.  0.
<mgrwt>
<rscale>  0 0.51138284E+03</rscale>
<asrwt>0</asrwt>
<pdfrwt beam="1">  1        2 0.12850008E+00 0.67737402E+03</pdfrwt>
<pdfrwt beam="2">  1       -2 0.11650640E+00 0.67737402E+03</pdfrwt>
<totfact> 0.18987474E+01</totfact>
</mgrwt>
</event>
<event>
 4    1  0.2665544E-007  0.9260859E+03  0.7818608E-02  0.9485390E-01
          2   -1    0    0  501    0  0.00000000000E+00  0.00000000000E+00  0.17390677665E+04  0.17390677665E+04  0.25500000000E-02 0. -1.
         -2   -1    0    0    0  501 -0.00000000000E+00 -0.00000000000E+00 -0.73805256126E+03  0.73805256126E+03  0.25500000000E-02 0.  1.
    8880023    1    1    2    0    0  0.49514409672E+03 -0.42267855384E+03  0.14146309544E+04  0.16908032942E+04  0.65864270000E+03 0. -1.
    8880022    1    1    2    0    0 -0.49514409672E+03  0.42267855384E+03 -0.41361574909E+03  0.78631703359E+03  0.15294330000E+03 0.  0.
<mgrwt>
<rscale>  0 0.85369585E+03</rscale>
<asrwt>0</asrwt>
<pdfrwt beam="1">  1        2 0.26754889E+00 0.92608587E+03</pdfrwt>
<pdfrwt beam="2">  1       -2 0.11354655E+00 0.92608587E+03</pdfrwt>
<totfact> 0.57036853E+00</totfact>
</mgrwt>
</event>
<event>
 4    1  0.2665544E-007  0.7663642E+03  0.7818608E-02  0.9788901E-01
          2   -1    0    0  501    0  0.00000000000E+00  0.00000000000E+00  0.29388791819E+03  0.29388791821E+03  0.25500000000E-02 0. -1.
         -2   -1    0    0    0  501 -0.00000000000E+00 -0.00000000000E+00 -0.22478680477E+04  0.22478680477E+04  0.25500000000E-02 0.  1.
    8880023    1    1    2    0    0 -0.24629478801E+03  0.30470098540E+03 -0.28026401561E+03  0.81600363836E+03  0.65864270000E+03 0.  0.
    8880022    1    1    2    0    0  0.24629478801E+03 -0.30470098540E+03 -0.16737161139E+04  0.17257523276E+04  0.15294330000E+03 0.  0.
<mgrwt>
<rscale>  0 0.65961569E+03</rscale>
<asrwt>0</asrwt>
<pdfrwt beam="1">  1        2 0.45213527E-01 0.76636416E+03</pdfrwt>
<pdfrwt beam="2">  1       -2 0.34582584E+00 0.76636416E+03</pdfrwt>
<totfact> 0.19467845E+00</totfact>
</mgrwt>
</event>
<event>
 4    1  0.2665544E-007  0.7118483E+03  0.7818608E-02  0.9951200E-01
         -2   -1    0    0    0  501 -0.00000000000E+00  0.00000000000E+00  0.36926159014E+03  0.36926159015E+03  0.25500000000E-02 0.  1.
          2   -1    0    0  501    0  0.00000000000E+00 -0.00000000000E+00 -0.19066444466E+04  0.19066444466E+04  0.25500000000E-02 0. -1.
    8880023    1    1    2    0    0  0.16605009300E+03  0.21294404164E+03 -0.17569962689E+04  0.18957225255E+04  0.65864270000E+03 0. -1.
    8880022    1    1    2    0    0 -0.16605009300E+03 -0.21294404164E+03  0.21961341251E+03  0.38018351125E+03  0.15294330000E+03 0.  0.
<mgrwt>
<rscale>  0 0.57842786E+03</rscale>
<asrwt>0</asrwt>
<pdfrwt beam="1">  1        2 0.29332991E+00 0.71184830E+03</pdfrwt>
<pdfrwt beam="2">  1       -2 0.56809476E-01 0.71184830E+03</pdfrwt>
<totfact> 0.22688343E+01</totfact>
</mgrwt>
</event>
<event>
 4    1  0.2665544E-007  0.1505552E+04  0.7818608E-02  0.8905726E-01
          2   -1    0    0  501    0  0.00000000000E+00  0.00000000000E+00  0.18078057371E+04  0.18078057372E+04  0.25500000000E-02 0. -1.
         -2   -1    0    0    0  501 -0.00000000000E+00 -0.00000000000E+00 -0.17826139690E+04  0.17826139690E+04  0.25500000000E-02 0.  1.
    8880023    1    1    2    0    0  0.13420465789E+04  0.17828662641E+03  0.10921020309E+04  0.18599387606E+04  0.65864270000E+03 0.  0.
    8880022    1    1    2    0    0 -0.13420465789E+04 -0.17828662641E+03 -0.10669102627E+04  0.17304809455E+04  0.15294330000E+03 0.  0.
<mgrwt>
<rscale>  0 0.14684250E+04</rscale>
<asrwt>0</asrwt>
<pdfrwt beam="1">  1        2 0.27812396E+00 0.15055515E+04</pdfrwt>
<pdfrwt beam="2">  1       -2 0.27424830E+00 0.15055515E+04</pdfrwt>
<totfact> 0.36574812E-01</totfact>
</mgrwt>
</event>
<event>
 4    1  0.2665544E-007  0.8111752E+03  0.7818608E-02  0.9687134E-01
          2   -1    0    0  501    0  0.00000000000E+00  0.00000000000E+00  0.20909227315E+04  0.20909227315E+04  0.25500000000E-02 0. -1.
         -2   -1    0    0    0  501 -0.00000000000E+00 -0.00000000000E+00 -0.39603057231E+03  0.39603057231E+03  0.25500000000E-02 0.  1.
    8880023    1    1    2    0    0  0.71376611785E+02  0.46808151852E+03  0.10128835553E+03  0.81747444359E+03  0.65864270000E+03 0.  1.
    8880022    1    1    2    0    0 -0.71376611785E+02 -0.46808151852E+03  0.15936038037E+04  0.16694788602E+04  0.15294330000E+03 0.  0.
<mgrwt>
<rscale>  0 0.71788002E+03</rscale>
<asrwt>0</asrwt>
<pdfrwt beam="1">  1        2 0.32168043E+00 0.81117516E+03</pdfrwt>
<pdfrwt beam="2">  1       -2 0.60927779E-01 0.81117516E+03</pdfrwt>
<totfact> 0.15320823E+01</totfact>
</mgrwt>
</event>
<event>
 4    1  0.2665544E-007  0.1198588E+04  0.7818608E-02  0.9158496E-01
         -2   -1    0    0    0  501 -0.00000000000E+00  0.00000000000E+00  0.12694651712E+04  0.12694651712E+04  0.25500000000E-02 0.  1.
          2   -1    0    0  501    0  0.00000000000E+00 -0.00000000000E+00 -0.13088380062E+04  0.13088380062E+04  0.25500000000E-02 0. -1.
    8880023    1    1    2    0    0  0.14645857328E+03 -0.99063226289E+03 -0.68162817563E+03  0.13788508150E+04  0.65864270000E+03 0.  0.
    8880022    1    1    2    0    0 -0.14645857328E+03  0.99063226289E+03  0.64225534064E+03  0.11994523624E+04  0.15294330000E+03 0.  0.
<mgrwt>
<rscale>  0 0.11492276E+04</rscale>
<asrwt>0</asrwt>
<pdfrwt beam="1">  1        2 0.20135969E+00 0.11985878E+04</pdfrwt>
<pdfrwt beam="2">  1       -2 0.19530233E+00 0.11985878E+04</pdfrwt>
<totfact> 0.22653695E+00</totfact>
</mgrwt>
</event>
<event>
 4    1  0.2665544E-007  0.9038835E+03  0.7818608E-02  0.9519826E-01
          2   -1    0    0  501    0  0.00000000000E+00  0.00000000000E+00  0.19182191819E+04  0.19182191819E+04  0.25500000000E-02 0. -1.
         -2   -1    0    0    0  501 -0.00000000000E+00 -0.00000000000E+00 -0.78004838750E+03  0.78004838750E+03  0.25500000000E-02 0.  1.
    8880023    1    1    2    0    0 -0.20996043643E+03  0.58233310389E+03  0.16495059058E+04  0.18809240198E+04  0.65864270000E+03 0. -1.
    8880022    1    1    2    0    0  0.20996043643E+03 -0.58233310389E+03 -0.51133511146E+03  0.81734354954E+03  0.15294330000E+03 0.  0.
<mgrwt>
<rscale>  0 0.82837794E+03</rscale>
<asrwt>0</asrwt>
<pdfrwt beam="1">  1        2 0.29511064E+00 0.90388353E+03</pdfrwt>
<pdfrwt beam="2">  1       -2 0.12000745E+00 0.90388353E+03</pdfrwt>
<totfact> 0.39802820E+00</totfact>
</mgrwt>
</event>
<event>
 4    1  0.2665544E-007  0.7125689E+03  0.7818608E-02  0.9948583E-01
         -2   -1    0    0    0  501 -0.00000000000E+00  0.00000000000E+00  0.56018710373E+03  0.56018710373E+03  0.25500000000E-02 0.  1.
          2   -1    0    0  501    0  0.00000000000E+00 -0.00000000000E+00 -0.15851927375E+04  0.15851927375E+04  0.25500000000E-02 0. -1.
    8880023    1    1    2    0    0 -0.14043822885E+03 -0.23285460831E+03  0.30804820750E+03  0.77630410868E+03  0.65864270000E+03 0.  0.
    8880022    1    1    2    0    0  0.14043822885E+03  0.23285460831E+03 -0.13330538413E+04  0.13690757326E+04  0.15294330000E+03 0. -1.
<mgrwt>
<rscale>  0 0.57963448E+03</rscale>
<asrwt>0</asrwt>
<pdfrwt beam="1">  1        2 0.24387580E+00 0.71256885E+03</pdfrwt>
<pdfrwt beam="2">  1       -2 0.86182632E-01 0.71256885E+03</pdfrwt>
<totfact> 0.13685089E+01</totfact>
</mgrwt>
</event>
<event>
 4    1  0.2665544E-007  0.7217577E+03  0.7818608E-02  0.9916683E-01
         -2   -1    0    0    0  501 -0.00000000000E+00  0.00000000000E+00  0.17470836704E+03  0.17470836705E+03  0.25500000000E-02 0.  1.
          2   -1    0    0  501    0  0.00000000000E+00 -0.00000000000E+00 -0.34400061659E+04  0.34400061659E+04  0.25500000000E-02 0. -1.
    8880023    1    1    2    0    0  0.27393324282E+03 -0.10992963643E+03 -0.31942381872E+04  0.32747659076E+04  0.65864270000E+03 0. -1.
    8880022    1    1    2    0    0 -0.27393324282E+03  0.10992963643E+03 -0.71059611678E+02  0.33994862541E+03  0.15294330000E+03 0.  0.
<mgrwt>
<rscale>  0 0.59459535E+03</rscale>
<asrwt>0</asrwt>
<pdfrwt beam="1">  1        2 0.52923167E+00 0.72175768E+03</pdfrwt>
<pdfrwt beam="2">  1       -2 0.26878213E-01 0.72175768E+03</pdfrwt>
<totfact> 0.12167109E+01</totfact>
</mgrwt>
</event>
<event>
 4    1  0.2665544E-007  0.7304684E+03  0.7818608E-02  0.9888636E-01
          2   -1    0    0  501    0  0.00000000000E+00  0.00000000000E+00  0.11284917791E+04  0.11284917791E+04  0.25500000000E-02 0. -1.
         -2   -1    0    0    0  501 -0.00000000000E+00 -0.00000000000E+00 -0.12025007980E+04  0.12025007980E+04  0.25500000000E-02 0.  1.
    8880023    1    1    2    0    0  0.29854047242E+03  0.10318622838E+03  0.97874619667E+03  0.12212813497E+04  0.65864270000E+03 0. -1.
    8880022    1    1    2    0    0 -0.29854047242E+03 -0.10318622838E+03 -0.10527552155E+04  0.11097112274E+04  0.15294330000E+03 0.  0.
<mgrwt>
<rscale>  0 0.60815205E+03</rscale>
<asrwt>0</asrwt>
<pdfrwt beam="1">  1        2 0.17361412E+00 0.73046836E+03</pdfrwt>
<pdfrwt beam="2">  1       -2 0.18500012E+00 0.73046836E+03</pdfrwt>
<totfact> 0.35999595E+00</totfact>
</mgrwt>
</event>
<event>
 4    1  0.2665544E-007  0.1241154E+04  0.7818608E-02  0.9118120E-01
          2   -1    0    0  501    0  0.00000000000E+00  0.00000000000E+00  0.10679413222E+04  0.10679413222E+04  0.25500000000E-02 0. -1.
         -2   -1    0    0    0  501 -0.00000000000E+00 -0.00000000000E+00 -0.13486137463E+04  0.13486137463E+04  0.25500000000E-02 0.  1.
    8880023    1    1    2    0    0  0.73420301797E+03  0.75339196307E+03  0.18705476965E+03  0.12551705919E+04  0.65864270000E+03 0.  0.
    8880022    1    1    2    0    0 -0.73420301797E+03 -0.75339196307E+03 -0.46772719379E+03  0.11613844766E+04  0.15294330000E+03 0.  0.
<mgrwt>
<rscale>  0 0.11940054E+04</rscale>
<asrwt>0</asrwt>
<pdfrwt beam="1">  1        2 0.16429866E+00 0.12411542E+04</pdfrwt>
<pdfrwt beam="2">  1       -2 0.20747904E+00 0.12411542E+04</pdfrwt>
<totfact> 0.26255125E+00</totfact>
</mgrwt>
</event>
<event>
 4    1  0.2665544E-007  0.8334103E+03  0.7818608E-02  0.9642733E-01
          2   -1    0    0  501    0  0.00000000000E+00  0.00000000000E+00  0.11968675840E+04  0.11968675840E+04  0.25500000000E-02 0. -1.
         -2   -1    0    0    0  501 -0.00000000000E+00 -0.00000000000E+00 -0.97570561674E+03  0.97570561674E+03  0.25500000000E-02 0.  1.
    8880023    1    1    2    0    0  0.20644079192E+03  0.46705961597E+03  0.95374777938E+03  0.12665731398E+04  0.65864270000E+03 0.  0.
    8880022    1    1    2    0    0 -0.20644079192E+03 -0.46705961597E+03 -0.73258581210E+03  0.90600006100E+03  0.15294330000E+03 0.  1.
<mgrwt>
<rscale>  0 0.74531247E+03</rscale>
<asrwt>0</asrwt>
<pdfrwt beam="1">  1        2 0.18413347E+00 0.83341028E+03</pdfrwt>
<pdfrwt beam="2">  1       -2 0.15010856E+00 0.83341028E+03</pdfrwt>
<totfact> 0.57464852E+00</totfact>
</mgrwt>
</event>
<event>
 4    1  0.2665544E-007  0.6717925E+03  0.7818608E-02  0.1014409E+00
         -2   -1    0    0    0  501 -0.00000000000E+00  0.00000000000E+00  0.12757375358E+04  0.12757375358E+04  0.25500000000E-02 0.  1.
          2   -1    0    0  501    0  0.00000000000E+00 -0.00000000000E+00 -0.43512895859E+03  0.43512895860E+03  0.25500000000E-02 0. -1.
    8880023    1    1    2    0    0 -0.63278135661E+02  0.11614994186E+03 -0.15954463587E+03  0.69047782625E+03  0.65864270000E+03 0. -1.
    8880022    1    1    2    0    0  0.63278135661E+02 -0.11614994186E+03  0.10001532131E+04  0.10203886682E+04  0.15294330000E+03 0.  0.
<mgrwt>
<rscale>  0 0.49759265E+03</rscale>
<asrwt>0</asrwt>
<pdfrwt beam="1">  1        2 0.66942916E-01 0.67179248E+03</pdfrwt>
<pdfrwt beam="2">  1       -2 0.19626731E+00 0.67179248E+03</pdfrwt>
<totfact> 0.10448042E+01</totfact>
</mgrwt>
</event>
<event>
 4    1  0.2665544E-007  0.6830342E+03  0.7818608E-02  0.1007657E+00
          2   -1    0    0  501    0  0.00000000000E+00  0.00000000000E+00  0.19137726312E+04  0.19137726312E+04  0.25500000000E-02 0. -1.
         -2   -1    0    0    0  501 -0.00000000000E+00 -0.00000000000E+00 -0.86451723812E+03  0.86451723812E+03  0.25500000000E-02 0.  1.
    8880023    1    1    2    0    0 -0.91173362919E+02 -0.15624638457E+03  0.18347957811E+04  0.19578077738E+04  0.65864270000E+03 0. -1.
    8880022    1    1    2    0    0  0.91173362919E+02  0.15624638457E+03 -0.78554038800E+03  0.82048209548E+03  0.15294330000E+03 0.  0.
<mgrwt>
<rscale>  0 0.52416595E+03</rscale>
<asrwt>0</asrwt>
<pdfrwt beam="1">  1        2 0.29442656E+00 0.68303420E+03</pdfrwt>
<pdfrwt beam="2">  1       -2 0.13300265E+00 0.68303420E+03</pdfrwt>
<totfact> 0.32026293E+00</totfact>
</mgrwt>
</event>
<event>
 4    1  0.2665544E-007  0.1236119E+04  0.7818608E-02  0.9122788E-01
         -2   -1    0    0    0  501 -0.00000000000E+00  0.00000000000E+00  0.63670069125E+03  0.63670069126E+03  0.25500000000E-02 0.  1.
          2   -1    0    0  501    0  0.00000000000E+00 -0.00000000000E+00 -0.24211350958E+04  0.24211350958E+04  0.25500000000E-02 0. -1.
    8880023    1    1    2    0    0  0.85664084692E+03  0.60028802438E+03 -0.15364801184E+04  0.19719940703E+04  0.65864270000E+03 0. -1.
    8880022    1    1    2    0    0 -0.85664084692E+03 -0.60028802438E+03 -0.24795428616E+03  0.10858417168E+04  0.15294330000E+03 0.  0.
<mgrwt>
<rscale>  0 0.11887199E+04</rscale>
<asrwt>0</asrwt>
<pdfrwt beam="1">  1        2 0.37248232E+00 0.12361187E+04</pdfrwt>
<pdfrwt beam="2">  1       -2 0.97953954E-01 0.12361187E+04</pdfrwt>
<totfact> 0.32821625E+00</totfact>
</mgrwt>
</event>
<event>
 4    1  0.2665544E-007  0.6958499E+03  0.7818608E-02  0.1001487E+00
          2   -1    0    0  501    0  0.00000000000E+00  0.00000000000E+00  0.32860651454E+04  0.32860651454E+04  0.25500000000E-02 0. -1.
         -2   -1    0    0    0  501 -0.00000000000E+00 -0.00000000000E+00 -0.25669369166E+03  0.25669369167E+03  0.25500000000E-02 0.  1.
    8880023    1    1    2    0    0 -0.19211492192E+03  0.11614092230E+03  0.31639803159E+04  0.32395954227E+04  0.65864270000E+03 0. -1.
    8880022    1    1    2    0    0  0.19211492192E+03 -0.11614092230E+03 -0.13460886213E+03  0.30316341441E+03  0.15294330000E+03 0.  0.
<mgrwt>
<rscale>  0 0.55002859E+03</rscale>
<asrwt>0</asrwt>
<pdfrwt beam="1">  1        2 0.50554852E+00 0.69584989E+03</pdfrwt>
<pdfrwt beam="2">  1       -2 0.39491335E-01 0.69584989E+03</pdfrwt>
<totfact> 0.74927506E+00</totfact>
</mgrwt>
</event>
<event>
 4    1  0.2665544E-007  0.9054874E+03  0.7818608E-02  0.9517279E-01
         -2   -1    0    0    0  501 -0.00000000000E+00  0.00000000000E+00  0.38317029779E+03  0.38317029780E+03  0.25500000000E-02 0.  1.
          2   -1    0    0  501    0  0.00000000000E+00 -0.00000000000E+00 -0.24964687498E+04  0.24964687498E+04  0.25500000000E-02 0. -1.
    8880023    1    1    2    0    0 -0.37588507286E+03  0.49478039520E+03 -0.20444941710E+04  0.22360375330E+04  0.65864270000E+03 0.  0.
    8880022    1    1    2    0    0  0.37588507286E+03 -0.49478039520E+03 -0.68804280992E+02  0.64360151458E+03  0.15294330000E+03 0.  0.
<mgrwt>
<rscale>  0 0.83021786E+03</rscale>
<asrwt>0</asrwt>
<pdfrwt beam="1">  1        2 0.38407211E+00 0.90548740E+03</pdfrwt>
<pdfrwt beam="2">  1       -2 0.58949278E-01 0.90548740E+03</pdfrwt>
<totfact> 0.96308204E+00</totfact>
</mgrwt>
</event>
<event>
 4    1  0.2665544E-007  0.7359471E+03  0.7818608E-02  0.9871914E-01
          2   -1    0    0  501    0  0.00000000000E+00  0.00000000000E+00  0.13924176167E+04  0.13924176167E+04  0.25500000000E-02 0. -1.
         -2   -1    0    0    0  501 -0.00000000000E+00 -0.00000000000E+00 -0.53431475624E+03  0.53431475624E+03  0.25500000000E-02 0.  1.
    8880023    1    1    2    0    0  0.31753473895E+03 -0.83543698784E+02  0.12135360031E+04  0.14192560365E+04  0.65864270000E+03 0. -1.
    8880022    1    1    2    0    0 -0.31753473895E+03  0.83543698784E+02 -0.35543314270E+03  0.50747633639E+03  0.15294330000E+03 0.  0.
<mgrwt>
<rscale>  0 0.61641962E+03</rscale>
<asrwt>0</asrwt>
<pdfrwt beam="1">  1        2 0.21421809E+00 0.73594705E+03</pdfrwt>
<pdfrwt beam="2">  1       -2 0.82202271E-01 0.73594705E+03</pdfrwt>
<totfact> 0.19455652E+01</totfact>
</mgrwt>
</event>
<event>
 4    1  0.2665544E-007  0.6823027E+03  0.7818608E-02  0.1008050E+00
         -2   -1    0    0    0  501 -0.00000000000E+00  0.00000000000E+00  0.29322094565E+03  0.29322094566E+03  0.25500000000E-02 0.  1.
          2   -1    0    0  501    0  0.00000000000E+00 -0.00000000000E+00 -0.19370678683E+04  0.19370678683E+04  0.25500000000E-02 0. -1.
    8880023    1    1    2    0    0 -0.17596811314E+03 -0.27604028647E+02 -0.18154857988E+04  0.19394653003E+04  0.65864270000E+03 0. -1.
    8880022    1    1    2    0    0  0.17596811314E+03  0.27604028647E+02  0.17163887618E+03  0.29082351361E+03  0.15294330000E+03 0.  0.
<mgrwt>
<rscale>  0 0.52257051E+03</rscale>
<asrwt>0</asrwt>
<pdfrwt beam="1">  1        2 0.29801043E+00 0.68230269E+03</pdfrwt>
<pdfrwt beam="2">  1       -2 0.45110916E-01 0.68230269E+03</pdfrwt>
<totfact> 0.35093799E+01</totfact>
</mgrwt>
</event>
<event>
 4    1  0.2665544E-007  0.9407771E+03  0.7818608E-02  0.9463510E-01
          2   -1    0    0  501    0  0.00000000000E+00  0.00000000000E+00  0.12364853282E+04  0.12364853282E+04  0.25500000000E-02 0. -1.
         -2   -1    0    0    0  501 -0.00000000000E+00 -0.00000000000E+00 -0.99727602123E+03  0.99727602123E+03  0.25500000000E-02 0.  1.
    8880023    1    1    2    0    0  0.30235168862E+03 -0.59986224569E+03  0.88342659503E+03  0.12905440761E+04  0.65864270000E+03 0.  0.
    8880022    1    1    2    0    0 -0.30235168862E+03  0.59986224569E+03 -0.64421728805E+03  0.94321727330E+03  0.15294330000E+03 0.  0.
<mgrwt>
<rscale>  0 0.87028382E+03</rscale>
<asrwt>0</asrwt>
<pdfrwt beam="1">  1        2 0.19022851E+00 0.94077705E+03</pdfrwt>
<pdfrwt beam="2">  1       -2 0.15342708E+00 0.94077705E+03</pdfrwt>
<totfact> 0.50718179E+00</totfact>
</mgrwt>
</event>
<event>
 4    1  0.2665544E-007  0.1313091E+04  0.7818608E-02  0.9054337E-01
         -2   -1    0    0    0  501 -0.00000000000E+00  0.00000000000E+00  0.78784016248E+03  0.78784016248E+03  0.25500000000E-02 0.  1.
          2   -1    0    0  501    0  0.00000000000E+00 -0.00000000000E+00 -0.22461576602E+04  0.22461576602E+04  0.25500000000E-02 0. -1.
    8880023    1    1    2    0    0  0.90386805730E+03  0.68805539121E+03 -0.13490584181E+04  0.18825956836E+04  0.65864270000E+03 0. -1.
    8880022    1    1    2    0    0 -0.90386805730E+03 -0.68805539121E+03 -0.10925907967E+03  0.11514021391E+04  0.15294330000E+03 0.  0.
<mgrwt>
<rscale>  0 0.12692198E+04</rscale>
<asrwt>0</asrwt>
<pdfrwt beam="1">  1        2 0.34556271E+00 0.13130910E+04</pdfrwt>
<pdfrwt beam="2">  1       -2 0.12120618E+00 0.13130910E+04</pdfrwt>
<totfact> 0.24336462E+00</totfact>
</mgrwt>
</event>
<event>
 4    1  0.2665544E-007  0.2799707E+04  0.7818608E-02  0.8309207E-01
          2   -1    0    0  501    0  0.00000000000E+00  0.00000000000E+00  0.29903279755E+04  0.29903279755E+04  0.25500000000E-02 0. -1.
         -2   -1    0    0    0  501 -0.00000000000E+00 -0.00000000000E+00 -0.26395531270E+04  0.26395531270E+04  0.25500000000E-02 0.  1.
    8880023    1    1    2    0    0 -0.22590395028E+04  0.15170004003E+04 -0.33451535298E+03  0.28196206159E+04  0.65864270000E+03 0.  0.
    8880022    1    1    2    0    0  0.22590395028E+04 -0.15170004003E+04  0.68529020149E+03  0.28102604867E+04  0.15294330000E+03 0.  0.
<mgrwt>
<rscale>  0 0.27809489E+04</rscale>
<asrwt>0</asrwt>
<pdfrwt beam="1">  1        2 0.46005046E+00 0.27997071E+04</pdfrwt>
<pdfrwt beam="2">  1       -2 0.40608510E+00 0.27997071E+04</pdfrwt>
<totfact> 0.97123482E-03</totfact>
</mgrwt>
</event>
<event>
 4    1  0.2665544E-007  0.1291485E+04  0.7818608E-02  0.9072948E-01
          2   -1    0    0  501    0  0.00000000000E+00  0.00000000000E+00  0.10395163326E+04  0.10395163326E+04  0.25500000000E-02 0. -1.
         -2   -1    0    0    0  501 -0.00000000000E+00 -0.00000000000E+00 -0.14521485209E+04  0.14521485209E+04  0.25500000000E-02 0.  1.
    8880023    1    1    2    0    0 -0.55957319854E+02 -0.11095006617E+04  0.14817685010E+02  0.12915698626E+04  0.65864270000E+03 0.  0.
    8880022    1    1    2    0    0  0.55957319854E+02  0.11095006617E+04 -0.42744987333E+03  0.12000949909E+04  0.15294330000E+03 0.  0.
<mgrwt>
<rscale>  0 0.12466832E+04</rscale>
<asrwt>0</asrwt>
<pdfrwt beam="1">  1        2 0.15992559E+00 0.12914849E+04</pdfrwt>
<pdfrwt beam="2">  1       -2 0.22340746E+00 0.12914849E+04</pdfrwt>
<totfact> 0.21553599E+00</totfact>
</mgrwt>
</event>
<event>
 4    1  0.2665544E-007  0.1032629E+04  0.7818608E-02  0.9340061E-01
         -2   -1    0    0    0  501 -0.00000000000E+00  0.00000000000E+00  0.14123404266E+04  0.14123404266E+04  0.25500000000E-02 0.  1.
          2   -1    0    0  501    0  0.00000000000E+00 -0.00000000000E+00 -0.91570142371E+03  0.91570142371E+03  0.25500000000E-02 0. -1.
    8880023    1    1    2    0    0  0.79401187262E+03  0.45359352551E+02 -0.41117238878E+03  0.11114788636E+04  0.65864270000E+03 0.  0.
    8880022    1    1    2    0    0 -0.79401187262E+03 -0.45359352551E+02  0.90781139167E+03  0.12165629867E+04  0.15294330000E+03 0.  0.
<mgrwt>
<rscale>  0 0.97176947E+03</rscale>
<asrwt>0</asrwt>
<pdfrwt beam="1">  1        2 0.14087714E+00 0.10326289E+04</pdfrwt>
<pdfrwt beam="2">  1       -2 0.21728314E+00 0.10326289E+04</pdfrwt>
<totfact> 0.29135313E+00</totfact>
</mgrwt>
</event>
<event>
 4    1  0.2665544E-007  0.8562648E+03  0.7818608E-02  0.9600242E-01
          2   -1    0    0  501    0  0.00000000000E+00  0.00000000000E+00  0.11190403371E+04  0.11190403371E+04  0.25500000000E-02 0. -1.
         -2   -1    0    0    0  501 -0.00000000000E+00 -0.00000000000E+00 -0.16139601134E+04  0.16139601134E+04  0.25500000000E-02 0.  1.
    8880023    1    1    2    0    0  0.53502256566E+03  0.11458653685E+03  0.89063972934E+03  0.12354871727E+04  0.65864270000E+03 0. -1.
    8880022    1    1    2    0    0 -0.53502256566E+03 -0.11458653685E+03 -0.13855595057E+04  0.14975132778E+04  0.15294330000E+03 0.  0.
<mgrwt>
<rscale>  0 0.77280134E+03</rscale>
<asrwt>0</asrwt>
<pdfrwt beam="1">  1        2 0.17216005E+00 0.85626481E+03</pdfrwt>
<pdfrwt beam="2">  1       -2 0.24830156E+00 0.85626481E+03</pdfrwt>
<totfact> 0.14199255E+00</totfact>
</mgrwt>
</event>
<event>
 4    1  0.2665544E-007  0.7278732E+03  0.7818608E-02  0.9896794E-01
         -2   -1    0    0    0  501 -0.00000000000E+00  0.00000000000E+00  0.10084921119E+04  0.10084921119E+04  0.25500000000E-02 0.  1.
          2   -1    0    0  501    0  0.00000000000E+00 -0.00000000000E+00 -0.99757181494E+03  0.99757181494E+03  0.25500000000E-02 0. -1.
    8880023    1    1    2    0    0  0.50577517618E+02  0.30566507520E+03 -0.82581116537E+03  0.11008013039E+04  0.65864270000E+03 0.  0.
    8880022    1    1    2    0    0 -0.50577517618E+02 -0.30566507520E+03  0.83673146228E+03  0.90526262293E+03  0.15294330000E+03 0.  0.
<mgrwt>
<rscale>  0 0.60416930E+03</rscale>
<asrwt>0</asrwt>
<pdfrwt beam="1">  1        2 0.15347259E+00 0.72787322E+03</pdfrwt>
<pdfrwt beam="2">  1       -2 0.15515263E+00 0.72787322E+03</pdfrwt>
<totfact> 0.70717738E+00</totfact>
</mgrwt>
</event>
<event>
 4    1  0.2665544E-007  0.6875746E+03  0.7818608E-02  0.1005327E+00
         -2   -1    0    0    0  501 -0.00000000000E+00  0.00000000000E+00  0.49548997951E+03  0.49548997951E+03  0.25500000000E-02 0.  1.
          2   -1    0    0  501    0  0.00000000000E+00 -0.00000000000E+00 -0.94451782343E+03  0.94451782344E+03  0.25500000000E-02 0. -1.
    8880023    1    1    2    0    0  0.11892465611E+03  0.15749762446E+03 -0.77068462874E+03  0.10328182700E+04  0.65864270000E+03 0. -1.
    8880022    1    1    2    0    0 -0.11892465611E+03 -0.15749762446E+03  0.32165678481E+03  0.40718953298E+03  0.15294330000E+03 0.  0.
<mgrwt>
<rscale>  0 0.53374756E+03</rscale>
<asrwt>0</asrwt>
<pdfrwt beam="1">  1        2 0.14531043E+00 0.68757456E+03</pdfrwt>
<pdfrwt beam="2">  1       -2 0.76229228E-01 0.68757456E+03</pdfrwt>
<totfact> 0.43048304E+01</totfact>
</mgrwt>
</event>
<event>
 4    1  0.2665544E-007  0.1116589E+04  0.7818608E-02  0.9242808E-01
         -2   -1    0    0    0  501 -0.00000000000E+00  0.00000000000E+00  0.66915026970E+03  0.66915026971E+03  0.25500000000E-02 0.  1.
          2   -1    0    0  501    0  0.00000000000E+00 -0.00000000000E+00 -0.16322938799E+04  0.16322938799E+04  0.25500000000E-02 0. -1.
    8880023    1    1    2    0    0  0.59791717830E+03  0.67487445887E+03 -0.25637351654E+03  0.11456430830E+04  0.65864270000E+03 0. -1.
    8880022    1    1    2    0    0 -0.59791717830E+03 -0.67487445887E+03 -0.70677009369E+03  0.11558010667E+04  0.15294330000E+03 0.  0.
<mgrwt>
<rscale>  0 0.10622301E+04</rscale>
<asrwt>0</asrwt>
<pdfrwt beam="1">  1        2 0.25112213E+00 0.11165889E+04</pdfrwt>
<pdfrwt beam="2">  1       -2 0.10294620E+00 0.11165889E+04</pdfrwt>
<totfact> 0.81188594E+00</totfact>
</mgrwt>
</event>
<event>
 4    1  0.2665544E-007  0.6701250E+03  0.7818608E-02  0.1015573E+00
          2   -1    0    0  501    0  0.00000000000E+00  0.00000000000E+00  0.16949656285E+04  0.16949656285E+04  0.25500000000E-02 0. -1.
         -2   -1    0    0    0  501 -0.00000000000E+00 -0.00000000000E+00 -0.20075145083E+03  0.20075145085E+03  0.25500000000E-02 0.  1.
    8880023    1    1    2    0    0  0.46806691310E+02 -0.11430841591E+03  0.15522603235E+04  0.16907334498E+04  0.65864270000E+03 0. -1.
    8880022    1    1    2    0    0 -0.46806691310E+02  0.11430841591E+03 -0.58046145824E+02  0.20498362949E+03  0.15294330000E+03 0.  0.
<mgrwt>
<rscale>  0 0.49318407E+03</rscale>
<asrwt>0</asrwt>
<pdfrwt beam="1">  1        2 0.26076395E+00 0.67012498E+03</pdfrwt>
<pdfrwt beam="2">  1       -2 0.30884838E-01 0.67012498E+03</pdfrwt>
<totfact> 0.98652457E+01</totfact>
</mgrwt>
</event>
<event>
 4    1  0.2665544E-007  0.7805646E+03  0.7818608E-02  0.9754512E-01
          2   -1    0    0  501    0  0.00000000000E+00  0.00000000000E+00  0.12799382960E+04  0.12799382960E+04  0.25500000000E-02 0. -1.
         -2   -1    0    0    0  501 -0.00000000000E+00 -0.00000000000E+00 -0.70159662128E+03  0.70159662128E+03  0.25500000000E-02 0.  1.
    8880023    1    1    2    0    0  0.41474150468E+03 -0.58825564421E+02  0.10656741710E+04  0.13209627579E+04  0.65864270000E+03 0.  0.
    8880022    1    1    2    0    0 -0.41474150468E+03  0.58825564421E+02 -0.48733249632E+03  0.66057215936E+03  0.15294330000E+03 0.  0.
<mgrwt>
<rscale>  0 0.67861867E+03</rscale>
<asrwt>0</asrwt>
<pdfrwt beam="1">  1        2 0.19691358E+00 0.78056465E+03</pdfrwt>
<pdfrwt beam="2">  1       -2 0.10793794E+00 0.78056465E+03</pdfrwt>
<totfact> 0.11880523E+01</totfact>
</mgrwt>
</event>
<event>
 4    1  0.2665544E-007  0.1610602E+04  0.7818608E-02  0.8835243E-01
         -2   -1    0    0    0  501 -0.00000000000E+00  0.00000000000E+00  0.16772233473E+04  0.16772233473E+04  0.25500000000E-02 0.  1.
          2   -1    0    0  501    0  0.00000000000E+00 -0.00000000000E+00 -0.23314400023E+04  0.23314400023E+04  0.25500000000E-02 0. -1.
    8880023    1    1    2    0    0 -0.35826668268E+03  0.14254375970E+04 -0.15870574477E+04  0.22611476969E+04  0.65864270000E+03 0.  0.
    8880022    1    1    2    0    0  0.35826668268E+03 -0.14254375970E+04  0.93284079263E+03  0.17475156527E+04  0.15294330000E+03 0.  0.
<mgrwt>
<rscale>  0 0.15762976E+04</rscale>
<asrwt>0</asrwt>
<pdfrwt beam="1">  1        2 0.35868308E+00 0.16106016E+04</pdfrwt>
<pdfrwt beam="2">  1       -2 0.25803436E+00 0.16106016E+04</pdfrwt>
<totfact> 0.23097906E-01</totfact>
</mgrwt>
</event>
<event>
 4    1  0.2665544E-007  0.1133690E+04  0.7818608E-02  0.9224442E-01
          2   -1    0    0  501    0  0.00000000000E+00  0.00000000000E+00  0.11552116450E+04  0.11552116450E+04  0.25500000000E-02 0. -1.
         -2   -1    0    0    0  501 -0.00000000000E+00 -0.00000000000E+00 -0.16442763665E+04  0.16442763665E+04  0.25500000000E-02 0.  1.
    8880023    1    1    2    0    0  0.86604039986E+03 -0.31845952554E+03  0.66473197668E+03  0.13141998519E+04  0.65864270000E+03 0. -1.
    8880022    1    1    2    0    0 -0.86604039986E+03  0.31845952554E+03 -0.11537966981E+04  0.14852881597E+04  0.15294330000E+03 0.  0.
<mgrwt>
<rscale>  0 0.10804667E+04</rscale>
<asrwt>0</asrwt>
<pdfrwt beam="1">  1        2 0.17772487E+00 0.11336898E+04</pdfrwt>
<pdfrwt beam="2">  1       -2 0.25296559E+00 0.11336898E+04</pdfrwt>
<totfact> 0.12178068E+00</totfact>
</mgrwt>
</event>
<event>
 4    1  0.2665544E-007  0.6638467E+03  0.7818608E-02  0.1020521E+00
          2   -1    0    0  501    0  0.00000000000E+00  0.00000000000E+00  0.92590855437E+03  0.92590855437E+03  0.25500000000E-02 0. -1.
         -2   -1    0    0    0  501 -0.00000000000E+00 -0.00000000000E+00 -0.27864339409E+04  0.27864339409E+04  0.25500000000E-02 0.  1.
    8880023    1    1    2    0    0  0.30603286042E+02 -0.77108589302E+02  0.80371580075E+03  0.10424258200E+04  0.65864270000E+03 0. -1.
    8880022    1    1    2    0    0 -0.30603286042E+02  0.77108589302E+02 -0.26642411873E+04  0.26699166752E+04  0.15294330000E+03 0.  0.
<mgrwt>
<rscale>  0 0.47499004E+03</rscale>
<asrwt>0</asrwt>
<pdfrwt beam="1">  1        2 0.14244747E+00 0.66384675E+03</pdfrwt>
<pdfrwt beam="2">  1       -2 0.42868214E+00 0.66384675E+03</pdfrwt>
<totfact> 0.14806422E-01</totfact>
</mgrwt>
</event>
<event>
 4    1  0.2665544E-007  0.1025374E+04  0.7818608E-02  0.9349089E-01
         -2   -1    0    0    0  501 -0.00000000000E+00  0.00000000000E+00  0.18164432149E+04  0.18164432149E+04  0.25500000000E-02 0.  1.
          2   -1    0    0  501    0  0.00000000000E+00 -0.00000000000E+00 -0.84378359565E+03  0.84378359565E+03  0.25500000000E-02 0. -1.
    8880023    1    1    2    0    0  0.28584644727E+03 -0.73203361690E+03 -0.37574672947E+03  0.10920518388E+04  0.65864270000E+03 0.  0.
    8880022    1    1    2    0    0 -0.28584644727E+03  0.73203361690E+03  0.13484063488E+04  0.15681749718E+04  0.15294330000E+03 0.  0.
<mgrwt>
<rscale>  0 0.96386600E+03</rscale>
<asrwt>0</asrwt>
<pdfrwt beam="1">  1        2 0.12981286E+00 0.10253739E+04</pdfrwt>
<pdfrwt beam="2">  1       -2 0.27945280E+00 0.10253739E+04</pdfrwt>
<totfact> 0.13577945E+00</totfact>
</mgrwt>
</event>
<event>
 4    1  0.2665544E-007  0.7116626E+03  0.7818608E-02  0.9951878E-01
          2   -1    0    0  501    0  0.00000000000E+00  0.00000000000E+00  0.64663015462E+03  0.64663015462E+03  0.25500000000E-02 0. -1.
         -2   -1    0    0    0  501 -0.00000000000E+00 -0.00000000000E+00 -0.61768691695E+03  0.61768691695E+03  0.25500000000E-02 0.  1.
    8880023    1    1    2    0    0  0.17899502729E+03 -0.20152972007E+03  0.37115339519E+03  0.80263223016E+03  0.65864270000E+03 0. -1.
    8880022    1    1    2    0    0 -0.17899502729E+03  0.20152972007E+03 -0.34221015752E+03  0.46168484142E+03  0.15294330000E+03 0.  0.
<mgrwt>
<rscale>  0 0.57811603E+03</rscale>
<asrwt>0</asrwt>
<pdfrwt beam="1">  1        2 0.99481562E-01 0.71166260E+03</pdfrwt>
<pdfrwt beam="2">  1       -2 0.95028756E-01 0.71166260E+03</pdfrwt>
<totfact> 0.42809929E+01</totfact>
</mgrwt>
</event>
<event>
 4    1  0.2665544E-007  0.1189171E+04  0.7818608E-02  0.9167721E-01
          2   -1    0    0  501    0  0.00000000000E+00  0.00000000000E+00  0.33070106707E+03  0.33070106708E+03  0.25500000000E-02 0. -1.
         -2   -1    0    0    0  501 -0.00000000000E+00 -0.00000000000E+00 -0.41810800144E+04  0.41810800144E+04  0.25500000000E-02 0.  1.
    8880023    1    1    2    0    0 -0.67630715504E+03 -0.72313678047E+03 -0.28851107847E+04  0.31205756868E+04  0.65864270000E+03 0. -1.
    8880022    1    1    2    0    0  0.67630715504E+03  0.72313678047E+03 -0.96526816265E+03  0.13912053946E+04  0.15294330000E+03 0.  0.
<mgrwt>
<rscale>  0 0.11392901E+04</rscale>
<asrwt>0</asrwt>
<pdfrwt beam="1">  1        2 0.50877090E-01 0.11891713E+04</pdfrwt>
<pdfrwt beam="2">  1       -2 0.64324304E+00 0.11891713E+04</pdfrwt>
<totfact> 0.33720169E-02</totfact>
</mgrwt>
</event>
<event>
 4    1  0.2665544E-007  0.8163968E+03  0.7818608E-02  0.9676404E-01
         -2   -1    0    0    0  501 -0.00000000000E+00  0.00000000000E+00  0.37559992514E+03  0.37559992515E+03  0.25500000000E-02 0.  1.
          2   -1    0    0  501    0  0.00000000000E+00 -0.00000000000E+00 -0.19803900531E+04  0.19803900531E+04  0.25500000000E-02 0. -1.
    8880023    1    1    2    0    0 -0.29080203822E+03 -0.38487355791E+03 -0.16570539719E+04  0.18472497268E+04  0.65864270000E+03 0.  0.
    8880022    1    1    2    0    0  0.29080203822E+03  0.38487355791E+03  0.52263844008E+02  0.50874025142E+03  0.15294330000E+03 0.  0.
<mgrwt>
<rscale>  0 0.72439260E+03</rscale>
<asrwt>0</asrwt>
<pdfrwt beam="1">  1        2 0.30467539E+00 0.81639677E+03</pdfrwt>
<pdfrwt beam="2">  1       -2 0.57784605E-01 0.81639677E+03</pdfrwt>
<totfact> 0.19682384E+01</totfact>
</mgrwt>
</event>
<event>
 4    1  0.2665544E-007  0.1129124E+04  0.7818608E-02  0.9229302E-01
         -2   -1    0    0    0  501 -0.00000000000E+00  0.00000000000E+00  0.88764158095E+03  0.88764158095E+03  0.25500000000E-02 0.  1.
          2   -1    0    0  501    0  0.00000000000E+00 -0.00000000000E+00 -0.22145214948E+04  0.22145214948E+04  0.25500000000E-02 0. -1.
    8880023    1    1    2    0    0 -0.74627868588E+02 -0.91407967381E+03 -0.17483893384E+04  0.20812944178E+04  0.65864270000E+03 0.  0.
    8880022    1    1    2    0    0  0.74627868588E+02  0.91407967381E+03  0.42150942450E+03  0.10208686580E+04  0.15294330000E+03 0.  0.
<mgrwt>
<rscale>  0 0.10756031E+04</rscale>
<asrwt>0</asrwt>
<pdfrwt beam="1">  1        2 0.34069561E+00 0.11291241E+04</pdfrwt>
<pdfrwt beam="2">  1       -2 0.13656024E+00 0.11291241E+04</pdfrwt>
<totfact> 0.19108755E+00</totfact>
</mgrwt>
</event>
<event>
 4    1  0.2665544E-007  0.1226725E+04  0.7818608E-02  0.9131572E-01
         -2   -1    0    0    0  501 -0.00000000000E+00  0.00000000000E+00  0.12632047352E+04  0.12632047352E+04  0.25500000000E-02 0.  1.
          2   -1    0    0  501    0  0.00000000000E+00 -0.00000000000E+00 -0.13057236266E+04  0.13057236266E+04  0.25500000000E-02 0. -1.
    8880023    1    1    2    0    0 -0.77506589523E+03  0.68579611258E+03 -0.61943388376E+03  0.13742459724E+04  0.65864270000E+03 0.  0.
    8880022    1    1    2    0    0  0.77506589523E+03 -0.68579611258E+03  0.57691499236E+03  0.11946823893E+04  0.15294330000E+03 0.  0.
<mgrwt>
<rscale>  0 0.11788515E+04</rscale>
<asrwt>0</asrwt>
<pdfrwt beam="1">  1        2 0.20088056E+00 0.12267248E+04</pdfrwt>
<pdfrwt beam="2">  1       -2 0.19433919E+00 0.12267248E+04</pdfrwt>
<totfact> 0.23022332E+00</totfact>
</mgrwt>
</event>
<event>
 4    1  0.2665544E-007  0.6623100E+03  0.7818608E-02  0.1021905E+00
          2   -1    0    0  501    0  0.00000000000E+00  0.00000000000E+00  0.14917402842E+04  0.14917402842E+04  0.25500000000E-02 0. -1.
         -2   -1    0    0    0  501 -0.00000000000E+00 -0.00000000000E+00 -0.18462841730E+03  0.18462841732E+03  0.25500000000E-02 0.  1.
    8880023    1    1    2    0    0  0.69573931352E+02 -0.19640094924E+01  0.13493285590E+04  0.15031108262E+04  0.65864270000E+03 0. -1.
    8880022    1    1    2    0    0 -0.69573931352E+02  0.19640094924E+01 -0.42216692151E+02  0.17325787534E+03  0.15294330000E+03 0.  0.
<mgrwt>
<rscale>  0 0.47005263E+03</rscale>
<asrwt>0</asrwt>
<pdfrwt beam="1">  1        2 0.22949850E+00 0.66231004E+03</pdfrwt>
<pdfrwt beam="2">  1       -2 0.28404373E-01 0.66231004E+03</pdfrwt>
<totfact> 0.14905986E+02</totfact>
</mgrwt>
</event>
<event>
 4    1  0.2665544E-007  0.8304429E+03  0.7818608E-02  0.9648471E-01
          2   -1    0    0  501    0  0.00000000000E+00  0.00000000000E+00  0.36525616607E+04  0.36525616607E+04  0.25500000000E-02 0. -1.
         -2   -1    0    0    0  501 -0.00000000000E+00 -0.00000000000E+00 -0.43149713293E+03  0.43149713293E+03  0.25500000000E-02 0.  1.
    8880023    1    1    2    0    0 -0.46961009534E+03 -0.18786029149E+03  0.34200468614E+04  0.35194255030E+04  0.65864270000E+03 0.  0.
    8880022    1    1    2    0    0  0.46961009534E+03  0.18786029149E+03 -0.19898233363E+03  0.56463329062E+03  0.15294330000E+03 0.  0.
<mgrwt>
<rscale>  0 0.74169441E+03</rscale>
<asrwt>0</asrwt>
<pdfrwt beam="1">  1        2 0.56193256E+00 0.83044286E+03</pdfrwt>
<pdfrwt beam="2">  1       -2 0.66384175E-01 0.83044286E+03</pdfrwt>
<totfact> 0.14189028E+00</totfact>
</mgrwt>
</event>
<event>
 4    1  0.2665544E-007  0.1015260E+04  0.7818608E-02  0.9361860E-01
         -2   -1    0    0    0  501 -0.00000000000E+00  0.00000000000E+00  0.47859883533E+03  0.47859883534E+03  0.25500000000E-02 0.  1.
          2   -1    0    0  501    0  0.00000000000E+00 -0.00000000000E+00 -0.29682480693E+04  0.29682480693E+04  0.25500000000E-02 0. -1.
    8880023    1    1    2    0    0  0.62054735591E+03 -0.46028612788E+03 -0.24570696993E+04  0.26585605229E+04  0.65864270000E+03 0.  0.
    8880022    1    1    2    0    0 -0.62054735591E+03  0.46028612788E+03 -0.32579534613E+02  0.78828638168E+03  0.15294330000E+03 0.  0.
<mgrwt>
<rscale>  0 0.95282052E+03</rscale>
<asrwt>0</asrwt>
<pdfrwt beam="1">  1        2 0.45665354E+00 0.10152598E+04</pdfrwt>
<pdfrwt beam="2">  1       -2 0.73630592E-01 0.10152598E+04</pdfrwt>
<totfact> 0.30882532E+00</totfact>
</mgrwt>
</event>
<event>
 4    1  0.2665544E-007  0.6803963E+03  0.7818608E-02  0.1009100E+00
         -2   -1    0    0    0  501 -0.00000000000E+00  0.00000000000E+00  0.99145635458E+03  0.99145635458E+03  0.25500000000E-02 0.  1.
          2   -1    0    0  501    0  0.00000000000E+00 -0.00000000000E+00 -0.14788787488E+04  0.14788787488E+04  0.25500000000E-02 0. -1.
    8880023    1    1    2    0    0  0.48521824370E+02 -0.16362927319E+03 -0.13854609890E+04  0.15435158777E+04  0.65864270000E+03 0. -1.
    8880022    1    1    2    0    0 -0.48521824370E+02  0.16362927319E+03  0.89803859473E+03  0.92681922570E+03  0.15294330000E+03 0.  0.
<mgrwt>
<rscale>  0 0.51833749E+03</rscale>
<asrwt>0</asrwt>
<pdfrwt beam="1">  1        2 0.22751981E+00 0.68039629E+03</pdfrwt>
<pdfrwt beam="2">  1       -2 0.15253175E+00 0.68039629E+03</pdfrwt>
<totfact> 0.38820449E+00</totfact>
</mgrwt>
</event>
<event>
 4    1  0.2665544E-007  0.8300057E+03  0.7818608E-02  0.9649321E-01
          2   -1    0    0  501    0  0.00000000000E+00  0.00000000000E+00  0.35904640813E+04  0.35904640813E+04  0.25500000000E-02 0. -1.
         -2   -1    0    0    0  501 -0.00000000000E+00 -0.00000000000E+00 -0.28735242878E+03  0.28735242879E+03  0.25500000000E-02 0.  1.
    8880023    1    1    2    0    0  0.24583779359E+03 -0.44120629848E+03  0.32420071120E+04  0.33465683228E+04  0.65864270000E+03 0.  0.
    8880022    1    1    2    0    0 -0.24583779359E+03  0.44120629848E+03  0.61104540468E+02  0.53124818725E+03  0.15294330000E+03 0.  0.
<mgrwt>
<rscale>  0 0.74116033E+03</rscale>
<asrwt>0</asrwt>
<pdfrwt beam="1">  1        2 0.55237904E+00 0.83000568E+03</pdfrwt>
<pdfrwt beam="2">  1       -2 0.44208070E-01 0.83000568E+03</pdfrwt>
<totfact> 0.36461191E+00</totfact>
</mgrwt>
</event>
<event>
 4    1  0.2665544E-007  0.6694656E+03  0.7818608E-02  0.1016049E+00
         -2   -1    0    0    0  501 -0.00000000000E+00  0.00000000000E+00  0.43521185985E+03  0.43521185985E+03  0.25500000000E-02 0.  1.
          2   -1    0    0  501    0  0.00000000000E+00 -0.00000000000E+00 -0.12010648784E+04  0.12010648784E+04  0.25500000000E-02 0. -1.
    8880023    1    1    2    0    0  0.27471348121E+01  0.11986009953E+03 -0.10777738360E+04  0.12687713104E+04  0.65864270000E+03 0. -1.
    8880022    1    1    2    0    0 -0.27471348121E+01 -0.11986009953E+03  0.31192081740E+03  0.36750542792E+03  0.15294330000E+03 0.  0.
<mgrwt>
<rscale>  0 0.49139792E+03</rscale>
<asrwt>0</asrwt>
<pdfrwt beam="1">  1        2 0.18477921E+00 0.66946561E+03</pdfrwt>
<pdfrwt beam="2">  1       -2 0.66955671E-01 0.66946561E+03</pdfrwt>
<totfact> 0.39770851E+01</totfact>
</mgrwt>
</event>
<event>
 4    1  0.2665544E-007  0.8111518E+03  0.7818608E-02  0.9687183E-01
         -2   -1    0    0    0  501 -0.00000000000E+00  0.00000000000E+00  0.47262367913E+03  0.47262367914E+03  0.25500000000E-02 0.  1.
          2   -1    0    0  501    0  0.00000000000E+00 -0.00000000000E+00 -0.33776477756E+04  0.33776477756E+04  0.25500000000E-02 0. -1.
    8880023    1    1    2    0    0 -0.43370601750E+03 -0.18988461470E+03 -0.31799832213E+04  0.32818075158E+04  0.65864270000E+03 0.  0.
    8880022    1    1    2    0    0  0.43370601750E+03  0.18988461470E+03  0.27495912486E+03  0.56846393894E+03  0.15294330000E+03 0.  0.
<mgrwt>
<rscale>  0 0.71785082E+03</rscale>
<asrwt>0</asrwt>
<pdfrwt beam="1">  1        2 0.51963810E+00 0.81115182E+03</pdfrwt>
<pdfrwt beam="2">  1       -2 0.72711337E-01 0.81115182E+03</pdfrwt>
<totfact> 0.18041943E+00</totfact>
</mgrwt>
</event>
<event>
 4    1  0.2665544E-007  0.9457517E+03  0.7818608E-02  0.9456253E-01
          2   -1    0    0  501    0  0.00000000000E+00  0.00000000000E+00  0.12471067512E+04  0.12471067512E+04  0.25500000000E-02 0. -1.
         -2   -1    0    0    0  501 -0.00000000000E+00 -0.00000000000E+00 -0.22839283210E+04  0.22839283210E+04  0.25500000000E-02 0.  1.
    8880023    1    1    2    0    0  0.42904073088E+03  0.52588990001E+03  0.10013641558E+04  0.13773803086E+04  0.65864270000E+03 0. -1.
    8880022    1    1    2    0    0 -0.42904073088E+03 -0.52588990001E+03 -0.20381857257E+04  0.21536547636E+04  0.15294330000E+03 0.  0.
<mgrwt>
<rscale>  0 0.87587402E+03</rscale>
<asrwt>0</asrwt>
<pdfrwt beam="1">  1        2 0.19186258E+00 0.94575173E+03</pdfrwt>
<pdfrwt beam="2">  1       -2 0.35137359E+00 0.94575173E+03</pdfrwt>
<totfact> 0.27663267E-01</totfact>
</mgrwt>
</event>
<event>
 4    1  0.2665544E-007  0.9665758E+03  0.7818608E-02  0.9426656E-01
          2   -1    0    0  501    0  0.00000000000E+00  0.00000000000E+00  0.90840223849E+03  0.90840223850E+03  0.25500000000E-02 0. -1.
         -2   -1    0    0    0  501 -0.00000000000E+00 -0.00000000000E+00 -0.96041381374E+03  0.96041381374E+03  0.25500000000E-02 0.  1.
    8880023    1    1    2    0    0 -0.62515731381E+03 -0.33111464963E+03  0.36535939771E+03  0.10333229282E+04  0.65864270000E+03 0. -1.
    8880022    1    1    2    0    0  0.62515731381E+03  0.33111464963E+03 -0.41737097296E+03  0.83549312402E+03  0.15294330000E+03 0.  0.
<mgrwt>
<rscale>  0 0.89914106E+03</rscale>
<asrwt>0</asrwt>
<pdfrwt beam="1">  1        2 0.13975419E+00 0.96657580E+03</pdfrwt>
<pdfrwt beam="2">  1       -2 0.14775597E+00 0.96657580E+03</pdfrwt>
<totfact> 0.89750166E+00</totfact>
</mgrwt>
</event>
<event>
 4    1  0.2665544E-007  0.8725093E+03  0.7818608E-02  0.9571688E-01
          2   -1    0    0  501    0  0.00000000000E+00  0.00000000000E+00  0.17242528898E+04  0.17242528898E+04  0.25500000000E-02 0. -1.
         -2   -1    0    0    0  501 -0.00000000000E+00 -0.00000000000E+00 -0.82483735675E+03  0.82483735675E+03  0.25500000000E-02 0.  1.
    8880023    1    1    2    0    0  0.32432949477E+03  0.47145799887E+03  0.14810437899E+04  0.17189424597E+04  0.65864270000E+03 0. -1.
    8880022    1    1    2    0    0 -0.32432949477E+03 -0.47145799887E+03 -0.58162825684E+03  0.83014778687E+03  0.15294330000E+03 0.  0.
<mgrwt>
<rscale>  0 0.79198752E+03</rscale>
<asrwt>0</asrwt>
<pdfrwt beam="1">  1        2 0.26526968E+00 0.87250930E+03</pdfrwt>
<pdfrwt beam="2">  1       -2 0.12689805E+00 0.87250930E+03</pdfrwt>
<totfact> 0.44397203E+00</totfact>
</mgrwt>
</event>
<event>
 4    1  0.2665544E-007  0.9392744E+03  0.7818608E-02  0.9465717E-01
          2   -1    0    0  501    0  0.00000000000E+00  0.00000000000E+00  0.15734600695E+04  0.15734600695E+04  0.25500000000E-02 0. -1.
         -2   -1    0    0    0  501 -0.00000000000E+00 -0.00000000000E+00 -0.85141622463E+03  0.85141622463E+03  0.25500000000E-02 0.  1.
    8880023    1    1    2    0    0 -0.66145934519E+03  0.10439230176E+03  0.12464217606E+04  0.15607061317E+04  0.65864270000E+03 0. -1.
    8880022    1    1    2    0    0  0.66145934519E+03 -0.10439230176E+03 -0.52437791577E+03  0.86417016239E+03  0.15294330000E+03 0.  0.
<mgrwt>
<rscale>  0 0.86859268E+03</rscale>
<asrwt>0</asrwt>
<pdfrwt beam="1">  1        2 0.24207078E+00 0.93927441E+03</pdfrwt>
<pdfrwt beam="2">  1       -2 0.13098711E+00 0.93927441E+03</pdfrwt>
<totfact> 0.49217956E+00</totfact>
</mgrwt>
</event>
<event>
 4    1  0.2665544E-007  0.7564990E+03  0.7818608E-02  0.9814257E-01
         -2   -1    0    0    0  501 -0.00000000000E+00  0.00000000000E+00  0.15552204313E+03  0.15552204315E+03  0.25500000000E-02 0.  1.
          2   -1    0    0  501    0  0.00000000000E+00 -0.00000000000E+00 -0.37700360270E+04  0.37700360270E+04  0.25500000000E-02 0. -1.
    8880023    1    1    2    0    0 -0.29928580869E+03  0.22115264055E+03 -0.33719328614E+04  0.34557520041E+04  0.65864270000E+03 0. -1.
    8880022    1    1    2    0    0  0.29928580869E+03 -0.22115264055E+03 -0.24258112244E+03  0.46980606603E+03  0.15294330000E+03 0.  0.
<mgrwt>
<rscale>  0 0.64603012E+03</rscale>
<asrwt>0</asrwt>
<pdfrwt beam="1">  1        2 0.58000548E+00 0.75649897E+03</pdfrwt>
<pdfrwt beam="2">  1       -2 0.23926471E-01 0.75649897E+03</pdfrwt>
<totfact> 0.87515346E+00</totfact>
</mgrwt>
</event>
<event>
 4    1  0.2665544E-007  0.1167305E+04  0.7818608E-02  0.9189579E-01
         -2   -1    0    0    0  501 -0.00000000000E+00  0.00000000000E+00  0.58483758438E+03  0.58483758438E+03  0.25500000000E-02 0.  1.
          2   -1    0    0  501    0  0.00000000000E+00 -0.00000000000E+00 -0.27321478169E+04  0.27321478169E+04  0.25500000000E-02 0. -1.
    8880023    1    1    2    0    0  0.67817382525E+03  0.68474084518E+03 -0.20198558923E+04  0.23328990107E+04  0.65864270000E+03 0.  0.
    8880022    1    1    2    0    0 -0.67817382525E+03 -0.68474084518E+03 -0.12745434029E+03  0.98408639062E+03  0.15294330000E+03 0.  0.
<mgrwt>
<rscale>  0 0.11161642E+04</rscale>
<asrwt>0</asrwt>
<pdfrwt beam="1">  1        2 0.42033043E+00 0.11673046E+04</pdfrwt>
<pdfrwt beam="2">  1       -2 0.89975015E-01 0.11673046E+04</pdfrwt>
<totfact> 0.26645330E+00</totfact>
</mgrwt>
</event>
<event>
 4    1  0.2665544E-007  0.7427401E+03  0.7818608E-02  0.9852036E-01
         -2   -1    0    0    0  501 -0.00000000000E+00  0.00000000000E+00  0.18166606441E+04  0.18166606441E+04  0.25500000000E-02 0.  1.
          2   -1    0    0  501    0  0.00000000000E+00 -0.00000000000E+00 -0.46909693353E+03  0.46909693354E+03  0.25500000000E-02 0. -1.
    8880023    1    1    2    0    0 -0.11900064848E+03 -0.32201156053E+03 -0.13621083620E+03  0.75512661032E+03  0.65864270000E+03 0.  0.
    8880022    1    1    2    0    0  0.11900064848E+03  0.32201156053E+03  0.14837745468E+04  0.15306309673E+04  0.15294330000E+03 0.  0.
<mgrwt>
<rscale>  0 0.62643208E+03</rscale>
<asrwt>0</asrwt>
<pdfrwt beam="1">  1        2 0.72168760E-01 0.74274007E+03</pdfrwt>
<pdfrwt beam="2">  1       -2 0.27948625E+00 0.74274007E+03</pdfrwt>
<totfact> 0.29168878E+00</totfact>
</mgrwt>
</event>
<event>
 4    1  0.2665544E-007  0.7186931E+03  0.7818608E-02  0.9927033E-01
         -2   -1    0    0    0  501 -0.00000000000E+00  0.00000000000E+00  0.53544264535E+03  0.53544264536E+03  0.25500000000E-02 0.  1.
          2   -1    0    0  501    0  0.00000000000E+00 -0.00000000000E+00 -0.16652055375E+04  0.16652055375E+04  0.25500000000E-02 0. -1.
    8880023    1    1    2    0    0  0.18147861867E+03 -0.22310335400E+03 -0.15265601759E+04  0.16872776217E+04  0.65864270000E+03 0. -1.
    8880022    1    1    2    0    0 -0.18147861867E+03  0.22310335400E+03  0.39679728381E+03  0.51337056115E+03  0.15294330000E+03 0.  0.
<mgrwt>
<rscale>  0 0.58968853E+03</rscale>
<asrwt>0</asrwt>
<pdfrwt beam="1">  1        2 0.25618546E+00 0.71869312E+03</pdfrwt>
<pdfrwt beam="2">  1       -2 0.82375792E-01 0.71869312E+03</pdfrwt>
<totfact> 0.13692936E+01</totfact>
</mgrwt>
</event>
<event>
 4    1  0.2665544E-007  0.9145382E+03  0.7818608E-02  0.9503085E-01
         -2   -1    0    0    0  501 -0.00000000000E+00  0.00000000000E+00  0.14113657346E+04  0.14113657346E+04  0.25500000000E-02 0.  1.
          2   -1    0    0  501    0  0.00000000000E+00 -0.00000000000E+00 -0.95178481690E+03  0.95178481690E+03  0.25500000000E-02 0. -1.
    8880023    1    1    2    0    0 -0.51047495598E+03  0.37680935351E+03 -0.61769192494E+03  0.11035957095E+04  0.65864270000E+03 0. -1.
    8880022    1    1    2    0    0  0.51047495598E+03 -0.37680935351E+03  0.10772728426E+04  0.12595548420E+04  0.15294330000E+03 0.  0.
<mgrwt>
<rscale>  0 0.84056772E+03</rscale>
<asrwt>0</asrwt>
<pdfrwt beam="1">  1        2 0.14642843E+00 0.91453823E+03</pdfrwt>
<pdfrwt beam="2">  1       -2 0.21713319E+00 0.91453823E+03</pdfrwt>
<totfact> 0.28008001E+00</totfact>
</mgrwt>
</event>
<event>
 4    1  0.2665544E-007  0.7593417E+03  0.7818608E-02  0.9806815E-01
          2   -1    0    0  501    0  0.00000000000E+00  0.00000000000E+00  0.64769239199E+03  0.64769239199E+03  0.25500000000E-02 0. -1.
         -2   -1    0    0    0  501 -0.00000000000E+00 -0.00000000000E+00 -0.64399640840E+03  0.64399640841E+03  0.25500000000E-02 0.  1.
    8880023    1    1    2    0    0  0.26850909972E+03  0.26588048531E+03  0.26868803876E+03  0.80547690069E+03  0.65864270000E+03 0.  0.
    8880022    1    1    2    0    0 -0.26850909972E+03 -0.26588048531E+03 -0.26499205517E+03  0.48621189971E+03  0.15294330000E+03 0.  0.
<mgrwt>
<rscale>  0 0.64998101E+03</rscale>
<asrwt>0</asrwt>
<pdfrwt beam="1">  1        2 0.99644983E-01 0.75934167E+03</pdfrwt>
<pdfrwt beam="2">  1       -2 0.99076370E-01 0.75934167E+03</pdfrwt>
<totfact> 0.38592269E+01</totfact>
</mgrwt>
</event>
<event>
 4    1  0.2665544E-007  0.8113442E+03  0.7818608E-02  0.9686784E-01
          2   -1    0    0  501    0  0.00000000000E+00  0.00000000000E+00  0.11291520648E+04  0.11291520648E+04  0.25500000000E-02 0. -1.
         -2   -1    0    0    0  501 -0.00000000000E+00 -0.00000000000E+00 -0.52499638035E+03  0.52499638035E+03  0.25500000000E-02 0.  1.
    8880023    1    1    2    0    0  0.46346430503E+03  0.98336520338E+02  0.78066390300E+03  0.11259287584E+04  0.65864270000E+03 0. -1.
    8880022    1    1    2    0    0 -0.46346430503E+03 -0.98336520338E+02 -0.17650821854E+03  0.52821968677E+03  0.15294330000E+03 0.  0.
<mgrwt>
<rscale>  0 0.71809162E+03</rscale>
<asrwt>0</asrwt>
<pdfrwt beam="1">  1        2 0.17371570E+00 0.81134422E+03</pdfrwt>
<pdfrwt beam="2">  1       -2 0.80768676E-01 0.81134422E+03</pdfrwt>
<totfact> 0.28610919E+01</totfact>
</mgrwt>
</event>
<event>
 4    1  0.2665544E-007  0.1283229E+04  0.7818608E-02  0.9080179E-01
          2   -1    0    0  501    0  0.00000000000E+00  0.00000000000E+00  0.20422886673E+04  0.20422886673E+04  0.25500000000E-02 0. -1.
         -2   -1    0    0    0  501 -0.00000000000E+00 -0.00000000000E+00 -0.12645376817E+04  0.12645376817E+04  0.25500000000E-02 0.  1.
    8880023    1    1    2    0    0  0.10494200172E+04  0.33404287987E+03  0.15053321283E+04  0.19780551157E+04  0.65864270000E+03 0.  0.
    8880022    1    1    2    0    0 -0.10494200172E+04 -0.33404287987E+03 -0.72758114280E+03  0.13287712333E+04  0.15294330000E+03 0.  0.
<mgrwt>
<rscale>  0 0.12380604E+04</rscale>
<asrwt>0</asrwt>
<pdfrwt beam="1">  1        2 0.31419826E+00 0.12832292E+04</pdfrwt>
<pdfrwt beam="2">  1       -2 0.19454426E+00 0.12832292E+04</pdfrwt>
<totfact> 0.87973937E-01</totfact>
</mgrwt>
</event>
<event>
 4    1  0.2665544E-007  0.9691977E+03  0.7818608E-02  0.9423015E-01
          2   -1    0    0  501    0  0.00000000000E+00  0.00000000000E+00  0.29178373771E+04  0.29178373771E+04  0.25500000000E-02 0. -1.
         -2   -1    0    0    0  501 -0.00000000000E+00 -0.00000000000E+00 -0.11295373423E+04  0.11295373423E+04  0.25500000000E-02 0.  1.
    8880023    1    1    2    0    0  0.53075562197E+03 -0.47310938315E+03  0.27072195096E+04  0.28754793858E+04  0.65864270000E+03 0.  0.
    8880022    1    1    2    0    0 -0.53075562197E+03  0.47310938315E+03 -0.91891947481E+03  0.11718953336E+04  0.15294330000E+03 0.  0.
<mgrwt>
<rscale>  0 0.90205625E+03</rscale>
<asrwt>0</asrwt>
<pdfrwt beam="1">  1        2 0.44889805E+00 0.96919772E+03</pdfrwt>
<pdfrwt beam="2">  1       -2 0.17377498E+00 0.96919772E+03</pdfrwt>
<totfact> 0.40059442E-01</totfact>
</mgrwt>
</event>
<event>
 4    1  0.2665544E-007  0.6621534E+03  0.7818608E-02  0.1022051E+00
          2   -1    0    0  501    0  0.00000000000E+00  0.00000000000E+00  0.19221037889E+04  0.19221037889E+04  0.25500000000E-02 0. -1.
         -2   -1    0    0    0  501 -0.00000000000E+00 -0.00000000000E+00 -0.16647549347E+03  0.16647549349E+03  0.25500000000E-02 0.  1.
    8880023    1    1    2    0    0 -0.65884273672E+02  0.17210340564E+02  0.17978582380E+04  0.19159178958E+04  0.65864270000E+03 0. -1.
    8880022    1    1    2    0    0  0.65884273672E+02 -0.17210340564E+02 -0.42229942581E+02  0.17266138655E+03  0.15294330000E+03 0.  0.
<mgrwt>
<rscale>  0 0.46953624E+03</rscale>
<asrwt>0</asrwt>
<pdfrwt beam="1">  1        2 0.29570828E+00 0.66215341E+03</pdfrwt>
<pdfrwt beam="2">  1       -2 0.25611614E-01 0.66215341E+03</pdfrwt>
<totfact> 0.10475294E+02</totfact>
</mgrwt>
</event>
<event>
 4    1  0.2665544E-007  0.2169273E+04  0.7818608E-02  0.8541818E-01
          2   -1    0    0  501    0  0.00000000000E+00  0.00000000000E+00  0.34237873451E+04  0.34237873451E+04  0.25500000000E-02 0. -1.
         -2   -1    0    0    0  501 -0.00000000000E+00 -0.00000000000E+00 -0.14667657177E+04  0.14667657177E+04  0.25500000000E-02 0.  1.
    8880023    1    1    2    0    0 -0.19807147080E+04 -0.59051216645E+03  0.17879692722E+04  0.28111527347E+04  0.65864270000E+03 0.  0.
    8880022    1    1    2    0    0  0.19807147080E+04  0.59051216645E+03  0.16905235523E+03  0.20794003282E+04  0.15294330000E+03 0.  0.
<mgrwt>
<rscale>  0 0.21446686E+04</rscale>
<asrwt>0</asrwt>
<pdfrwt beam="1">  1        2 0.52673651E+00 0.21692731E+04</pdfrwt>
<pdfrwt beam="2">  1       -2 0.22565627E+00 0.21692731E+04</pdfrwt>
<totfact> 0.73211158E-02</totfact>
</mgrwt>
</event>
<event>
 4    1  0.2665544E-007  0.7001478E+03  0.7818608E-02  0.9996589E-01
         -2   -1    0    0    0  501 -0.00000000000E+00  0.00000000000E+00  0.10729669270E+03  0.10729669273E+03  0.25500000000E-02 0.  1.
          2   -1    0    0  501    0  0.00000000000E+00 -0.00000000000E+00 -0.27989158477E+04  0.27989158477E+04  0.25500000000E-02 0. -1.
    8880023    1    1    2    0    0 -0.12859901721E+03  0.19964710296E+03 -0.24007370808E+04  0.25007489698E+04  0.65864270000E+03 0. -1.
    8880022    1    1    2    0    0  0.12859901721E+03 -0.19964710296E+03 -0.29088207426E+03  0.40546357060E+03  0.15294330000E+03 0.  0.
<mgrwt>
<rscale>  0 0.55800064E+03</rscale>
<asrwt>0</asrwt>
<pdfrwt beam="1">  1        2 0.43060238E+00 0.70014776E+03</pdfrwt>
<pdfrwt beam="2">  1       -2 0.16507186E-01 0.70014776E+03</pdfrwt>
<totfact> 0.72738663E+01</totfact>
</mgrwt>
</event>
<event>
 4    1  0.2665544E-007  0.6645804E+03  0.7818608E-02  0.1019888E+00
         -2   -1    0    0    0  501 -0.00000000000E+00  0.00000000000E+00  0.10854055984E+03  0.10854055987E+03  0.25500000000E-02 0.  1.
          2   -1    0    0  501    0  0.00000000000E+00 -0.00000000000E+00 -0.25806833441E+04  0.25806833441E+04  0.25500000000E-02 0. -1.
    8880023    1    1    2    0    0 -0.36703606326E+02  0.80683185191E+02 -0.24129602475E+04  0.25028072825E+04  0.65864270000E+03 0. -1.
    8880022    1    1    2    0    0  0.36703606326E+02 -0.80683185191E+02 -0.59182536775E+02  0.18641662148E+03  0.15294330000E+03 0.  0.
<mgrwt>
<rscale>  0 0.47727034E+03</rscale>
<asrwt>0</asrwt>
<pdfrwt beam="1">  1        2 0.39702816E+00 0.66458042E+03</pdfrwt>
<pdfrwt beam="2">  1       -2 0.16698550E-01 0.66458042E+03</pdfrwt>
<totfact> 0.95919645E+01</totfact>
</mgrwt>
</event>
<event>
 4    1  0.2665544E-007  0.1385368E+04  0.7818608E-02  0.8995136E-01
         -2   -1    0    0    0  501 -0.00000000000E+00  0.00000000000E+00  0.42517166996E+04  0.42517166996E+04  0.25500000000E-02 0.  1.
          2   -1    0    0  501    0  0.00000000000E+00 -0.00000000000E+00 -0.94961640256E+03  0.94961640257E+03  0.25500000000E-02 0. -1.
    8880023    1    1    2    0    0  0.11014644813E+04 -0.52173813100E+03 -0.28095920962E+03  0.14135709974E+04  0.65864270000E+03 0.  0.
    8880022    1    1    2    0    0 -0.11014644813E+04  0.52173813100E+03  0.35830595067E+04  0.37877621048E+04  0.15294330000E+03 0.  0.
<mgrwt>
<rscale>  0 0.13443235E+04</rscale>
<asrwt>0</asrwt>
<pdfrwt beam="1">  1        2 0.14609483E+00 0.13853681E+04</pdfrwt>
<pdfrwt beam="2">  1       -2 0.65411026E+00 0.13853681E+04</pdfrwt>
<totfact> 0.82645472E-03</totfact>
</mgrwt>
</event>
<event>
 4    1  0.2665544E-007  0.7002915E+03  0.7818608E-02  0.9995994E-01
         -2   -1    0    0    0  501 -0.00000000000E+00  0.00000000000E+00  0.50277373492E+03  0.50277373493E+03  0.25500000000E-02 0.  1.
          2   -1    0    0  501    0  0.00000000000E+00 -0.00000000000E+00 -0.29492177619E+04  0.29492177619E+04  0.25500000000E-02 0. -1.
    8880023    1    1    2    0    0 -0.12112014715E+03 -0.20476317395E+03 -0.28636077993E+04  0.29479921781E+04  0.65864270000E+03 0. -1.
    8880022    1    1    2    0    0  0.12112014715E+03  0.20476317395E+03  0.41716377227E+03  0.50399931881E+03  0.15294330000E+03 0.  0.
<mgrwt>
<rscale>  0 0.55826246E+03</rscale>
<asrwt>0</asrwt>
<pdfrwt beam="1">  1        2 0.45372580E+00 0.70029155E+03</pdfrwt>
<pdfrwt beam="2">  1       -2 0.77349807E-01 0.70029155E+03</pdfrwt>
<totfact> 0.30055820E+00</totfact>
</mgrwt>
</event>
<event>
 4    1  0.2665544E-007  0.2115584E+04  0.7818608E-02  0.8565528E-01
          2   -1    0    0  501    0  0.00000000000E+00  0.00000000000E+00  0.23112194971E+04  0.23112194971E+04  0.25500000000E-02 0. -1.
         -2   -1    0    0    0  501 -0.00000000000E+00 -0.00000000000E+00 -0.20398792063E+04  0.20398792063E+04  0.25500000000E-02 0.  1.
    8880023    1    1    2    0    0 -0.89829909538E+03  0.17985953249E+04  0.80802313620E+03  0.22646408109E+04  0.65864270000E+03 0.  0.
    8880022    1    1    2    0    0  0.89829909538E+03 -0.17985953249E+04 -0.53668284542E+03  0.20864578925E+04  0.15294330000E+03 0.  0.
<mgrwt>
<rscale>  0 0.20903019E+04</rscale>
<asrwt>0</asrwt>
<pdfrwt beam="1">  1        2 0.35557223E+00 0.21155842E+04</pdfrwt>
<pdfrwt beam="2">  1       -2 0.31382757E+00 0.21155842E+04</pdfrwt>
<totfact> 0.10248832E-01</totfact>
</mgrwt>
</event>
<event>
 4    1  0.2665544E-007  0.8924501E+03  0.7818608E-02  0.9538262E-01
          2   -1    0    0  501    0  0.00000000000E+00  0.00000000000E+00  0.24945084699E+04  0.24945084699E+04  0.25500000000E-02 0. -1.
         -2   -1    0    0    0  501 -0.00000000000E+00 -0.00000000000E+00 -0.38777075730E+03  0.38777075731E+03  0.25500000000E-02 0.  1.
    8880023    1    1    2    0    0 -0.24854512143E+03 -0.54852737762E+03  0.20765650681E+04  0.22602189384E+04  0.65864270000E+03 0.  0.
    8880022    1    1    2    0    0  0.24854512143E+03  0.54852737762E+03  0.30172644518E+02  0.62206028878E+03  0.15294330000E+03 0.  0.
<mgrwt>
<rscale>  0 0.81520757E+03</rscale>
<asrwt>0</asrwt>
<pdfrwt beam="1">  1        2 0.38377055E+00 0.89245009E+03</pdfrwt>
<pdfrwt beam="2">  1       -2 0.59657037E-01 0.89245009E+03</pdfrwt>
<totfact> 0.94320382E+00</totfact>
</mgrwt>
</event>
<event>
 4    1  0.2665544E-007  0.9258981E+03  0.7818608E-02  0.9485674E-01
          2   -1    0    0  501    0  0.00000000000E+00  0.00000000000E+00  0.90675364001E+03  0.90675364002E+03  0.25500000000E-02 0. -1.
         -2   -1    0    0    0  501 -0.00000000000E+00 -0.00000000000E+00 -0.22110353026E+04  0.22110353026E+04  0.25500000000E-02 0.  1.
    8880023    1    1    2    0    0  0.34696118627E+03 -0.55054071619E+03  0.59749410991E+03  0.11019467150E+04  0.65864270000E+03 0. -1.
    8880022    1    1    2    0    0 -0.34696118627E+03  0.55054071619E+03 -0.19017757725E+04  0.20158422276E+04  0.15294330000E+03 0.  0.
<mgrwt>
<rscale>  0 0.85348307E+03</rscale>
<asrwt>0</asrwt>
<pdfrwt beam="1">  1        2 0.13950056E+00 0.92589813E+03</pdfrwt>
<pdfrwt beam="2">  1       -2 0.34015928E+00 0.92589813E+03</pdfrwt>
<totfact> 0.53199257E-01</totfact>
</mgrwt>
</event>
<event>
 4    1  0.2665544E-007  0.6609915E+03  0.7818608E-02  0.1023163E+00
          2   -1    0    0  501    0  0.00000000000E+00  0.00000000000E+00  0.64118211066E+03  0.64118211067E+03  0.25500000000E-02 0. -1.
         -2   -1    0    0    0  501 -0.00000000000E+00 -0.00000000000E+00 -0.44314743376E+03  0.44314743377E+03  0.25500000000E-02 0.  1.
    8880023    1    1    2    0    0 -0.42573616130E+02 -0.35874847864E+02  0.43903805912E+03  0.79351379391E+03  0.65864270000E+03 0. -1.
    8880022    1    1    2    0    0  0.42573616130E+02  0.35874847864E+02 -0.24100338222E+03  0.29081575053E+03  0.15294330000E+03 0.  0.
<mgrwt>
<rscale>  0 0.46562312E+03</rscale>
<asrwt>0</asrwt>
<pdfrwt beam="1">  1        2 0.98643401E-01 0.66099147E+03</pdfrwt>
<pdfrwt beam="2">  1       -2 0.68176529E-01 0.66099147E+03</pdfrwt>
<totfact> 0.91629817E+01</totfact>
</mgrwt>
</event>
<event>
 4    1  0.2665544E-007  0.8306241E+03  0.7818608E-02  0.9648119E-01
         -2   -1    0    0    0  501 -0.00000000000E+00  0.00000000000E+00  0.68834889800E+03  0.68834889801E+03  0.25500000000E-02 0.  1.
          2   -1    0    0  501    0  0.00000000000E+00 -0.00000000000E+00 -0.13968364104E+04  0.13968364104E+04  0.25500000000E-02 0. -1.
    8880023    1    1    2    0    0 -0.60974575190E+02 -0.50240249243E+03 -0.11346006955E+04  0.14061490346E+04  0.65864270000E+03 0. -1.
    8880022    1    1    2    0    0  0.60974575190E+02  0.50240249243E+03  0.42611318310E+03  0.67903627373E+03  0.15294330000E+03 0.  0.
<mgrwt>
<rscale>  0 0.74191573E+03</rscale>
<asrwt>0</asrwt>
<pdfrwt beam="1">  1        2 0.21489791E+00 0.83062408E+03</pdfrwt>
<pdfrwt beam="2">  1       -2 0.10589983E+00 0.83062408E+03</pdfrwt>
<totfact> 0.10596548E+01</totfact>
</mgrwt>
</event>
<event>
 4    1  0.2665544E-007  0.7214048E+03  0.7818608E-02  0.9917861E-01
          2   -1    0    0  501    0  0.00000000000E+00  0.00000000000E+00  0.35103805405E+04  0.35103805405E+04  0.25500000000E-02 0. -1.
         -2   -1    0    0    0  501 -0.00000000000E+00 -0.00000000000E+00 -0.15348858498E+03  0.15348858500E+03  0.25500000000E-02 0.  1.
    8880023    1    1    2    0    0  0.13900555226E+03  0.25940733648E+03  0.32286572575E+04  0.33082703339E+04  0.65864270000E+03 0. -1.
    8880022    1    1    2    0    0 -0.13900555226E+03 -0.25940733648E+03  0.12823469805E+03  0.35559879159E+03  0.15294330000E+03 0.  0.
<mgrwt>
<rscale>  0 0.59403428E+03</rscale>
<asrwt>0</asrwt>
<pdfrwt beam="1">  1        2 0.54005849E+00 0.72140482E+03</pdfrwt>
<pdfrwt beam="2">  1       -2 0.23613631E-01 0.72140482E+03</pdfrwt>
<totfact> 0.13774311E+01</totfact>
</mgrwt>
</event>
<event>
 4    1  0.2665544E-007  0.7643754E+03  0.7818608E-02  0.9793909E-01
          2   -1    0    0  501    0  0.00000000000E+00  0.00000000000E+00  0.92029969395E+03  0.92029969395E+03  0.25500000000E-02 0. -1.
         -2   -1    0    0    0  501 -0.00000000000E+00 -0.00000000000E+00 -0.94291507825E+03  0.94291507825E+03  0.25500000000E-02 0.  1.
    8880023    1    1    2    0    0 -0.34631919742E+03 -0.17470689658E+03  0.69510512128E+03  0.10331702774E+04  0.65864270000E+03 0. -1.
    8880022    1    1    2    0    0  0.34631919742E+03  0.17470689658E+03 -0.71772050557E+03  0.83004449480E+03  0.15294330000E+03 0.  0.
<mgrwt>
<rscale>  0 0.65690445E+03</rscale>
<asrwt>0</asrwt>
<pdfrwt beam="1">  1        2 0.14158457E+00 0.76437536E+03</pdfrwt>
<pdfrwt beam="2">  1       -2 0.14506386E+00 0.76437536E+03</pdfrwt>
<totfact> 0.94428622E+00</totfact>
</mgrwt>
</event>
<event>
 4    1  0.2665544E-007  0.1561042E+04  0.7818608E-02  0.8867693E-01
         -2   -1    0    0    0  501 -0.00000000000E+00  0.00000000000E+00  0.29771589014E+04  0.29771589014E+04  0.25500000000E-02 0.  1.
          2   -1    0    0  501    0  0.00000000000E+00 -0.00000000000E+00 -0.12499000288E+04  0.12499000288E+04  0.25500000000E-02 0. -1.
    8880023    1    1    2    0    0 -0.13144321165E+04 -0.52469984297E+03 -0.45101058886E+03  0.16248884490E+04  0.65864270000E+03 0.  0.
    8880022    1    1    2    0    0  0.13144321165E+04  0.52469984297E+03  0.21782694615E+04  0.26021704813E+04  0.15294330000E+03 0.  0.
<mgrwt>
<rscale>  0 0.15254658E+04</rscale>
<asrwt>0</asrwt>
<pdfrwt beam="1">  1        2 0.19229231E+00 0.15610419E+04</pdfrwt>
<pdfrwt beam="2">  1       -2 0.45802444E+00 0.15610419E+04</pdfrwt>
<totfact> 0.50866964E-02</totfact>
</mgrwt>
</event>
<event>
 4    1  0.2665544E-007  0.1082442E+04  0.7818608E-02  0.9280861E-01
         -2   -1    0    0    0  501 -0.00000000000E+00  0.00000000000E+00  0.90920530305E+03  0.90920530305E+03  0.25500000000E-02 0.  1.
          2   -1    0    0  501    0  0.00000000000E+00 -0.00000000000E+00 -0.11720574179E+04  0.11720574179E+04  0.25500000000E-02 0. -1.
    8880023    1    1    2    0    0 -0.79736438166E+03 -0.31950131140E+03  0.18880945808E+03  0.10987858130E+04  0.65864270000E+03 0.  0.
    8880022    1    1    2    0    0  0.79736438166E+03  0.31950131140E+03 -0.45166157289E+03  0.98247690791E+03  0.15294330000E+03 0.  0.
<mgrwt>
<rscale>  0 0.10256410E+04</rscale>
<asrwt>0</asrwt>
<pdfrwt beam="1">  1        2 0.18031653E+00 0.10824423E+04</pdfrwt>
<pdfrwt beam="2">  1       -2 0.13987774E+00 0.10824423E+04</pdfrwt>
<totfact> 0.69732232E+00</totfact>
</mgrwt>
</event>
<event>
 4    1  0.2665544E-007  0.8226091E+03  0.7818608E-02  0.9663888E-01
         -2   -1    0    0    0  501 -0.00000000000E+00  0.00000000000E+00  0.51658935549E+03  0.51658935550E+03  0.25500000000E-02 0.  1.
          2   -1    0    0  501    0  0.00000000000E+00 -0.00000000000E+00 -0.22434906954E+04  0.22434906955E+04  0.25500000000E-02 0. -1.
    8880023    1    1    2    0    0  0.41971655451E+03 -0.25828949120E+03 -0.20097839271E+04  0.21716162385E+04  0.65864270000E+03 0.  0.
    8880022    1    1    2    0    0 -0.41971655451E+03  0.25828949120E+03  0.28288258718E+03  0.58846381243E+03  0.15294330000E+03 0.  0.
<mgrwt>
<rscale>  0 0.73208212E+03</rscale>
<asrwt>0</asrwt>
<pdfrwt beam="1">  1        2 0.34515241E+00 0.82260905E+03</pdfrwt>
<pdfrwt beam="2">  1       -2 0.79475286E-01 0.82260905E+03</pdfrwt>
<totfact> 0.70534448E+00</totfact>
</mgrwt>
</event>
<event>
 4    1  0.2665544E-007  0.7064852E+03  0.7818608E-02  0.9971292E-01
          2   -1    0    0  501    0  0.00000000000E+00  0.00000000000E+00  0.67763040988E+03  0.67763040989E+03  0.25500000000E-02 0. -1.
         -2   -1    0    0    0  501 -0.00000000000E+00 -0.00000000000E+00 -0.12085622598E+04  0.12085622598E+04  0.25500000000E-02 0.  1.
    8880023    1    1    2    0    0 -0.26312427276E+02 -0.25420234837E+03  0.46559687368E+03  0.84610982313E+03  0.65864270000E+03 0.  0.
    8880022    1    1    2    0    0  0.26312427276E+02  0.25420234837E+03 -0.99652872358E+03  0.10400828465E+04  0.15294330000E+03 0.  0.
<mgrwt>
<rscale>  0 0.56927158E+03</rscale>
<asrwt>0</asrwt>
<pdfrwt beam="1">  1        2 0.10425083E+00 0.70648523E+03</pdfrwt>
<pdfrwt beam="2">  1       -2 0.18593265E+00 0.70648523E+03</pdfrwt>
<totfact> 0.72189942E+00</totfact>
</mgrwt>
</event>
<event>
 4    1  0.2665544E-007  0.9356731E+03  0.7818608E-02  0.9471034E-01
          2   -1    0    0  501    0  0.00000000000E+00  0.00000000000E+00  0.27209647256E+04  0.27209647256E+04  0.25500000000E-02 0. -1.
         -2   -1    0    0    0  501 -0.00000000000E+00 -0.00000000000E+00 -0.51249994260E+03  0.51249994260E+03  0.25500000000E-02 0.  1.
    8880023    1    1    2    0    0  0.60025648885E+03  0.28524757942E+03  0.23566412887E+04  0.25355950788E+04  0.65864270000E+03 0. -1.
    8880022    1    1    2    0    0 -0.60025648885E+03 -0.28524757942E+03 -0.14817650566E+03  0.69786958940E+03  0.15294330000E+03 0.  0.
<mgrwt>
<rscale>  0 0.86453467E+03</rscale>
<asrwt>0</asrwt>
<pdfrwt beam="1">  1        2 0.41860996E+00 0.93567315E+03</pdfrwt>
<pdfrwt beam="2">  1       -2 0.78846144E-01 0.93567315E+03</pdfrwt>
<totfact> 0.37748154E+00</totfact>
</mgrwt>
</event>
<event>
 4    1  0.2665544E-007  0.9221608E+03  0.7818608E-02  0.9491354E-01
         -2   -1    0    0    0  501 -0.00000000000E+00  0.00000000000E+00  0.43694728081E+03  0.43694728082E+03  0.25500000000E-02 0.  1.
          2   -1    0    0  501    0  0.00000000000E+00 -0.00000000000E+00 -0.25182779154E+04  0.25182779154E+04  0.25500000000E-02 0. -1.
    8880023    1    1    2    0    0 -0.37543193805E+02 -0.64432975057E+03 -0.20979985237E+04  0.22917195139E+04  0.65864270000E+03 0. -1.
    8880022    1    1    2    0    0  0.37543193805E+02  0.64432975057E+03  0.16667889107E+02  0.66350568227E+03  0.15294330000E+03 0.  0.
<mgrwt>
<rscale>  0 0.84924282E+03</rscale>
<asrwt>0</asrwt>
<pdfrwt beam="1">  1        2 0.38742736E+00 0.92216079E+03</pdfrwt>
<pdfrwt beam="2">  1       -2 0.67222660E-01 0.92216079E+03</pdfrwt>
<totfact> 0.70499011E+00</totfact>
</mgrwt>
</event>
<event>
 4    1  0.2665544E-007  0.1183282E+04  0.7818608E-02  0.9173547E-01
          2   -1    0    0  501    0  0.00000000000E+00  0.00000000000E+00  0.11964714677E+04  0.11964714677E+04  0.25500000000E-02 0. -1.
         -2   -1    0    0    0  501 -0.00000000000E+00 -0.00000000000E+00 -0.17587636593E+04  0.17587636593E+04  0.25500000000E-02 0.  1.
    8880023    1    1    2    0    0  0.92658959845E+03  0.32829655869E+03  0.67916363097E+03  0.13643387989E+04  0.65864270000E+03 0.  0.
    8880022    1    1    2    0    0 -0.92658959845E+03 -0.32829655869E+03 -0.12414558226E+04  0.15908963281E+04  0.15294330000E+03 0.  0.
<mgrwt>
<rscale>  0 0.11330690E+04</rscale>
<asrwt>0</asrwt>
<pdfrwt beam="1">  1        2 0.18407253E+00 0.11832824E+04</pdfrwt>
<pdfrwt beam="2">  1       -2 0.27057902E+00 0.11832824E+04</pdfrwt>
<totfact> 0.89310587E-01</totfact>
</mgrwt>
</event>
<event>
 4    1  0.2665544E-007  0.7784101E+03  0.7818608E-02  0.9759585E-01
          2   -1    0    0  501    0  0.00000000000E+00  0.00000000000E+00  0.94889760678E+03  0.94889760678E+03  0.25500000000E-02 0. -1.
         -2   -1    0    0    0  501 -0.00000000000E+00 -0.00000000000E+00 -0.54074905562E+03  0.54074905562E+03  0.25500000000E-02 0.  1.
    8880023    1    1    2    0    0 -0.16687551065E+03  0.37982189476E+03  0.62397007274E+03  0.99762766889E+03  0.65864270000E+03 0. -1.
    8880022    1    1    2    0    0  0.16687551065E+03 -0.37982189476E+03 -0.21582152158E+03  0.49201899352E+03  0.15294330000E+03 0.  0.
<mgrwt>
<rscale>  0 0.67577286E+03</rscale>
<asrwt>0</asrwt>
<pdfrwt beam="1">  1        2 0.14598425E+00 0.77841012E+03</pdfrwt>
<pdfrwt beam="2">  1       -2 0.83192163E-01 0.77841012E+03</pdfrwt>
<totfact> 0.34851250E+01</totfact>
</mgrwt>
</event>
<event>
 4    1  0.2665544E-007  0.6869507E+03  0.7818608E-02  0.1005637E+00
          2   -1    0    0  501    0  0.00000000000E+00  0.00000000000E+00  0.27101863051E+04  0.27101863051E+04  0.25500000000E-02 0. -1.
         -2   -1    0    0    0  501 -0.00000000000E+00 -0.00000000000E+00 -0.20158802263E+03  0.20158802265E+03  0.25500000000E-02 0.  1.
    8880023    1    1    2    0    0  0.16406126335E+03 -0.10571138982E+03  0.25667529599E+04  0.26570890011E+04  0.65864270000E+03 0. -1.
    8880022    1    1    2    0    0 -0.16406126335E+03  0.10571138982E+03 -0.58154677507E+02  0.25468532663E+03  0.15294330000E+03 0.  0.
<mgrwt>
<rscale>  0 0.53246152E+03</rscale>
<asrwt>0</asrwt>
<pdfrwt beam="1">  1        2 0.41695172E+00 0.68695065E+03</pdfrwt>
<pdfrwt beam="2">  1       -2 0.31013544E-01 0.68695065E+03</pdfrwt>
<totfact> 0.26742709E+01</totfact>
</mgrwt>
</event>
<event>
 4    1  0.2665544E-007  0.1204647E+04  0.7818608E-02  0.9152618E-01
          2   -1    0    0  501    0  0.00000000000E+00  0.00000000000E+00  0.78000413666E+03  0.78000413667E+03  0.25500000000E-02 0. -1.
         -2   -1    0    0    0  501 -0.00000000000E+00 -0.00000000000E+00 -0.24053715277E+04  0.24053715277E+04  0.25500000000E-02 0.  1.
    8880023    1    1    2    0    0  0.86276076186E+03 -0.52250220229E+03 -0.17843133191E+04  0.21528931489E+04  0.65864270000E+03 0.  0.
    8880022    1    1    2    0    0 -0.86276076186E+03  0.52250220229E+03  0.15894592810E+03  0.10324825154E+04  0.15294330000E+03 0.  0.
<mgrwt>
<rscale>  0 0.11556160E+04</rscale>
<asrwt>0</asrwt>
<pdfrwt beam="1">  1        2 0.12000064E+00 0.12046472E+04</pdfrwt>
<pdfrwt beam="2">  1       -2 0.37005715E+00 0.12046472E+04</pdfrwt>
<totfact> 0.40764466E-01</totfact>
</mgrwt>
</event>
<event>
 4    1  0.2665544E-007  0.1149245E+04  0.7818608E-02  0.9208112E-01
          2   -1    0    0  501    0  0.00000000000E+00  0.00000000000E+00  0.19390670506E+04  0.19390670506E+04  0.25500000000E-02 0. -1.
         -2   -1    0    0    0  501 -0.00000000000E+00 -0.00000000000E+00 -0.68796011140E+03  0.68796011141E+03  0.25500000000E-02 0.  1.
    8880023    1    1    2    0    0 -0.29107264730E+03  0.89567287265E+03  0.13261995888E+03  0.11568714019E+04  0.65864270000E+03 0.  1.
    8880022    1    1    2    0    0  0.29107264730E+03 -0.89567287265E+03  0.11184869803E+04  0.14701557601E+04  0.15294330000E+03 0.  0.
<mgrwt>
<rscale>  0 0.10970088E+04</rscale>
<asrwt>0</asrwt>
<pdfrwt beam="1">  1        2 0.29831800E+00 0.11492447E+04</pdfrwt>
<pdfrwt beam="2">  1       -2 0.10584002E+00 0.11492447E+04</pdfrwt>
<totfact> 0.51196544E+00</totfact>
</mgrwt>
</event>
<event>
 4    1  0.2665544E-007  0.1345304E+04  0.7818608E-02  0.9027392E-01
          2   -1    0    0  501    0  0.00000000000E+00  0.00000000000E+00  0.21030862579E+04  0.21030862579E+04  0.25500000000E-02 0. -1.
         -2   -1    0    0    0  501 -0.00000000000E+00 -0.00000000000E+00 -0.89981908888E+03  0.89981908889E+03  0.25500000000E-02 0.  1.
    8880023    1    1    2    0    0  0.63920343301E+03  0.98359167803E+03  0.12253805522E+04  0.18197256172E+04  0.65864270000E+03 0.  0.
    8880022    1    1    2    0    0 -0.63920343301E+03 -0.98359167803E+03 -0.22113383152E+02  0.11831797296E+04  0.15294330000E+03 0.  0.
<mgrwt>
<rscale>  0 0.13027441E+04</rscale>
<asrwt>0</asrwt>
<pdfrwt beam="1">  1        2 0.32355173E+00 0.13453044E+04</pdfrwt>
<pdfrwt beam="2">  1       -2 0.13843371E+00 0.13453044E+04</pdfrwt>
<totfact> 0.20779438E+00</totfact>
</mgrwt>
</event>
<event>
 4    1  0.2665544E-007  0.8890161E+03  0.7818608E-02  0.9543899E-01
          2   -1    0    0  501    0  0.00000000000E+00  0.00000000000E+00  0.16760628994E+04  0.16760628994E+04  0.25500000000E-02 0. -1.
         -2   -1    0    0    0  501 -0.00000000000E+00 -0.00000000000E+00 -0.68404443709E+03  0.68404443709E+03  0.25500000000E-02 0.  1.
    8880023    1    1    2    0    0 -0.49197431424E+03 -0.33837963000E+03  0.13728502327E+04  0.16355633487E+04  0.65864270000E+03 0. -1.
    8880022    1    1    2    0    0  0.49197431424E+03  0.33837963000E+03 -0.38083177041E+03  0.72454398779E+03  0.15294330000E+03 0.  0.
<mgrwt>
<rscale>  0 0.81123251E+03</rscale>
<asrwt>0</asrwt>
<pdfrwt beam="1">  1        2 0.25785583E+00 0.88901615E+03</pdfrwt>
<pdfrwt beam="2">  1       -2 0.10523761E+00 0.88901615E+03</pdfrwt>
<totfact> 0.74624190E+00</totfact>
</mgrwt>
</event>
<event>
 4    1  0.2665544E-007  0.6852222E+03  0.7818608E-02  0.1006512E+00
         -2   -1    0    0    0  501 -0.00000000000E+00  0.00000000000E+00  0.83422900146E+03  0.83422900147E+03  0.25500000000E-02 0.  1.
          2   -1    0    0  501    0  0.00000000000E+00 -0.00000000000E+00 -0.43905692277E+03  0.43905692278E+03  0.25500000000E-02 0. -1.
    8880023    1    1    2    0    0  0.12512200103E+03 -0.14164652317E+03 -0.12736282627E+03  0.69695821141E+03  0.65864270000E+03 0. -1.
    8880022    1    1    2    0    0 -0.12512200103E+03  0.14164652317E+03  0.52253490496E+03  0.57632771284E+03  0.15294330000E+03 0.  0.
<mgrwt>
<rscale>  0 0.52884940E+03</rscale>
<asrwt>0</asrwt>
<pdfrwt beam="1">  1        2 0.67547220E-01 0.68522220E+03</pdfrwt>
<pdfrwt beam="2">  1       -2 0.12834292E+00 0.68522220E+03</pdfrwt>
<totfact> 0.32639944E+01</totfact>
</mgrwt>
</event>
<event>
 4    1  0.2665544E-007  0.7133174E+03  0.7818608E-02  0.9945883E-01
         -2   -1    0    0    0  501 -0.00000000000E+00  0.00000000000E+00  0.20509513699E+03  0.20509513701E+03  0.25500000000E-02 0.  1.
          2   -1    0    0  501    0  0.00000000000E+00 -0.00000000000E+00 -0.23712086795E+04  0.23712086795E+04  0.25500000000E-02 0. -1.
    8880023    1    1    2    0    0  0.17823152551E+03 -0.20795423133E+03 -0.21465881662E+04  0.22620040673E+04  0.65864270000E+03 0.  0.
    8880022    1    1    2    0    0 -0.17823152551E+03  0.20795423133E+03 -0.19525376315E+02  0.31429974920E+03  0.15294330000E+03 0.  0.
<mgrwt>
<rscale>  0 0.58088236E+03</rscale>
<asrwt>0</asrwt>
<pdfrwt beam="1">  1        2 0.36480132E+00 0.71331735E+03</pdfrwt>
<pdfrwt beam="2">  1       -2 0.31553100E-01 0.71331735E+03</pdfrwt>
<totfact> 0.40208616E+01</totfact>
</mgrwt>
</event>
<event>
 4    1  0.2665544E-007  0.1105738E+04  0.7818608E-02  0.9254694E-01
         -2   -1    0    0    0  501 -0.00000000000E+00  0.00000000000E+00  0.73239376190E+03  0.73239376191E+03  0.25500000000E-02 0.  1.
          2   -1    0    0  501    0  0.00000000000E+00 -0.00000000000E+00 -0.22323093008E+04  0.22323093008E+04  0.25500000000E-02 0. -1.
    8880023    1    1    2    0    0 -0.35595844460E+03  0.81372028452E+03 -0.17127512353E+04  0.20386696927E+04  0.65864270000E+03 0.  0.
    8880022    1    1    2    0    0  0.35595844460E+03 -0.81372028452E+03  0.21283569638E+03  0.92603337002E+03  0.15294330000E+03 0.  0.
<mgrwt>
<rscale>  0 0.10506299E+04</rscale>
<asrwt>0</asrwt>
<pdfrwt beam="1">  1        2 0.34343220E+00 0.11057384E+04</pdfrwt>
<pdfrwt beam="2">  1       -2 0.11267596E+00 0.11057384E+04</pdfrwt>
<totfact> 0.30369814E+00</totfact>
</mgrwt>
</event>
<event>
 4    1  0.2665544E-007  0.6931277E+03  0.7818608E-02  0.1002700E+00
         -2   -1    0    0    0  501 -0.00000000000E+00  0.00000000000E+00  0.68107839167E+03  0.68107839168E+03  0.25500000000E-02 0.  1.
          2   -1    0    0  501    0  0.00000000000E+00 -0.00000000000E+00 -0.70065310889E+03  0.70065310890E+03  0.25500000000E-02 0. -1.
    8880023    1    1    2    0    0 -0.18242461905E+03 -0.11548637892E+03 -0.48527252420E+03  0.84611788443E+03  0.65864270000E+03 0. -1.
    8880022    1    1    2    0    0  0.18242461905E+03  0.11548637892E+03  0.46569780698E+03  0.53561361614E+03  0.15294330000E+03 0.  0.
<mgrwt>
<rscale>  0 0.54481998E+03</rscale>
<asrwt>0</asrwt>
<pdfrwt beam="1">  1        2 0.10779279E+00 0.69312773E+03</pdfrwt>
<pdfrwt beam="2">  1       -2 0.10478129E+00 0.69312773E+03</pdfrwt>
<totfact> 0.30793154E+01</totfact>
</mgrwt>
</event>
<event>
 4    1  0.2665544E-007  0.1179038E+04  0.7818608E-02  0.9177773E-01
         -2   -1    0    0    0  501 -0.00000000000E+00  0.00000000000E+00  0.14356961149E+04  0.14356961149E+04  0.25500000000E-02 0.  1.
          2   -1    0    0  501    0  0.00000000000E+00 -0.00000000000E+00 -0.12017995814E+04  0.12017995814E+04  0.25500000000E-02 0. -1.
    8880023    1    1    2    0    0 -0.25343780876E+03  0.94450472477E+03 -0.61834546140E+03  0.13313456403E+04  0.65864270000E+03 0. -1.
    8880022    1    1    2    0    0  0.25343780876E+03 -0.94450472477E+03  0.85224199488E+03  0.13061500560E+04  0.15294330000E+03 0.  0.
<mgrwt>
<rscale>  0 0.11285819E+04</rscale>
<asrwt>0</asrwt>
<pdfrwt beam="1">  1        2 0.18489224E+00 0.11790378E+04</pdfrwt>
<pdfrwt beam="2">  1       -2 0.22087633E+00 0.11790378E+04</pdfrwt>
<totfact> 0.17948159E+00</totfact>
</mgrwt>
</event>
<event>
 4    1  0.2665544E-007  0.7176434E+03  0.7818608E-02  0.9930642E-01
          2   -1    0    0  501    0  0.00000000000E+00  0.00000000000E+00  0.14197936831E+04  0.14197936831E+04  0.25500000000E-02 0. -1.
         -2   -1    0    0    0  501 -0.00000000000E+00 -0.00000000000E+00 -0.37434524098E+03  0.37434524099E+03  0.25500000000E-02 0.  1.
    8880023    1    1    2    0    0 -0.27309676411E+03  0.81362990599E+02  0.12283279610E+04  0.14226037975E+04  0.65864270000E+03 0. -1.
    8880022    1    1    2    0    0  0.27309676411E+03 -0.81362990599E+02 -0.18287951887E+03  0.37153512653E+03  0.15294330000E+03 0.  0.
<mgrwt>
<rscale>  0 0.58798948E+03</rscale>
<asrwt>0</asrwt>
<pdfrwt beam="1">  1        2 0.21842980E+00 0.71764336E+03</pdfrwt>
<pdfrwt beam="2">  1       -2 0.57591575E-01 0.71764336E+03</pdfrwt>
<totfact> 0.40794773E+01</totfact>
</mgrwt>
</event>
<event>
 4    1  0.2665544E-007  0.1050672E+04  0.7818608E-02  0.9318074E-01
          2   -1    0    0  501    0  0.00000000000E+00  0.00000000000E+00  0.10612803321E+04  0.10612803321E+04  0.25500000000E-02 0. -1.
         -2   -1    0    0    0  501 -0.00000000000E+00 -0.00000000000E+00 -0.15337436243E+04  0.15337436243E+04  0.25500000000E-02 0.  1.
    8880023    1    1    2    0    0  0.16623550810E+03 -0.80154005055E+03  0.62106658408E+03  0.12205058807E+04  0.65864270000E+03 0.  0.
    8880022    1    1    2    0    0 -0.16623550810E+03  0.80154005055E+03 -0.10935298763E+04  0.13745180756E+04  0.15294330000E+03 0.  0.
<mgrwt>
<rscale>  0 0.99135789E+03</rscale>
<asrwt>0</asrwt>
<pdfrwt beam="1">  1        2 0.16327390E+00 0.10506716E+04</pdfrwt>
<pdfrwt beam="2">  1       -2 0.23596056E+00 0.10506716E+04</pdfrwt>
<totfact> 0.17874728E+00</totfact>
</mgrwt>
</event>
<event>
 4    1  0.2665544E-007  0.6647779E+03  0.7818608E-02  0.1019720E+00
         -2   -1    0    0    0  501 -0.00000000000E+00  0.00000000000E+00  0.66874208770E+03  0.66874208770E+03  0.25500000000E-02 0.  1.
          2   -1    0    0  501    0  0.00000000000E+00 -0.00000000000E+00 -0.33558148445E+03  0.33558148446E+03  0.25500000000E-02 0. -1.
    8880023    1    1    2    0    0 -0.54079433315E+02  0.72075477042E+02  0.45542023364E+02  0.66633605760E+03  0.65864270000E+03 0. -1.
    8880022    1    1    2    0    0  0.54079433315E+02 -0.72075477042E+02  0.28761857988E+03  0.33798751457E+03  0.15294330000E+03 0.  0.
<mgrwt>
<rscale>  0 0.47787620E+03</rscale>
<asrwt>0</asrwt>
<pdfrwt beam="1">  1        2 0.51627920E-01 0.66477791E+03</pdfrwt>
<pdfrwt beam="2">  1       -2 0.10288340E+00 0.66477791E+03</pdfrwt>
<totfact> 0.75890466E+01</totfact>
</mgrwt>
</event>
<event>
 4    1  0.2665544E-007  0.8085440E+03  0.7818608E-02  0.9692618E-01
         -2   -1    0    0    0  501 -0.00000000000E+00  0.00000000000E+00  0.86948220657E+03  0.86948220657E+03  0.25500000000E-02 0.  1.
          2   -1    0    0  501    0  0.00000000000E+00 -0.00000000000E+00 -0.81319948315E+03  0.81319948315E+03  0.25500000000E-02 0. -1.
    8880023    1    1    2    0    0 -0.45413247021E+03 -0.11703396525E+03 -0.49096123464E+03  0.94593149314E+03  0.65864270000E+03 0. -1.
    8880022    1    1    2    0    0  0.45413247021E+03  0.11703396525E+03  0.54724395806E+03  0.73675019659E+03  0.15294330000E+03 0.  0.
<mgrwt>
<rscale>  0 0.71458036E+03</rscale>
<asrwt>0</asrwt>
<pdfrwt beam="1">  1        2 0.12510761E+00 0.80854403E+03</pdfrwt>
<pdfrwt beam="2">  1       -2 0.13376649E+00 0.80854403E+03</pdfrwt>
<totfact> 0.13737365E+01</totfact>
</mgrwt>
</event>
<event>
 4    1  0.2665544E-007  0.1098304E+04  0.7818608E-02  0.9262947E-01
          2   -1    0    0  501    0  0.00000000000E+00  0.00000000000E+00  0.13854257231E+04  0.13854257231E+04  0.25500000000E-02 0. -1.
         -2   -1    0    0    0  501 -0.00000000000E+00 -0.00000000000E+00 -0.89353822968E+03  0.89353822969E+03  0.25500000000E-02 0.  1.
    8880023    1    1    2    0    0  0.44299412850E+03 -0.75909028359E+03  0.77363696590E+03  0.13434233204E+04  0.65864270000E+03 0.  0.
    8880022    1    1    2    0    0 -0.44299412850E+03  0.75909028359E+03 -0.28174947251E+03  0.93554063236E+03  0.15294330000E+03 0.  0.
<mgrwt>
<rscale>  0 0.10426682E+04</rscale>
<asrwt>0</asrwt>
<pdfrwt beam="1">  1        2 0.21314242E+00 0.10983042E+04</pdfrwt>
<pdfrwt beam="2">  1       -2 0.13746742E+00 0.10983042E+04</pdfrwt>
<totfact> 0.54582689E+00</totfact>
</mgrwt>
</event>
<event>
 4    1  0.2665544E-007  0.8463008E+03  0.7818608E-02  0.9618412E-01
         -2   -1    0    0    0  501 -0.00000000000E+00  0.00000000000E+00  0.44872971684E+03  0.44872971685E+03  0.25500000000E-02 0.  1.
          2   -1    0    0  501    0  0.00000000000E+00 -0.00000000000E+00 -0.25523945452E+04  0.25523945452E+04  0.25500000000E-02 0. -1.
    8880023    1    1    2    0    0 -0.75741567460E+02  0.52600197070E+03 -0.22708358751E+04  0.24234109507E+04  0.65864270000E+03 0. -1.
    8880022    1    1    2    0    0  0.75741567460E+02 -0.52600197070E+03  0.16717104672E+03  0.57771331134E+03  0.15294330000E+03 0.  0.
<mgrwt>
<rscale>  0 0.76089444E+03</rscale>
<asrwt>0</asrwt>
<pdfrwt beam="1">  1        2 0.39267608E+00 0.84630081E+03</pdfrwt>
<pdfrwt beam="2">  1       -2 0.69035342E-01 0.84630081E+03</pdfrwt>
<totfact> 0.64320297E+00</totfact>
</mgrwt>
</event>
<event>
 4    1  0.2665544E-007  0.6593517E+03  0.7818608E-02  0.1024831E+00
         -2   -1    0    0    0  501 -0.00000000000E+00  0.00000000000E+00  0.15653818436E+04  0.15653818436E+04  0.25500000000E-02 0.  1.
          2   -1    0    0  501    0  0.00000000000E+00 -0.00000000000E+00 -0.44465187041E+03  0.44465187041E+03  0.25500000000E-02 0. -1.
    8880023    1    1    2    0    0 -0.30525312019E+02  0.16220401830E+01 -0.19304694612E+03  0.68703111673E+03  0.65864270000E+03 0. -1.
    8880022    1    1    2    0    0  0.30525312019E+02 -0.16220401830E+01  0.13137769193E+04  0.13230025973E+04  0.15294330000E+03 0.  0.
<mgrwt>
<rscale>  0 0.45982952E+03</rscale>
<asrwt>0</asrwt>
<pdfrwt beam="1">  1        2 0.68407980E-01 0.65935168E+03</pdfrwt>
<pdfrwt beam="2">  1       -2 0.24082798E+00 0.65935168E+03</pdfrwt>
<totfact> 0.53635973E+00</totfact>
</mgrwt>
</event>
<event>
 4    1  0.2665544E-007  0.8350871E+03  0.7818608E-02  0.9639514E-01
         -2   -1    0    0    0  501 -0.00000000000E+00  0.00000000000E+00  0.30024904076E+03  0.30024904077E+03  0.25500000000E-02 0.  1.
          2   -1    0    0  501    0  0.00000000000E+00 -0.00000000000E+00 -0.21227698662E+04  0.21227698662E+04  0.25500000000E-02 0. -1.
    8880023    1    1    2    0    0 -0.21884218105E+03  0.46440114889E+03 -0.44770401052E+03  0.94752805478E+03  0.65864270000E+03 0.  1.
    8880022    1    1    2    0    0  0.21884218105E+03 -0.46440114889E+03 -0.13748168150E+04  0.14754908522E+04  0.15294330000E+03 0.  0.
<mgrwt>
<rscale>  0 0.74735166E+03</rscale>
<asrwt>0</asrwt>
<pdfrwt beam="1">  1        2 0.32657997E+00 0.83508714E+03</pdfrwt>
<pdfrwt beam="2">  1       -2 0.46192162E-01 0.83508714E+03</pdfrwt>
<totfact> 0.25973210E+01</totfact>
</mgrwt>
</event>
<event>
 4    1  0.2665544E-007  0.1267106E+04  0.7818608E-02  0.9094499E-01
          2   -1    0    0  501    0  0.00000000000E+00  0.00000000000E+00  0.13676134319E+04  0.13676134319E+04  0.25500000000E-02 0. -1.
         -2   -1    0    0    0  501 -0.00000000000E+00 -0.00000000000E+00 -0.11043169569E+04  0.11043169569E+04  0.25500000000E-02 0.  1.
    8880023    1    1    2    0    0  0.87328674666E+03 -0.63962381063E+03  0.48445487759E+03  0.13565600229E+04  0.65864270000E+03 0. -1.
    8880022    1    1    2    0    0 -0.87328674666E+03  0.63962381063E+03 -0.22115840256E+03  0.11153703659E+04  0.15294330000E+03 0.  1.
<mgrwt>
<rscale>  0 0.12212010E+04</rscale>
<asrwt>0</asrwt>
<pdfrwt beam="1">  1        2 0.21040207E+00 0.12671064E+04</pdfrwt>
<pdfrwt beam="2">  1       -2 0.16989492E+00 0.12671064E+04</pdfrwt>
<totfact> 0.31117026E+00</totfact>
</mgrwt>
</event>
<event>
 4    1  0.2665544E-007  0.1154513E+04  0.7818608E-02  0.9202659E-01
         -2   -1    0    0    0  501 -0.00000000000E+00  0.00000000000E+00  0.99178621773E+03  0.99178621773E+03  0.25500000000E-02 0.  1.
          2   -1    0    0  501    0  0.00000000000E+00 -0.00000000000E+00 -0.15899916062E+04  0.15899916062E+04  0.25500000000E-02 0. -1.
    8880023    1    1    2    0    0  0.80332591188E+02 -0.94479485000E+03 -0.10126687791E+04  0.15357079463E+04  0.65864270000E+03 0. -1.
    8880022    1    1    2    0    0 -0.80332591188E+02  0.94479485000E+03  0.41446339062E+03  0.10460698777E+04  0.15294330000E+03 0.  0.
<mgrwt>
<rscale>  0 0.11026024E+04</rscale>
<asrwt>0</asrwt>
<pdfrwt beam="1">  1        2 0.24461409E+00 0.11545132E+04</pdfrwt>
<pdfrwt beam="2">  1       -2 0.15258250E+00 0.11545132E+04</pdfrwt>
<totfact> 0.31578919E+00</totfact>
</mgrwt>
</event>
<event>
 4    1  0.2665544E-007  0.1046141E+04  0.7818608E-02  0.9323535E-01
         -2   -1    0    0    0  501 -0.00000000000E+00  0.00000000000E+00  0.10520739728E+04  0.10520739728E+04  0.25500000000E-02 0.  1.
          2   -1    0    0  501    0  0.00000000000E+00 -0.00000000000E+00 -0.16097991766E+04  0.16097991766E+04  0.25500000000E-02 0. -1.
    8880023    1    1    2    0    0  0.33528318887E+03 -0.74039597797E+03 -0.12165517649E+04  0.16044966263E+04  0.65864270000E+03 0.  0.
    8880022    1    1    2    0    0 -0.33528318887E+03  0.74039597797E+03  0.65882656107E+03  0.10573765231E+04  0.15294330000E+03 0.  0.
<mgrwt>
<rscale>  0 0.98644786E+03</rscale>
<asrwt>0</asrwt>
<pdfrwt beam="1">  1        2 0.24766141E+00 0.10461411E+04</pdfrwt>
<pdfrwt beam="2">  1       -2 0.16185753E+00 0.10461411E+04</pdfrwt>
<totfact> 0.26549140E+00</totfact>
</mgrwt>
</event>
<event>
 4    1  0.2665544E-007  0.1031954E+04  0.7818608E-02  0.9340896E-01
         -2   -1    0    0    0  501 -0.00000000000E+00  0.00000000000E+00  0.36903760063E+03  0.36903760064E+03  0.25500000000E-02 0.  1.
          2   -1    0    0  501    0  0.00000000000E+00 -0.00000000000E+00 -0.27663341231E+04  0.27663341231E+04  0.25500000000E-02 0. -1.
    8880023    1    1    2    0    0  0.15899923385E+03 -0.77835634793E+03 -0.19616145853E+04  0.22164975408E+04  0.65864270000E+03 0.  1.
    8880022    1    1    2    0    0 -0.15899923385E+03  0.77835634793E+03 -0.43568193717E+03  0.91887418297E+03  0.15294330000E+03 0.  0.
<mgrwt>
<rscale>  0 0.97103515E+03</rscale>
<asrwt>0</asrwt>
<pdfrwt beam="1">  1        2 0.42558985E+00 0.10319542E+04</pdfrwt>
<pdfrwt beam="2">  1       -2 0.56775017E-01 0.10319542E+04</pdfrwt>
<totfact> 0.71431123E+00</totfact>
</mgrwt>
</event>
<event>
 4    1  0.2665544E-007  0.1308745E+04  0.7818608E-02  0.9058045E-01
         -2   -1    0    0    0  501 -0.00000000000E+00  0.00000000000E+00  0.10512638743E+04  0.10512638743E+04  0.25500000000E-02 0.  1.
          2   -1    0    0  501    0  0.00000000000E+00 -0.00000000000E+00 -0.21862609323E+04  0.21862609323E+04  0.25500000000E-02 0. -1.
    8880023    1    1    2    0    0  0.10281726021E+04 -0.47102503083E+03 -0.15450710473E+04  0.20248600511E+04  0.65864270000E+03 0.  0.
    8880022    1    1    2    0    0 -0.10281726021E+04  0.47102503083E+03  0.41007398929E+03  0.12126647554E+04  0.15294330000E+03 0.  0.
<mgrwt>
<rscale>  0 0.12646902E+04</rscale>
<asrwt>0</asrwt>
<pdfrwt beam="1">  1        2 0.33634783E+00 0.13087451E+04</pdfrwt>
<pdfrwt beam="2">  1       -2 0.16173290E+00 0.13087451E+04</pdfrwt>
<totfact> 0.12363383E+00</totfact>
</mgrwt>
</event>
<event>
 4    1  0.2665544E-007  0.1674021E+04  0.7818608E-02  0.8795623E-01
         -2   -1    0    0    0  501 -0.00000000000E+00  0.00000000000E+00  0.97141918452E+03  0.97141918452E+03  0.25500000000E-02 0.  1.
          2   -1    0    0  501    0  0.00000000000E+00 -0.00000000000E+00 -0.35880509909E+04  0.35880509909E+04  0.25500000000E-02 0. -1.
    8880023    1    1    2    0    0 -0.14301289022E+04 -0.56856671892E+03 -0.24997098457E+04  0.30084707593E+04  0.65864270000E+03 0. -1.
    8880022    1    1    2    0    0  0.14301289022E+04  0.56856671892E+03 -0.11692196066E+03  0.15509994161E+04  0.15294330000E+03 0.  0.
<mgrwt>
<rscale>  0 0.16412103E+04</rscale>
<asrwt>0</asrwt>
<pdfrwt beam="1">  1        2 0.55200784E+00 0.16740212E+04</pdfrwt>
<pdfrwt beam="2">  1       -2 0.14944911E+00 0.16740212E+04</pdfrwt>
<totfact> 0.19910396E-01</totfact>
</mgrwt>
</event>
<event>
 4    1  0.2665544E-007  0.6890737E+03  0.7818608E-02  0.1004596E+00
          2   -1    0    0  501    0  0.00000000000E+00  0.00000000000E+00  0.73435262400E+03  0.73435262401E+03  0.25500000000E-02 0. -1.
         -2   -1    0    0    0  501 -0.00000000000E+00 -0.00000000000E+00 -0.16089227040E+04  0.16089227040E+04  0.25500000000E-02 0.  1.
    8880023    1    1    2    0    0 -0.16805293757E+03 -0.11300663524E+03  0.55907091350E+03  0.88734592015E+03  0.65864270000E+03 0. -1.
    8880022    1    1    2    0    0  0.16805293757E+03  0.11300663524E+03 -0.14336409935E+04  0.14559294078E+04  0.15294330000E+03 0.  0.
<mgrwt>
<rscale>  0 0.53680097E+03</rscale>
<asrwt>0</asrwt>
<pdfrwt beam="1">  1        2 0.11297733E+00 0.68907365E+03</pdfrwt>
<pdfrwt beam="2">  1       -2 0.24752657E+00 0.68907365E+03</pdfrwt>
<totfact> 0.26688570E+00</totfact>
</mgrwt>
</event>
<event>
 4    1  0.2665544E-007  0.1304646E+04  0.7818608E-02  0.9061559E-01
         -2   -1    0    0    0  501 -0.00000000000E+00  0.00000000000E+00  0.97428461187E+03  0.97428461188E+03  0.25500000000E-02 0.  1.
          2   -1    0    0  501    0  0.00000000000E+00 -0.00000000000E+00 -0.23499302973E+04  0.23499302973E+04  0.25500000000E-02 0. -1.
    8880023    1    1    2    0    0 -0.71571653553E+03 -0.86950543765E+03  0.26213898728E+03  0.13307204516E+04  0.65864270000E+03 0.  1.
    8880022    1    1    2    0    0  0.71571653553E+03  0.86950543765E+03 -0.16377846727E+04  0.19934944576E+04  0.15294330000E+03 0.  0.
<mgrwt>
<rscale>  0 0.12604158E+04</rscale>
<asrwt>0</asrwt>
<pdfrwt beam="1">  1        2 0.36152774E+00 0.13046456E+04</pdfrwt>
<pdfrwt beam="2">  1       -2 0.14988994E+00 0.13046456E+04</pdfrwt>
<totfact> 0.12290480E+00</totfact>
</mgrwt>
</event>
<event>
 4    1  0.2665544E-007  0.7019177E+03  0.7818608E-02  0.9989337E-01
          2   -1    0    0  501    0  0.00000000000E+00  0.00000000000E+00  0.27993710134E+04  0.27993710134E+04  0.25500000000E-02 0. -1.
         -2   -1    0    0    0  501 -0.00000000000E+00 -0.00000000000E+00 -0.42840561961E+03  0.42840561962E+03  0.25500000000E-02 0.  1.
    8880023    1    1    2    0    0 -0.12077142998E+03  0.21045774850E+03  0.27008873239E+04  0.27906058025E+04  0.65864270000E+03 0. -1.
    8880022    1    1    2    0    0  0.12077142998E+03 -0.21045774850E+03 -0.32992193004E+03  0.43717083061E+03  0.15294330000E+03 0.  0.
<mgrwt>
<rscale>  0 0.56120266E+03</rscale>
<asrwt>0</asrwt>
<pdfrwt beam="1">  1        2 0.43067246E+00 0.70191767E+03</pdfrwt>
<pdfrwt beam="2">  1       -2 0.65908558E-01 0.70191767E+03</pdfrwt>
<totfact> 0.52427717E+00</totfact>
</mgrwt>
</event>
<event>
 4    1  0.2665544E-007  0.1041220E+04  0.7818608E-02  0.9329511E-01
          2   -1    0    0  501    0  0.00000000000E+00  0.00000000000E+00  0.14414466578E+04  0.14414466578E+04  0.25500000000E-02 0. -1.
         -2   -1    0    0    0  501 -0.00000000000E+00 -0.00000000000E+00 -0.10355517037E+04  0.10355517037E+04  0.25500000000E-02 0.  1.
    8880023    1    1    2    0    0 -0.77209298972E+03 -0.23281202051E+03  0.10156125818E+04  0.14545130265E+04  0.65864270000E+03 0.  0.
    8880022    1    1    2    0    0  0.77209298972E+03  0.23281202051E+03 -0.60971762771E+03  0.10224853350E+04  0.15294330000E+03 0.  0.
<mgrwt>
<rscale>  0 0.98110815E+03</rscale>
<asrwt>0</asrwt>
<pdfrwt beam="1">  1        2 0.22176102E+00 0.10412201E+04</pdfrwt>
<pdfrwt beam="2">  1       -2 0.15931565E+00 0.10412201E+04</pdfrwt>
<totfact> 0.34486173E+00</totfact>
</mgrwt>
</event>
<event>
 4    1  0.2665544E-007  0.1447136E+04  0.7818608E-02  0.8947897E-01
         -2   -1    0    0    0  501 -0.00000000000E+00  0.00000000000E+00  0.85861839522E+03  0.85861839522E+03  0.25500000000E-02 0.  1.
          2   -1    0    0  501    0  0.00000000000E+00 -0.00000000000E+00 -0.27310156109E+04  0.27310156109E+04  0.25500000000E-02 0. -1.
    8880023    1    1    2    0    0  0.95351909111E+03 -0.86671361752E+03 -0.17724516985E+04  0.22881840795E+04  0.65864270000E+03 0.  0.
    8880022    1    1    2    0    0 -0.95351909111E+03  0.86671361752E+03 -0.99945517092E+02  0.13014499265E+04  0.15294330000E+03 0.  0.
<mgrwt>
<rscale>  0 0.14082108E+04</rscale>
<asrwt>0</asrwt>
<pdfrwt beam="1">  1        2 0.42015624E+00 0.14471356E+04</pdfrwt>
<pdfrwt beam="2">  1       -2 0.13209514E+00 0.14471356E+04</pdfrwt>
<totfact> 0.10123376E+00</totfact>
</mgrwt>
</event>
<event>
 4    1  0.2665544E-007  0.8719282E+03  0.7818608E-02  0.9572688E-01
          2   -1    0    0  501    0  0.00000000000E+00  0.00000000000E+00  0.21333341078E+04  0.21333341078E+04  0.25500000000E-02 0. -1.
         -2   -1    0    0    0  501 -0.00000000000E+00 -0.00000000000E+00 -0.11538626104E+04  0.11538626104E+04  0.25500000000E-02 0.  1.
    8880023    1    1    2    0    0  0.12128616342E+03 -0.55833526897E+03  0.19582440746E+04  0.21435901352E+04  0.65864270000E+03 0. -1.
    8880022    1    1    2    0    0 -0.12128616342E+03  0.55833526897E+03 -0.97877257711E+03  0.11436065830E+04  0.15294330000E+03 0.  0.
<mgrwt>
<rscale>  0 0.79130566E+03</rscale>
<asrwt>0</asrwt>
<pdfrwt beam="1">  1        2 0.32820525E+00 0.87192822E+03</pdfrwt>
<pdfrwt beam="2">  1       -2 0.17751732E+00 0.87192822E+03</pdfrwt>
<totfact> 0.10836788E+00</totfact>
</mgrwt>
</event>
<event>
 4    1  0.2665544E-007  0.6957284E+03  0.7818608E-02  0.1001540E+00
          2   -1    0    0  501    0  0.00000000000E+00  0.00000000000E+00  0.19310649953E+04  0.19310649953E+04  0.25500000000E-02 0. -1.
         -2   -1    0    0    0  501 -0.00000000000E+00 -0.00000000000E+00 -0.12531804208E+03  0.12531804211E+03  0.25500000000E-02 0.  1.
    8880023    1    1    2    0    0  0.25593151690E+02  0.22264960064E+03  0.11149596081E+04  0.13142195357E+04  0.65864270000E+03 0.  0.
    8880022    1    1    2    0    0 -0.25593151690E+02 -0.22264960064E+03  0.69078734515E+03  0.74216350173E+03  0.15294330000E+03 0.  0.
<mgrwt>
<rscale>  0 0.54979898E+03</rscale>
<asrwt>0</asrwt>
<pdfrwt beam="1">  1        2 0.29708692E+00 0.69572844E+03</pdfrwt>
<pdfrwt beam="2">  1       -2 0.19279699E-01 0.69572844E+03</pdfrwt>
<totfact> 0.17073650E+02</totfact>
</mgrwt>
</event>
<event>
 4    1  0.2665544E-007  0.1020851E+04  0.7818608E-02  0.9354773E-01
          2   -1    0    0  501    0  0.00000000000E+00  0.00000000000E+00  0.30292155463E+04  0.30292155463E+04  0.25500000000E-02 0. -1.
         -2   -1    0    0    0  501 -0.00000000000E+00 -0.00000000000E+00 -0.13374290072E+04  0.13374290073E+04  0.25500000000E-02 0.  1.
    8880023    1    1    2    0    0  0.65868823972E+02 -0.77716619938E+03  0.28128784643E+04  0.29923939354E+04  0.65864270000E+03 0. -1.
    8880022    1    1    2    0    0 -0.65868823972E+02  0.77716619938E+03 -0.11210919253E+04  0.13742506181E+04  0.15294330000E+03 0.  0.
<mgrwt>
<rscale>  0 0.95893034E+03</rscale>
<asrwt>0</asrwt>
<pdfrwt beam="1">  1        2 0.46603315E+00 0.10208507E+04</pdfrwt>
<pdfrwt beam="2">  1       -2 0.20575831E+00 0.10208507E+04</pdfrwt>
<totfact> 0.20654075E-01</totfact>
</mgrwt>
</event>
<event>
 4    1  0.2665544E-007  0.6665993E+03  0.7818608E-02  0.1018228E+00
         -2   -1    0    0    0  501 -0.00000000000E+00  0.00000000000E+00  0.15846340421E+03  0.15846340423E+03  0.25500000000E-02 0.  1.
          2   -1    0    0  501    0  0.00000000000E+00 -0.00000000000E+00 -0.18729497318E+04  0.18729497318E+04  0.25500000000E-02 0. -1.
    8880023    1    1    2    0    0  0.62641927778E+01 -0.10249454684E+03 -0.17225354709E+04  0.18470200397E+04  0.65864270000E+03 0. -1.
    8880022    1    1    2    0    0 -0.62641927778E+01  0.10249454684E+03  0.80491433513E+01  0.18439309631E+03  0.15294330000E+03 0.  0.
<mgrwt>
<rscale>  0 0.48331608E+03</rscale>
<asrwt>0</asrwt>
<pdfrwt beam="1">  1        2 0.28814610E+00 0.66659926E+03</pdfrwt>
<pdfrwt beam="2">  1       -2 0.24378987E-01 0.66659926E+03</pdfrwt>
<totfact> 0.12167321E+02</totfact>
</mgrwt>
</event>
<event>
 4    1  0.2665544E-007  0.6796055E+03  0.7818608E-02  0.1009548E+00
          2   -1    0    0  501    0  0.00000000000E+00  0.00000000000E+00  0.14847867045E+04  0.14847867045E+04  0.25500000000E-02 0. -1.
         -2   -1    0    0    0  501 -0.00000000000E+00 -0.00000000000E+00 -0.86717418552E+03  0.86717418553E+03  0.25500000000E-02 0.  1.
    8880023    1    1    2    0    0 -0.95714407169E+02 -0.13744884390E+03  0.13898468375E+04  0.15471062893E+04  0.65864270000E+03 0. -1.
    8880022    1    1    2    0    0  0.95714407169E+02  0.13744884390E+03 -0.77223431858E+03  0.80485460068E+03  0.15294330000E+03 0.  0.
<mgrwt>
<rscale>  0 0.51654796E+03</rscale>
<asrwt>0</asrwt>
<pdfrwt beam="1">  1        2 0.22842872E+00 0.67960550E+03</pdfrwt>
<pdfrwt beam="2">  1       -2 0.13341141E+00 0.67960550E+03</pdfrwt>
<totfact> 0.54579428E+00</totfact>
</mgrwt>
</event>
<event>
 4    1  0.2665544E-007  0.1246702E+04  0.7818608E-02  0.9113010E-01
          2   -1    0    0  501    0  0.00000000000E+00  0.00000000000E+00  0.21359596083E+04  0.21359596083E+04  0.25500000000E-02 0. -1.
         -2   -1    0    0    0  501 -0.00000000000E+00 -0.00000000000E+00 -0.71791858521E+03  0.71791858522E+03  0.25500000000E-02 0.  1.
    8880023    1    1    2    0    0  0.86814687600E+03 -0.60562021705E+03  0.12604002644E+04  0.17728152409E+04  0.65864270000E+03 0. -1.
    8880022    1    1    2    0    0 -0.86814687600E+03  0.60562021705E+03  0.15764075861E+03  0.10810629526E+04  0.15294330000E+03 0.  0.
<mgrwt>
<rscale>  0 0.11998249E+04</rscale>
<asrwt>0</asrwt>
<pdfrwt beam="1">  1        2 0.32860916E+00 0.12467017E+04</pdfrwt>
<pdfrwt beam="2">  1       -2 0.11044902E+00 0.12467017E+04</pdfrwt>
<totfact> 0.35532832E+00</totfact>
</mgrwt>
</event>
<event>
 4    1  0.2665544E-007  0.1187094E+04  0.7818608E-02  0.9169771E-01
         -2   -1    0    0    0  501 -0.00000000000E+00  0.00000000000E+00  0.14349551661E+04  0.14349551661E+04  0.25500000000E-02 0.  1.
          2   -1    0    0  501    0  0.00000000000E+00 -0.00000000000E+00 -0.11508728683E+04  0.11508728683E+04  0.25500000000E-02 0. -1.
    8880023    1    1    2    0    0  0.11953264100E+03 -0.98035358672E+03 -0.52691568838E+03  0.12987807960E+04  0.65864270000E+03 0. -1.
    8880022    1    1    2    0    0 -0.11953264100E+03  0.98035358672E+03  0.81099798622E+03  0.12870472384E+04  0.15294330000E+03 0.  0.
<mgrwt>
<rscale>  0 0.11370959E+04</rscale>
<asrwt>0</asrwt>
<pdfrwt beam="1">  1        2 0.17705737E+00 0.11870937E+04</pdfrwt>
<pdfrwt beam="2">  1       -2 0.22076233E+00 0.11870937E+04</pdfrwt>
<totfact> 0.19283968E+00</totfact>
</mgrwt>
</event>
<event>
 4    1  0.2665544E-007  0.9428701E+03  0.7818608E-02  0.9460447E-01
         -2   -1    0    0    0  501 -0.00000000000E+00  0.00000000000E+00  0.18160893694E+04  0.18160893694E+04  0.25500000000E-02 0.  1.
          2   -1    0    0  501    0  0.00000000000E+00 -0.00000000000E+00 -0.16191102147E+04  0.16191102147E+04  0.25500000000E-02 0. -1.
    8880023    1    1    2    0    0  0.65058757250E+03  0.17868878240E+03 -0.14039590294E+04  0.16911845059E+04  0.65864270000E+03 0. -1.
    8880022    1    1    2    0    0 -0.65058757250E+03 -0.17868878240E+03  0.16009381841E+04  0.17440150782E+04  0.15294330000E+03 0.  0.
<mgrwt>
<rscale>  0 0.87263746E+03</rscale>
<asrwt>0</asrwt>
<pdfrwt beam="1">  1        2 0.24909388E+00 0.94287013E+03</pdfrwt>
<pdfrwt beam="2">  1       -2 0.27939837E+00 0.94287013E+03</pdfrwt>
<totfact> 0.46805381E-01</totfact>
</mgrwt>
</event>
<event>
 4    1  0.2665544E-007  0.6668956E+03  0.7818608E-02  0.1017993E+00
         -2   -1    0    0    0  501 -0.00000000000E+00  0.00000000000E+00  0.15047590909E+03  0.15047590911E+03  0.25500000000E-02 0.  1.
          2   -1    0    0  501    0  0.00000000000E+00 -0.00000000000E+00 -0.16026959678E+04  0.16026959678E+04  0.25500000000E-02 0. -1.
    8880023    1    1    2    0    0  0.80074545940E+02  0.67287935090E+02 -0.14148623359E+04  0.15641563972E+04  0.65864270000E+03 0. -1.
    8880022    1    1    2    0    0 -0.80074545940E+02 -0.67287935090E+02 -0.37357722864E+02  0.18901547976E+03  0.15294330000E+03 0.  0.
<mgrwt>
<rscale>  0 0.48417752E+03</rscale>
<asrwt>0</asrwt>
<pdfrwt beam="1">  1        2 0.24656860E+00 0.66689565E+03</pdfrwt>
<pdfrwt beam="2">  1       -2 0.23150141E-01 0.66689565E+03</pdfrwt>
<totfact> 0.18730779E+02</totfact>
</mgrwt>
</event>
<event>
 4    1  0.2665544E-007  0.1066182E+04  0.7818608E-02  0.9299677E-01
         -2   -1    0    0    0  501 -0.00000000000E+00  0.00000000000E+00  0.83670792968E+03  0.83670792969E+03  0.25500000000E-02 0.  1.
          2   -1    0    0  501    0  0.00000000000E+00 -0.00000000000E+00 -0.12582182208E+04  0.12582182208E+04  0.25500000000E-02 0. -1.
    8880023    1    1    2    0    0  0.69483834860E+03  0.46918404937E+03 -0.60111064189E+03  0.12239600536E+04  0.65864270000E+03 0.  1.
    8880022    1    1    2    0    0 -0.69483834860E+03 -0.46918404937E+03  0.17960035075E+03  0.87096609686E+03  0.15294330000E+03 0.  0.
<mgrwt>
<rscale>  0 0.10081263E+04</rscale>
<asrwt>0</asrwt>
<pdfrwt beam="1">  1        2 0.19357203E+00 0.10661821E+04</pdfrwt>
<pdfrwt beam="2">  1       -2 0.12872430E+00 0.10661821E+04</pdfrwt>
<totfact> 0.76800989E+00</totfact>
</mgrwt>
</event>
<event>
 4    1  0.2665544E-007  0.7198631E+03  0.7818608E-02  0.9923049E-01
         -2   -1    0    0    0  501 -0.00000000000E+00  0.00000000000E+00  0.52482781296E+03  0.52482781296E+03  0.25500000000E-02 0.  1.
          2   -1    0    0  501    0  0.00000000000E+00 -0.00000000000E+00 -0.58895018337E+03  0.58895018338E+03  0.25500000000E-02 0. -1.
    8880023    1    1    2    0    0 -0.18056368821E+03 -0.22757294868E+03 -0.21666837442E+03  0.75176331595E+03  0.65864270000E+03 0. -1.
    8880022    1    1    2    0    0  0.18056368821E+03  0.22757294868E+03  0.15254600400E+03  0.36201468040E+03  0.15294330000E+03 0.  0.
<mgrwt>
<rscale>  0 0.59157103E+03</rscale>
<asrwt>0</asrwt>
<pdfrwt beam="1">  1        2 0.90607721E-01 0.71986311E+03</pdfrwt>
<pdfrwt beam="2">  1       -2 0.80742740E-01 0.71986311E+03</pdfrwt>
<totfact> 0.69624105E+01</totfact>
</mgrwt>
</event>
<event>
 4    1  0.2665544E-007  0.7240600E+03  0.7818608E-02  0.9909080E-01
         -2   -1    0    0    0  501 -0.00000000000E+00  0.00000000000E+00  0.24085378021E+03  0.24085378023E+03  0.25500000000E-02 0.  1.
          2   -1    0    0  501    0  0.00000000000E+00 -0.00000000000E+00 -0.22651006081E+04  0.22651006081E+04  0.25500000000E-02 0. -1.
    8880023    1    1    2    0    0  0.22049915649E+03  0.20453076147E+03 -0.20435130999E+04  0.21679964728E+04  0.65864270000E+03 0. -1.
    8880022    1    1    2    0    0 -0.22049915649E+03 -0.20453076147E+03  0.19266272024E+02  0.33795791551E+03  0.15294330000E+03 0.  0.
<mgrwt>
<rscale>  0 0.59823232E+03</rscale>
<asrwt>0</asrwt>
<pdfrwt beam="1">  1        2 0.34847700E+00 0.72406002E+03</pdfrwt>
<pdfrwt beam="2">  1       -2 0.37054429E-01 0.72406002E+03</pdfrwt>
<totfact> 0.33908163E+01</totfact>
</mgrwt>
</event>
<event>
 4    1  0.2665544E-007  0.6668608E+03  0.7818608E-02  0.1018021E+00
         -2   -1    0    0    0  501 -0.00000000000E+00  0.00000000000E+00  0.10781160901E+03  0.10781160904E+03  0.25500000000E-02 0.  1.
          2   -1    0    0  501    0  0.00000000000E+00 -0.00000000000E+00 -0.20710688139E+04  0.20710688139E+04  0.25500000000E-02 0. -1.
    8880023    1    1    2    0    0  0.10423988948E+03 -0.52097948791E+01 -0.18382516043E+04  0.19554723888E+04  0.65864270000E+03 0. -1.
    8880022    1    1    2    0    0 -0.10423988948E+03  0.52097948791E+01 -0.12500560064E+03  0.22340803416E+03  0.15294330000E+03 0.  0.
<mgrwt>
<rscale>  0 0.48407651E+03</rscale>
<asrwt>0</asrwt>
<pdfrwt beam="1">  1        2 0.31862594E+00 0.66686078E+03</pdfrwt>
<pdfrwt beam="2">  1       -2 0.16586403E-01 0.66686078E+03</pdfrwt>
<totfact> 0.18620405E+02</totfact>
</mgrwt>
</event>
<event>
 4    1  0.2665544E-007  0.1004100E+04  0.7818608E-02  0.9376213E-01
          2   -1    0    0  501    0  0.00000000000E+00  0.00000000000E+00  0.22103443852E+04  0.22103443852E+04  0.25500000000E-02 0. -1.
         -2   -1    0    0    0  501 -0.00000000000E+00 -0.00000000000E+00 -0.60770341013E+03  0.60770341013E+03  0.25500000000E-02 0.  1.
    8880023    1    1    2    0    0 -0.75408415524E+03  0.75924127224E+02  0.17625621264E+04  0.20285075405E+04  0.65864270000E+03 0.  0.
    8880022    1    1    2    0    0  0.75408415524E+03 -0.75924127224E+02 -0.15992115134E+03  0.78954025479E+03  0.15294330000E+03 0.  0.
<mgrwt>
<rscale>  0 0.94059411E+03</rscale>
<asrwt>0</asrwt>
<pdfrwt beam="1">  1        2 0.34005298E+00 0.10041004E+04</pdfrwt>
<pdfrwt beam="2">  1       -2 0.93492833E-01 0.10041004E+04</pdfrwt>
<totfact> 0.49467883E+00</totfact>
</mgrwt>
</event>
<event>
 4    1  0.2665544E-007  0.1063064E+04  0.7818608E-02  0.9303339E-01
          2   -1    0    0  501    0  0.00000000000E+00  0.00000000000E+00  0.83588998047E+03  0.83588998048E+03  0.25500000000E-02 0. -1.
         -2   -1    0    0    0  501 -0.00000000000E+00 -0.00000000000E+00 -0.14755120405E+04  0.14755120405E+04  0.25500000000E-02 0.  1.
    8880023    1    1    2    0    0  0.40888721362E+03 -0.72739641832E+03  0.23949710067E+03  0.10897079289E+04  0.65864270000E+03 0.  0.
    8880022    1    1    2    0    0 -0.40888721362E+03  0.72739641832E+03 -0.87911916070E+03  0.12216940921E+04  0.15294330000E+03 0.  0.
<mgrwt>
<rscale>  0 0.10047600E+04</rscale>
<asrwt>0</asrwt>
<pdfrwt beam="1">  1        2 0.12859846E+00 0.10630637E+04</pdfrwt>
<pdfrwt beam="2">  1       -2 0.22700185E+00 0.10630637E+04</pdfrwt>
<totfact> 0.28644487E+00</totfact>
</mgrwt>
</event>
<event>
 4    1  0.2665544E-007  0.6661520E+03  0.7818608E-02  0.1018586E+00
         -2   -1    0    0    0  501 -0.00000000000E+00  0.00000000000E+00  0.17780785360E+03  0.17780785362E+03  0.25500000000E-02 0.  1.
          2   -1    0    0  501    0  0.00000000000E+00 -0.00000000000E+00 -0.13021478981E+04  0.13021478981E+04  0.25500000000E-02 0. -1.
    8880023    1    1    2    0    0 -0.53545879070E+02 -0.84149393126E+02 -0.11128603863E+04  0.12970029789E+04  0.65864270000E+03 0. -1.
    8880022    1    1    2    0    0  0.53545879070E+02  0.84149393126E+02 -0.11479658201E+02  0.18295277286E+03  0.15294330000E+03 0.  0.
<mgrwt>
<rscale>  0 0.48200395E+03</rscale>
<asrwt>0</asrwt>
<pdfrwt beam="1">  1        2 0.20033044E+00 0.66615200E+03</pdfrwt>
<pdfrwt beam="2">  1       -2 0.27355055E-01 0.66615200E+03</pdfrwt>
<totfact> 0.20418691E+02</totfact>
</mgrwt>
</event>
<event>
 4    1  0.2665544E-007  0.9331883E+03  0.7818608E-02  0.9474727E-01
          2   -1    0    0  501    0  0.00000000000E+00  0.00000000000E+00  0.34382146155E+04  0.34382146155E+04  0.25500000000E-02 0. -1.
         -2   -1    0    0    0  501 -0.00000000000E+00 -0.00000000000E+00 -0.42030859906E+03  0.42030859906E+03  0.25500000000E-02 0.  1.
    8880023    1    1    2    0    0 -0.29165198030E+03  0.59327006497E+03  0.30396086849E+04  0.31796322761E+04  0.65864270000E+03 0. -1.
    8880022    1    1    2    0    0  0.29165198030E+03 -0.59327006497E+03 -0.21702668386E+02  0.67889093854E+03  0.15294330000E+03 0.  0.
<mgrwt>
<rscale>  0 0.86173051E+03</rscale>
<asrwt>0</asrwt>
<pdfrwt beam="1">  1        2 0.52895607E+00 0.93318833E+03</pdfrwt>
<pdfrwt beam="2">  1       -2 0.64662865E-01 0.93318833E+03</pdfrwt>
<totfact> 0.20731753E+00</totfact>
</mgrwt>
</event>
<event>
 4    1  0.2665544E-007  0.8901575E+03  0.7818608E-02  0.9542020E-01
          2   -1    0    0  501    0  0.00000000000E+00  0.00000000000E+00  0.10371767752E+04  0.10371767752E+04  0.25500000000E-02 0. -1.
         -2   -1    0    0    0  501 -0.00000000000E+00 -0.00000000000E+00 -0.14901100184E+04  0.14901100184E+04  0.25500000000E-02 0.  1.
    8880023    1    1    2    0    0  0.52846215872E+03 -0.28159896326E+03  0.75708563007E+03  0.11685713871E+04  0.65864270000E+03 0. -1.
    8880022    1    1    2    0    0 -0.52846215872E+03  0.28159896326E+03 -0.12100188733E+04  0.13587154065E+04  0.15294330000E+03 0.  0.
<mgrwt>
<rscale>  0 0.81255479E+03</rscale>
<asrwt>0</asrwt>
<pdfrwt beam="1">  1        2 0.15956566E+00 0.89015753E+03</pdfrwt>
<pdfrwt beam="2">  1       -2 0.22924770E+00 0.89015753E+03</pdfrwt>
<totfact> 0.20790875E+00</totfact>
</mgrwt>
</event>
<event>
 4    1  0.2665544E-007  0.7184707E+03  0.7818608E-02  0.9927795E-01
          2   -1    0    0  501    0  0.00000000000E+00  0.00000000000E+00  0.32115598821E+04  0.32115598821E+04  0.25500000000E-02 0. -1.
         -2   -1    0    0    0  501 -0.00000000000E+00 -0.00000000000E+00 -0.26392890340E+03  0.26392890342E+03  0.25500000000E-02 0.  1.
    8880023    1    1    2    0    0 -0.21279377995E+03  0.19263630040E+03  0.30508139986E+04  0.31342728339E+04  0.65864270000E+03 0.  0.
    8880022    1    1    2    0    0  0.21279377995E+03 -0.19263630040E+03 -0.10318301992E+03  0.34121595160E+03  0.15294330000E+03 0.  0.
<mgrwt>
<rscale>  0 0.58932933E+03</rscale>
<asrwt>0</asrwt>
<pdfrwt beam="1">  1        2 0.49408611E+00 0.71847070E+03</pdfrwt>
<pdfrwt beam="2">  1       -2 0.40604449E-01 0.71847070E+03</pdfrwt>
<totfact> 0.78873260E+00</totfact>
</mgrwt>
</event>
<event>
 4    1  0.2665544E-007  0.8246951E+03  0.7818608E-02  0.9659743E-01
          2   -1    0    0  501    0  0.00000000000E+00  0.00000000000E+00  0.22075411625E+04  0.22075411625E+04  0.25500000000E-02 0. -1.
         -2   -1    0    0    0  501 -0.00000000000E+00 -0.00000000000E+00 -0.61079200335E+03  0.61079200336E+03  0.25500000000E-02 0.  1.
    8880023    1    1    2    0    0 -0.45624301858E+03 -0.19533096806E+03  0.19983523914E+04  0.21618358785E+04  0.65864270000E+03 0. -1.
    8880022    1    1    2    0    0  0.45624301858E+03  0.19533096806E+03 -0.40160323228E+03  0.65649728733E+03  0.15294330000E+03 0.  0.
<mgrwt>
<rscale>  0 0.73465072E+03</rscale>
<asrwt>0</asrwt>
<pdfrwt beam="1">  1        2 0.33962172E+00 0.82469515E+03</pdfrwt>
<pdfrwt beam="2">  1       -2 0.93968001E-01 0.82469515E+03</pdfrwt>
<totfact> 0.50301777E+00</totfact>
</mgrwt>
</event>
<event>
 4    1  0.2665544E-007  0.9358390E+03  0.7818608E-02  0.9470788E-01
          2   -1    0    0  501    0  0.00000000000E+00  0.00000000000E+00  0.21374687038E+04  0.21374687038E+04  0.25500000000E-02 0. -1.
         -2   -1    0    0    0  501 -0.00000000000E+00 -0.00000000000E+00 -0.99582403926E+03  0.99582403926E+03  0.25500000000E-02 0.  1.
    8880023    1    1    2    0    0 -0.52931968784E+02  0.66270856038E+03  0.18971243729E+04  0.21153901583E+04  0.65864270000E+03 0. -1.
    8880022    1    1    2    0    0  0.52931968784E+02 -0.66270856038E+03 -0.75547970835E+03  0.10179025848E+04  0.15294330000E+03 0.  0.
<mgrwt>
<rscale>  0 0.86472171E+03</rscale>
<asrwt>0</asrwt>
<pdfrwt beam="1">  1        2 0.32884133E+00 0.93583900E+03</pdfrwt>
<pdfrwt beam="2">  1       -2 0.15320370E+00 0.93583900E+03</pdfrwt>
<totfact> 0.16002076E+00</totfact>
</mgrwt>
</event>
<event>
 4    1  0.2665544E-007  0.7812270E+03  0.7818608E-02  0.9752963E-01
         -2   -1    0    0    0  501 -0.00000000000E+00  0.00000000000E+00  0.81795196062E+03  0.81795196063E+03  0.25500000000E-02 0.  1.
          2   -1    0    0  501    0  0.00000000000E+00 -0.00000000000E+00 -0.56080142050E+03  0.56080142051E+03  0.25500000000E-02 0. -1.
    8880023    1    1    2    0    0 -0.26055151920E+03  0.32957289205E+03 -0.12428867552E+03  0.79105199984E+03  0.65864270000E+03 0. -1.
    8880022    1    1    2    0    0  0.26055151920E+03 -0.32957289205E+03  0.38143921564E+03  0.58770138129E+03  0.15294330000E+03 0.  0.
<mgrwt>
<rscale>  0 0.67949102E+03</rscale>
<asrwt>0</asrwt>
<pdfrwt beam="1">  1        2 0.86277142E-01 0.78122698E+03</pdfrwt>
<pdfrwt beam="2">  1       -2 0.12583876E+00 0.78122698E+03</pdfrwt>
<totfact> 0.25622685E+01</totfact>
</mgrwt>
</event>
<event>
 4    1  0.2665544E-007  0.7569276E+03  0.7818608E-02  0.9813127E-01
          2   -1    0    0  501    0  0.00000000000E+00  0.00000000000E+00  0.22777561916E+04  0.22777561916E+04  0.25500000000E-02 0. -1.
         -2   -1    0    0    0  501 -0.00000000000E+00 -0.00000000000E+00 -0.27049627588E+03  0.27049627589E+03  0.25500000000E-02 0.  1.
    8880023    1    1    2    0    0 -0.12376710207E+03 -0.35186779787E+03  0.20071305610E+04  0.21451136422E+04  0.65864270000E+03 0. -1.
    8880022    1    1    2    0    0  0.12376710207E+03  0.35186779787E+03  0.12935473204E+00  0.40313882532E+03  0.15294330000E+03 0.  0.
<mgrwt>
<rscale>  0 0.64662788E+03</rscale>
<asrwt>0</asrwt>
<pdfrwt beam="1">  1        2 0.35042403E+00 0.75692764E+03</pdfrwt>
<pdfrwt beam="2">  1       -2 0.41614812E-01 0.75692764E+03</pdfrwt>
<totfact> 0.26506400E+01</totfact>
</mgrwt>
</event>
<event>
 4    1  0.2665544E-007  0.6728881E+03  0.7818608E-02  0.1013672E+00
          2   -1    0    0  501    0  0.00000000000E+00  0.00000000000E+00  0.20595581711E+04  0.20595581711E+04  0.25500000000E-02 0. -1.
         -2   -1    0    0    0  501 -0.00000000000E+00 -0.00000000000E+00 -0.19490994232E+03  0.19490994234E+03  0.25500000000E-02 0.  1.
    8880023    1    1    2    0    0  0.13684211613E+03 -0.15571225414E+02  0.19256280567E+04  0.20398092673E+04  0.65864270000E+03 0. -1.
    8880022    1    1    2    0    0 -0.13684211613E+03  0.15571225414E+02 -0.60979827933E+02  0.21465884617E+03  0.15294330000E+03 0.  0.
<mgrwt>
<rscale>  0 0.50041059E+03</rscale>
<asrwt>0</asrwt>
<pdfrwt beam="1">  1        2 0.31685509E+00 0.67288813E+03</pdfrwt>
<pdfrwt beam="2">  1       -2 0.29986147E-01 0.67288813E+03</pdfrwt>
<totfact> 0.66003389E+01</totfact>
</mgrwt>
</event>
<event>
 4    1  0.2665544E-007  0.7938018E+03  0.7818608E-02  0.9724362E-01
          2   -1    0    0  501    0  0.00000000000E+00  0.00000000000E+00  0.13708937913E+04  0.13708937914E+04  0.25500000000E-02 0. -1.
         -2   -1    0    0    0  501 -0.00000000000E+00 -0.00000000000E+00 -0.30598090379E+03  0.30598090380E+03  0.25500000000E-02 0.  1.
    8880023    1    1    2    0    0 -0.14169459541E+03 -0.41980192644E+03  0.84418288755E+03  0.11587777913E+04  0.65864270000E+03 0. -1.
    8880022    1    1    2    0    0  0.14169459541E+03  0.41980192644E+03  0.22073000001E+03  0.51809690381E+03  0.15294330000E+03 0.  0.
<mgrwt>
<rscale>  0 0.69584652E+03</rscale>
<asrwt>0</asrwt>
<pdfrwt beam="1">  1        2 0.21090674E+00 0.79380175E+03</pdfrwt>
<pdfrwt beam="2">  1       -2 0.47073985E-01 0.79380175E+03</pdfrwt>
<totfact> 0.65277040E+01</totfact>
</mgrwt>
</event>
<event>
 4    1  0.2665544E-007  0.7302551E+03  0.7818608E-02  0.9889300E-01
         -2   -1    0    0    0  501 -0.00000000000E+00  0.00000000000E+00  0.39277283155E+03  0.39277283156E+03  0.25500000000E-02 0.  1.
          2   -1    0    0  501    0  0.00000000000E+00 -0.00000000000E+00 -0.14787327293E+04  0.14787327293E+04  0.25500000000E-02 0. -1.
    8880023    1    1    2    0    0 -0.21418161754E+03 -0.23149203699E+03 -0.12779378937E+04  0.14718688103E+04  0.65864270000E+03 0. -1.
    8880022    1    1    2    0    0  0.21418161754E+03  0.23149203699E+03  0.19197799588E+03  0.39963675056E+03  0.15294330000E+03 0.  0.
<mgrwt>
<rscale>  0 0.60782647E+03</rscale>
<asrwt>0</asrwt>
<pdfrwt beam="1">  1        2 0.22749734E+00 0.73025512E+03</pdfrwt>
<pdfrwt beam="2">  1       -2 0.60426590E-01 0.73025512E+03</pdfrwt>
<totfact> 0.34125272E+01</totfact>
</mgrwt>
</event>
<event>
 4    1  0.2665544E-007  0.1444140E+04  0.7818608E-02  0.8950122E-01
         -2   -1    0    0    0  501 -0.00000000000E+00  0.00000000000E+00  0.11652203129E+04  0.11652203129E+04  0.25500000000E-02 0.  1.
          2   -1    0    0  501    0  0.00000000000E+00 -0.00000000000E+00 -0.19995063275E+04  0.19995063275E+04  0.25500000000E-02 0. -1.
    8880023    1    1    2    0    0  0.12848654087E+04 -0.29159219178E+02  0.26303148677E+03  0.14678982076E+04  0.65864270000E+03 0.  0.
    8880022    1    1    2    0    0 -0.12848654087E+04  0.29159219178E+02 -0.10973175014E+04  0.16968284328E+04  0.15294330000E+03 0.  0.
<mgrwt>
<rscale>  0 0.14051176E+04</rscale>
<asrwt>0</asrwt>
<pdfrwt beam="1">  1        2 0.30761636E+00 0.14441397E+04</pdfrwt>
<pdfrwt beam="2">  1       -2 0.17926466E+00 0.14441397E+04</pdfrwt>
<totfact> 0.11606418E+00</totfact>
</mgrwt>
</event>
<event>
 4    1  0.2665544E-007  0.1759816E+04  0.7818608E-02  0.8745097E-01
         -2   -1    0    0    0  501 -0.00000000000E+00  0.00000000000E+00  0.14395726475E+04  0.14395726475E+04  0.25500000000E-02 0.  1.
          2   -1    0    0  501    0  0.00000000000E+00 -0.00000000000E+00 -0.22578402408E+04  0.22578402408E+04  0.25500000000E-02 0. -1.
    8880023    1    1    2    0    0  0.37861009081E+03  0.15873866197E+04 -0.10388593620E+04  0.20435706157E+04  0.65864270000E+03 0. -1.
    8880022    1    1    2    0    0 -0.37861009081E+03 -0.15873866197E+04  0.22059176877E+03  0.16538422726E+04  0.15294330000E+03 0.  0.
<mgrwt>
<rscale>  0 0.17288188E+04</rscale>
<asrwt>0</asrwt>
<pdfrwt beam="1">  1        2 0.34736004E+00 0.17598159E+04</pdfrwt>
<pdfrwt beam="2">  1       -2 0.22147271E+00 0.17598159E+04</pdfrwt>
<totfact> 0.42338443E-01</totfact>
</mgrwt>
</event>
<event>
 4    1  0.2665544E-007  0.8008897E+03  0.7818608E-02  0.9708876E-01
         -2   -1    0    0    0  501 -0.00000000000E+00  0.00000000000E+00  0.76609800604E+03  0.76609800605E+03  0.25500000000E-02 0.  1.
          2   -1    0    0  501    0  0.00000000000E+00 -0.00000000000E+00 -0.64075607831E+03  0.64075607832E+03  0.25500000000E-02 0. -1.
    8880023    1    1    2    0    0  0.39469945002E+03  0.22765415288E+03 -0.20121771831E+03  0.82578014362E+03  0.65864270000E+03 0.  0.
    8880022    1    1    2    0    0 -0.39469945002E+03 -0.22765415288E+03  0.32655964604E+03  0.58107394074E+03  0.15294330000E+03 0.  0.
<mgrwt>
<rscale>  0 0.70490788E+03</rscale>
<asrwt>0</asrwt>
<pdfrwt beam="1">  1        2 0.98577858E-01 0.80088968E+03</pdfrwt>
<pdfrwt beam="2">  1       -2 0.11786123E+00 0.80088968E+03</pdfrwt>
<totfact> 0.25635233E+01</totfact>
</mgrwt>
</event>
<event>
 4    1  0.2665544E-007  0.1557757E+04  0.7818608E-02  0.8869893E-01
         -2   -1    0    0    0  501 -0.00000000000E+00  0.00000000000E+00  0.91406044173E+03  0.91406044173E+03  0.25500000000E-02 0.  1.
          2   -1    0    0  501    0  0.00000000000E+00 -0.00000000000E+00 -0.26295045236E+04  0.26295045236E+04  0.25500000000E-02 0. -1.
    8880023    1    1    2    0    0 -0.14087688125E+04  0.90371832806E+02 -0.40078266191E+03  0.16084879805E+04  0.65864270000E+03 0.  0.
    8880022    1    1    2    0    0  0.14087688125E+04 -0.90371832806E+02 -0.13146614200E+04  0.19350769849E+04  0.15294330000E+03 0.  0.
<mgrwt>
<rscale>  0 0.15220929E+04</rscale>
<asrwt>0</asrwt>
<pdfrwt beam="1">  1        2 0.40453915E+00 0.15577570E+04</pdfrwt>
<pdfrwt beam="2">  1       -2 0.14062468E+00 0.15577570E+04</pdfrwt>
<totfact> 0.97709165E-01</totfact>
</mgrwt>
</event>
<event>
 4    1  0.2665544E-007  0.1174033E+04  0.7818608E-02  0.9182787E-01
          2   -1    0    0  501    0  0.00000000000E+00  0.00000000000E+00  0.15231983510E+04  0.15231983510E+04  0.25500000000E-02 0. -1.
         -2   -1    0    0    0  501 -0.00000000000E+00 -0.00000000000E+00 -0.84986372281E+03  0.84986372281E+03  0.25500000000E-02 0.  1.
    8880023    1    1    2    0    0 -0.17583349379E+03  0.95583767511E+03  0.73863633089E+03  0.13870605301E+04  0.65864270000E+03 0.  0.
    8880022    1    1    2    0    0  0.17583349379E+03 -0.95583767511E+03 -0.65301702714E+02  0.98600154366E+03  0.15294330000E+03 0.  0.
<mgrwt>
<rscale>  0 0.11232876E+04</rscale>
<asrwt>0</asrwt>
<pdfrwt beam="1">  1        2 0.23433820E+00 0.11740329E+04</pdfrwt>
<pdfrwt beam="2">  1       -2 0.13074827E+00 0.11740329E+04</pdfrwt>
<totfact> 0.51461055E+00</totfact>
</mgrwt>
</event>
<event>
 4    1  0.2665544E-007  0.6774880E+03  0.7818608E-02  0.1010782E+00
          2   -1    0    0  501    0  0.00000000000E+00  0.00000000000E+00  0.78647163152E+03  0.78647163152E+03  0.25500000000E-02 0. -1.
         -2   -1    0    0    0  501 -0.00000000000E+00 -0.00000000000E+00 -0.11013143205E+04  0.11013143205E+04  0.25500000000E-02 0.  1.
    8880023    1    1    2    0    0  0.96720504230E+02  0.12579724074E+03  0.62542572774E+03  0.92203435342E+03  0.65864270000E+03 0. -1.
    8880022    1    1    2    0    0 -0.96720504230E+02 -0.12579724074E+03 -0.94026841667E+03  0.96575159855E+03  0.15294330000E+03 0.  0.
<mgrwt>
<rscale>  0 0.51165103E+03</rscale>
<asrwt>0</asrwt>
<pdfrwt beam="1">  1        2 0.12099564E+00 0.67748801E+03</pdfrwt>
<pdfrwt beam="2">  1       -2 0.16943297E+00 0.67748801E+03</pdfrwt>
<totfact> 0.77855416E+00</totfact>
</mgrwt>
</event>
<event>
 4    1  0.2665544E-007  0.7270065E+03  0.7818608E-02  0.9899554E-01
          2   -1    0    0  501    0  0.00000000000E+00  0.00000000000E+00  0.10257207843E+04  0.10257207844E+04  0.25500000000E-02 0. -1.
         -2   -1    0    0    0  501 -0.00000000000E+00 -0.00000000000E+00 -0.21511987276E+04  0.21511987276E+04  0.25500000000E-02 0.  1.
    8880023    1    1    2    0    0  0.30735291472E+03  0.16199982462E+02  0.88042242947E+03  0.11417889972E+04  0.65864270000E+03 0. -1.
    8880022    1    1    2    0    0 -0.30735291472E+03 -0.16199982462E+02 -0.20059003727E+04  0.20351305147E+04  0.15294330000E+03 0.  0.
<mgrwt>
<rscale>  0 0.60282896E+03</rscale>
<asrwt>0</asrwt>
<pdfrwt beam="1">  1        2 0.15780320E+00 0.72700651E+03</pdfrwt>
<pdfrwt beam="2">  1       -2 0.33095365E+00 0.72700651E+03</pdfrwt>
<totfact> 0.52631905E-01</totfact>
</mgrwt>
</event>
<event>
 4    1  0.2665544E-007  0.6805969E+03  0.7818608E-02  0.1008988E+00
          2   -1    0    0  501    0  0.00000000000E+00  0.00000000000E+00  0.24409552365E+04  0.24409552365E+04  0.25500000000E-02 0. -1.
         -2   -1    0    0    0  501 -0.00000000000E+00 -0.00000000000E+00 -0.30557386797E+03  0.30557386798E+03  0.25500000000E-02 0.  1.
    8880023    1    1    2    0    0 -0.37896930821E+02 -0.16722981722E+03  0.23411613133E+04  0.24380829539E+04  0.65864270000E+03 0. -1.
    8880022    1    1    2    0    0  0.37896930821E+02  0.16722981722E+03 -0.20577994474E+03  0.30844615058E+03  0.15294330000E+03 0.  0.
<mgrwt>
<rscale>  0 0.51878833E+03</rscale>
<asrwt>0</asrwt>
<pdfrwt beam="1">  1        2 0.37553159E+00 0.68059694E+03</pdfrwt>
<pdfrwt beam="2">  1       -2 0.47011363E-01 0.68059694E+03</pdfrwt>
<totfact> 0.17070770E+01</totfact>
</mgrwt>
</event>
<event>
 4    1  0.2665544E-007  0.1595152E+04  0.7818608E-02  0.8845213E-01
          2   -1    0    0  501    0  0.00000000000E+00  0.00000000000E+00  0.90751258155E+03  0.90751258156E+03  0.25500000000E-02 0. -1.
         -2   -1    0    0    0  501 -0.00000000000E+00 -0.00000000000E+00 -0.41007707314E+04  0.41007707314E+04  0.25500000000E-02 0.  1.
    8880023    1    1    2    0    0 -0.12418188072E+04 -0.75404651466E+03 -0.11298046162E+03  0.15991481755E+04  0.65864270000E+03 0. -1.
    8880022    1    1    2    0    0  0.12418188072E+04  0.75404651466E+03 -0.30802776883E+04  0.34091351375E+04  0.15294330000E+03 0.  0.
<mgrwt>
<rscale>  0 0.15604621E+04</rscale>
<asrwt>0</asrwt>
<pdfrwt beam="1">  1        2 0.13961732E+00 0.15951521E+04</pdfrwt>
<pdfrwt beam="2">  1       -2 0.63088780E+00 0.15951521E+04</pdfrwt>
<totfact> 0.10303371E-02</totfact>
</mgrwt>
</event>
<event>
 4    1  0.2665544E-007  0.6660231E+03  0.7818608E-02  0.1018690E+00
          2   -1    0    0  501    0  0.00000000000E+00  0.00000000000E+00  0.50422974276E+03  0.50422974277E+03  0.25500000000E-02 0. -1.
         -2   -1    0    0    0  501 -0.00000000000E+00 -0.00000000000E+00 -0.38479006920E+03  0.38479006921E+03  0.25500000000E-02 0.  1.
    8880023    1    1    2    0    0  0.96012497793E+02  0.23624965387E+02  0.19173763273E+03  0.69307291448E+03  0.65864270000E+03 0.  0.
    8880022    1    1    2    0    0 -0.96012497793E+02 -0.23624965387E+02 -0.72297959178E+02  0.19594689750E+03  0.15294330000E+03 0. -1.
<mgrwt>
<rscale>  0 0.48162296E+03</rscale>
<asrwt>0</asrwt>
<pdfrwt beam="1">  1        2 0.77573806E-01 0.66602308E+03</pdfrwt>
<pdfrwt beam="2">  1       -2 0.59198472E-01 0.66602308E+03</pdfrwt>
<totfact> 0.16475766E+02</totfact>
</mgrwt>
</event>
<event>
 4    1  0.2665544E-007  0.1058677E+04  0.7818608E-02  0.9308522E-01
         -2   -1    0    0    0  501 -0.00000000000E+00  0.00000000000E+00  0.16640992995E+04  0.16640992995E+04  0.25500000000E-02 0.  1.
          2   -1    0    0  501    0  0.00000000000E+00 -0.00000000000E+00 -0.79563975519E+03  0.79563975520E+03  0.25500000000E-02 0. -1.
    8880023    1    1    2    0    0  0.79997760533E+03 -0.21684845710E+03 -0.22181864058E+03  0.10816659087E+04  0.65864270000E+03 0.  0.
    8880022    1    1    2    0    0 -0.79997760533E+03  0.21684845710E+03  0.10902781849E+04  0.13780731460E+04  0.15294330000E+03 0.  0.
<mgrwt>
<rscale>  0 0.10000207E+04</rscale>
<asrwt>0</asrwt>
<pdfrwt beam="1">  1        2 0.12240612E+00 0.10586773E+04</pdfrwt>
<pdfrwt beam="2">  1       -2 0.25601528E+00 0.10586773E+04</pdfrwt>
<totfact> 0.20305477E+00</totfact>
</mgrwt>
</event>
<event>
 4    1  0.2665544E-007  0.1011325E+04  0.7818608E-02  0.9366889E-01
         -2   -1    0    0    0  501 -0.00000000000E+00  0.00000000000E+00  0.59783878122E+03  0.59783878122E+03  0.25500000000E-02 0.  1.
          2   -1    0    0  501    0  0.00000000000E+00 -0.00000000000E+00 -0.20900969258E+04  0.20900969258E+04  0.25500000000E-02 0. -1.
    8880023    1    1    2    0    0 -0.45149500712E+03  0.62058017001E+03 -0.16052741115E+04  0.18972829700E+04  0.65864270000E+03 0. -1.
    8880022    1    1    2    0    0  0.45149500712E+03 -0.62058017001E+03  0.11301596689E+03  0.79065273707E+03  0.15294330000E+03 0.  0.
<mgrwt>
<rscale>  0 0.94851400E+03</rscale>
<asrwt>0</asrwt>
<pdfrwt beam="1">  1        2 0.32155337E+00 0.10113247E+04</pdfrwt>
<pdfrwt beam="2">  1       -2 0.91975198E-01 0.10113247E+04</pdfrwt>
<totfact> 0.59871541E+00</totfact>
</mgrwt>
</event>
<event>
 4    1  0.2665544E-007  0.6953677E+03  0.7818608E-02  0.1001699E+00
         -2   -1    0    0    0  501 -0.00000000000E+00  0.00000000000E+00  0.50293066827E+03  0.50293066827E+03  0.25500000000E-02 0.  1.
          2   -1    0    0  501    0  0.00000000000E+00 -0.00000000000E+00 -0.16803209539E+04  0.16803209539E+04  0.25500000000E-02 0. -1.
    8880023    1    1    2    0    0  0.63083867662E+02  0.21388425898E+03 -0.15639110640E+04  0.17115355892E+04  0.65864270000E+03 0. -1.
    8880022    1    1    2    0    0 -0.63083867662E+02 -0.21388425898E+03  0.38652077841E+03  0.47171603297E+03  0.15294330000E+03 0.  0.
<mgrwt>
<rscale>  0 0.54911551E+03</rscale>
<asrwt>0</asrwt>
<pdfrwt beam="1">  1        2 0.25851091E+00 0.69536771E+03</pdfrwt>
<pdfrwt beam="2">  1       -2 0.77373950E-01 0.69536771E+03</pdfrwt>
<totfact> 0.15515962E+01</totfact>
</mgrwt>
</event>
<event>
 4    1  0.2665544E-007  0.1365449E+04  0.7818608E-02  0.9011006E-01
         -2   -1    0    0    0  501 -0.00000000000E+00  0.00000000000E+00  0.18746830193E+04  0.18746830193E+04  0.25500000000E-02 0.  1.
          2   -1    0    0  501    0  0.00000000000E+00 -0.00000000000E+00 -0.18263467437E+04  0.18263467437E+04  0.25500000000E-02 0. -1.
    8880023    1    1    2    0    0  0.86339671633E+03  0.82775992803E+03 -0.13047527773E+04  0.18886054125E+04  0.65864270000E+03 0.  0.
    8880022    1    1    2    0    0 -0.86339671633E+03 -0.82775992803E+03  0.13530890529E+04  0.18124243505E+04  0.15294330000E+03 0.  0.
<mgrwt>
<rscale>  0 0.13236657E+04</rscale>
<asrwt>0</asrwt>
<pdfrwt beam="1">  1        2 0.28097642E+00 0.13654489E+04</pdfrwt>
<pdfrwt beam="2">  1       -2 0.28841277E+00 0.13654489E+04</pdfrwt>
<totfact> 0.29768982E-01</totfact>
</mgrwt>
</event>
<event>
 4    1  0.2665544E-007  0.1183630E+04  0.7818608E-02  0.9173202E-01
          2   -1    0    0  501    0  0.00000000000E+00  0.00000000000E+00  0.29000977893E+04  0.29000977893E+04  0.25500000000E-02 0. -1.
         -2   -1    0    0    0  501 -0.00000000000E+00 -0.00000000000E+00 -0.65249954954E+03  0.65249954954E+03  0.25500000000E-02 0.  1.
    8880023    1    1    2    0    0  0.18032416836E+03 -0.96677462182E+03  0.22667169562E+04  0.25571440986E+04  0.65864270000E+03 0. -1.
    8880022    1    1    2    0    0 -0.18032416836E+03  0.96677462182E+03 -0.19118716510E+02  0.99545324020E+03  0.15294330000E+03 0.  1.
<mgrwt>
<rscale>  0 0.11334365E+04</rscale>
<asrwt>0</asrwt>
<pdfrwt beam="1">  1        2 0.44616889E+00 0.11836301E+04</pdfrwt>
<pdfrwt beam="2">  1       -2 0.10038455E+00 0.11836301E+04</pdfrwt>
<totfact> 0.16293444E+00</totfact>
</mgrwt>
</event>
<event>
 4    1  0.2665544E-007  0.1191371E+04  0.7818608E-02  0.9165556E-01
          2   -1    0    0  501    0  0.00000000000E+00  0.00000000000E+00  0.14351374974E+04  0.14351374974E+04  0.25500000000E-02 0. -1.
         -2   -1    0    0    0  501 -0.00000000000E+00 -0.00000000000E+00 -0.93341716648E+03  0.93341716649E+03  0.25500000000E-02 0.  1.
    8880023    1    1    2    0    0 -0.50943824812E+03  0.85207302464E+03 -0.10348341844E+03  0.11958573461E+04  0.65864270000E+03 0.  0.
    8880022    1    1    2    0    0  0.50943824812E+03 -0.85207302464E+03  0.60520374933E+03  0.11726973178E+04  0.15294330000E+03 0.  0.
<mgrwt>
<rscale>  0 0.11416132E+04</rscale>
<asrwt>0</asrwt>
<pdfrwt beam="1">  1        2 0.22079039E+00 0.11913715E+04</pdfrwt>
<pdfrwt beam="2">  1       -2 0.14360264E+00 0.11913715E+04</pdfrwt>
<totfact> 0.45205891E+00</totfact>
</mgrwt>
</event>
<event>
 4    1  0.2665544E-007  0.9368321E+03  0.7818608E-02  0.9469318E-01
         -2   -1    0    0    0  501 -0.00000000000E+00  0.00000000000E+00  0.55422433991E+03  0.55422433991E+03  0.25500000000E-02 0.  1.
          2   -1    0    0  501    0  0.00000000000E+00 -0.00000000000E+00 -0.18358765161E+04  0.18358765161E+04  0.25500000000E-02 0. -1.
    8880023    1    1    2    0    0 -0.63220585985E+03 -0.21014285259E+03 -0.14117225440E+04  0.16942889409E+04  0.65864270000E+03 0.  0.
    8880022    1    1    2    0    0  0.63220585985E+03  0.21014285259E+03  0.13007036775E+03  0.69581191518E+03  0.15294330000E+03 0.  0.
<mgrwt>
<rscale>  0 0.86584144E+03</rscale>
<asrwt>0</asrwt>
<pdfrwt beam="1">  1        2 0.28244254E+00 0.93683215E+03</pdfrwt>
<pdfrwt beam="2">  1       -2 0.85265284E-01 0.93683215E+03</pdfrwt>
<totfact> 0.99278017E+00</totfact>
</mgrwt>
</event>
<event>
 4    1  0.2665544E-007  0.8404156E+03  0.7818608E-02  0.9629397E-01
          2   -1    0    0  501    0  0.00000000000E+00  0.00000000000E+00  0.28227922092E+04  0.28227922092E+04  0.25500000000E-02 0. -1.
         -2   -1    0    0    0  501 -0.00000000000E+00 -0.00000000000E+00 -0.54980838657E+03  0.54980838657E+03  0.25500000000E-02 0.  1.
    8880023    1    1    2    0    0  0.32800260367E+02 -0.52097255019E+03  0.26037217237E+04  0.27359943852E+04  0.65864270000E+03 0.  0.
    8880022    1    1    2    0    0 -0.32800260367E+02  0.52097255019E+03 -0.33073790106E+03  0.63660621058E+03  0.15294330000E+03 0.  1.
<mgrwt>
<rscale>  0 0.75380677E+03</rscale>
<asrwt>0</asrwt>
<pdfrwt beam="1">  1        2 0.43427573E+00 0.84041565E+03</pdfrwt>
<pdfrwt beam="2">  1       -2 0.84585905E-01 0.84041565E+03</pdfrwt>
<totfact> 0.28465499E+00</totfact>
</mgrwt>
</event>
<event>
 4    1  0.2665544E-007  0.1536550E+04  0.7818608E-02  0.8884249E-01
         -2   -1    0    0    0  501 -0.00000000000E+00  0.00000000000E+00  0.17591618407E+04  0.17591618407E+04  0.25500000000E-02 0.  1.
          2   -1    0    0  501    0  0.00000000000E+00 -0.00000000000E+00 -0.29255201039E+04  0.29255201039E+04  0.25500000000E-02 0. -1.
    8880023    1    1    2    0    0 -0.64222200143E+03  0.12307419978E+04 -0.23810041978E+04  0.28337547813E+04  0.65864270000E+03 0.  0.
    8880022    1    1    2    0    0  0.64222200143E+03 -0.12307419978E+04  0.12146459347E+04  0.18509271633E+04  0.15294330000E+03 0.  0.
<mgrwt>
<rscale>  0 0.15003068E+04</rscale>
<asrwt>0</asrwt>
<pdfrwt beam="1">  1        2 0.45008002E+00 0.15365498E+04</pdfrwt>
<pdfrwt beam="2">  1       -2 0.27064028E+00 0.15365498E+04</pdfrwt>
<totfact> 0.87051444E-02</totfact>
</mgrwt>
</event>
<event>
 4    1  0.2665544E-007  0.7394433E+03  0.7818608E-02  0.9861572E-01
          2   -1    0    0  501    0  0.00000000000E+00  0.00000000000E+00  0.20783563896E+04  0.20783563896E+04  0.25500000000E-02 0. -1.
         -2   -1    0    0    0  501 -0.00000000000E+00 -0.00000000000E+00 -0.16908307485E+03  0.16908307487E+03  0.25500000000E-02 0.  1.
    8880023    1    1    2    0    0 -0.32382694003E+03 -0.90013133059E+02  0.16115669770E+04  0.17731115528E+04  0.65864270000E+03 0. -1.
    8880022    1    1    2    0    0  0.32382694003E+03  0.90013133059E+02  0.29770633778E+03  0.47432791166E+03  0.15294330000E+03 0.  0.
<mgrwt>
<rscale>  0 0.62160388E+03</rscale>
<asrwt>0</asrwt>
<pdfrwt beam="1">  1        2 0.31974713E+00 0.73944334E+03</pdfrwt>
<pdfrwt beam="2">  1       -2 0.26012782E-01 0.73944334E+03</pdfrwt>
<totfact> 0.82982525E+01</totfact>
</mgrwt>
</event>
<event>
 4    1  0.2665544E-007  0.1099976E+04  0.7818608E-02  0.9261082E-01
         -2   -1    0    0    0  501 -0.00000000000E+00  0.00000000000E+00  0.21379962646E+04  0.21379962646E+04  0.25500000000E-02 0.  1.
          2   -1    0    0  501    0  0.00000000000E+00 -0.00000000000E+00 -0.91762535654E+03  0.91762535654E+03  0.25500000000E-02 0. -1.
    8880023    1    1    2    0    0 -0.63986457369E+03 -0.60556690016E+03 -0.42802935662E+03  0.11803208376E+04  0.65864270000E+03 0.  0.
    8880022    1    1    2    0    0  0.63986457369E+03  0.60556690016E+03  0.16484002647E+04  0.18753007836E+04  0.15294330000E+03 0.  0.
<mgrwt>
<rscale>  0 0.10444601E+04</rscale>
<asrwt>0</asrwt>
<pdfrwt beam="1">  1        2 0.14117313E+00 0.10999764E+04</pdfrwt>
<pdfrwt beam="2">  1       -2 0.32892250E+00 0.10999764E+04</pdfrwt>
<totfact> 0.59807603E-01</totfact>
</mgrwt>
</event>
<event>
 4    1  0.2665544E-007  0.8038177E+03  0.7818608E-02  0.9702601E-01
          2   -1    0    0  501    0  0.00000000000E+00  0.00000000000E+00  0.23203128665E+04  0.23203128665E+04  0.25500000000E-02 0. -1.
         -2   -1    0    0    0  501 -0.00000000000E+00 -0.00000000000E+00 -0.54985692526E+03  0.54985692527E+03  0.25500000000E-02 0.  1.
    8880023    1    1    2    0    0  0.72948153365E+02  0.45496297981E+03  0.21230651268E+04  0.22701384286E+04  0.65864270000E+03 0.  0.
    8880022    1    1    2    0    0 -0.72948153365E+02 -0.45496297981E+03 -0.35260918554E+03  0.60003136320E+03  0.15294330000E+03 0.  0.
<mgrwt>
<rscale>  0 0.70862121E+03</rscale>
<asrwt>0</asrwt>
<pdfrwt beam="1">  1        2 0.35697121E+00 0.80381774E+03</pdfrwt>
<pdfrwt beam="2">  1       -2 0.84593373E-01 0.80381774E+03</pdfrwt>
<totfact> 0.55669044E+00</totfact>
</mgrwt>
</event>
<event>
 4    1  0.2665544E-007  0.1455563E+04  0.7818608E-02  0.8941669E-01
          2   -1    0    0  501    0  0.00000000000E+00  0.00000000000E+00  0.23386890852E+04  0.23386890852E+04  0.25500000000E-02 0. -1.
         -2   -1    0    0    0  501 -0.00000000000E+00 -0.00000000000E+00 -0.99754136134E+03  0.99754136135E+03  0.25500000000E-02 0.  1.
    8880023    1    1    2    0    0 -0.11694221769E+04  0.56329931549E+03  0.14112068443E+04  0.20273552501E+04  0.65864270000E+03 0.  0.
    8880022    1    1    2    0    0  0.11694221769E+04 -0.56329931549E+03 -0.70059120409E+02  0.13088751965E+04  0.15294330000E+03 0.  0.
<mgrwt>
<rscale>  0 0.14169095E+04</rscale>
<asrwt>0</asrwt>
<pdfrwt beam="1">  1        2 0.35979832E+00 0.14555633E+04</pdfrwt>
<pdfrwt beam="2">  1       -2 0.15346790E+00 0.14555633E+04</pdfrwt>
<totfact> 0.11520641E+00</totfact>
</mgrwt>
</event>
<event>
 4    1  0.2665544E-007  0.1243853E+04  0.7818608E-02  0.9115630E-01
          2   -1    0    0  501    0  0.00000000000E+00  0.00000000000E+00  0.15982610301E+04  0.15982610301E+04  0.25500000000E-02 0. -1.
         -2   -1    0    0    0  501 -0.00000000000E+00 -0.00000000000E+00 -0.28003503982E+04  0.28003503982E+04  0.25500000000E-02 0.  1.
    8880023    1    1    2    0    0 -0.49711610573E+03 -0.93071717223E+03  0.12261576471E+04  0.17466057538E+04  0.65864270000E+03 0. -1.
    8880022    1    1    2    0    0  0.49711610573E+03  0.93071717223E+03 -0.24282470153E+04  0.26520056745E+04  0.15294330000E+03 0.  0.
<mgrwt>
<rscale>  0 0.11968365E+04</rscale>
<asrwt>0</asrwt>
<pdfrwt beam="1">  1        2 0.24588631E+00 0.12438525E+04</pdfrwt>
<pdfrwt beam="2">  1       -2 0.43082314E+00 0.12438525E+04</pdfrwt>
<totfact> 0.50747671E-02</totfact>
</mgrwt>
</event>
<event>
 4    1  0.2665544E-007  0.7659809E+03  0.7818608E-02  0.9789863E-01
          2   -1    0    0  501    0  0.00000000000E+00  0.00000000000E+00  0.13325068469E+04  0.13325068469E+04  0.25500000000E-02 0. -1.
         -2   -1    0    0    0  501 -0.00000000000E+00 -0.00000000000E+00 -0.40325003474E+03  0.40325003475E+03  0.25500000000E-02 0.  1.
    8880023    1    1    2    0    0  0.38865486651E+03 -0.43173662295E+02  0.10492134953E+04  0.12990672559E+04  0.65864270000E+03 0.  0.
    8880022    1    1    2    0    0 -0.38865486651E+03  0.43173662295E+02 -0.11995668315E+03  0.43668962573E+03  0.15294330000E+03 0.  0.
<mgrwt>
<rscale>  0 0.65909427E+03</rscale>
<asrwt>0</asrwt>
<pdfrwt beam="1">  1        2 0.20500105E+00 0.76598092E+03</pdfrwt>
<pdfrwt beam="2">  1       -2 0.62038468E-01 0.76598092E+03</pdfrwt>
<totfact> 0.38884717E+01</totfact>
</mgrwt>
</event>
<event>
 4    1  0.2665544E-007  0.8172273E+03  0.7818608E-02  0.9674715E-01
         -2   -1    0    0    0  501 -0.00000000000E+00  0.00000000000E+00  0.32676811168E+03  0.32676811169E+03  0.25500000000E-02 0.  1.
          2   -1    0    0  501    0  0.00000000000E+00 -0.00000000000E+00 -0.43320995373E+04  0.43320995373E+04  0.25500000000E-02 0. -1.
    8880023    1    1    2    0    0 -0.33952432992E+03 -0.34463524474E+03 -0.40665017872E+04  0.41478063134E+04  0.65864270000E+03 0. -1.
    8880022    1    1    2    0    0  0.33952432992E+03  0.34463524474E+03  0.61170361560E+02  0.51106133553E+03  0.15294330000E+03 0.  0.
<mgrwt>
<rscale>  0 0.72542420E+03</rscale>
<asrwt>0</asrwt>
<pdfrwt beam="1">  1        2 0.66647681E+00 0.81722728E+03</pdfrwt>
<pdfrwt beam="2">  1       -2 0.50272020E-01 0.81722728E+03</pdfrwt>
<totfact> 0.73812200E-01</totfact>
</mgrwt>
</event>
<event>
 4    1  0.2665544E-007  0.8542502E+03  0.7818608E-02  0.9603874E-01
          2   -1    0    0  501    0  0.00000000000E+00  0.00000000000E+00  0.81970720370E+03  0.81970720370E+03  0.25500000000E-02 0. -1.
         -2   -1    0    0    0  501 -0.00000000000E+00 -0.00000000000E+00 -0.21094730223E+04  0.21094730223E+04  0.25500000000E-02 0.  1.
    8880023    1    1    2    0    0  0.40636384297E+02  0.54247752751E+03  0.54236641649E+03  0.10118817715E+04  0.65864270000E+03 0. -1.
    8880022    1    1    2    0    0 -0.40636384297E+02 -0.54247752751E+03 -0.18321322351E+04  0.19172984545E+04  0.15294330000E+03 0.  0.
<mgrwt>
<rscale>  0 0.77040289E+03</rscale>
<asrwt>0</asrwt>
<pdfrwt beam="1">  1        2 0.12610880E+00 0.85425019E+03</pdfrwt>
<pdfrwt beam="2">  1       -2 0.32453431E+00 0.85425019E+03</pdfrwt>
<totfact> 0.77161943E-01</totfact>
</mgrwt>
</event>
<event>
 4    1  0.2665544E-007  0.1265079E+04  0.7818608E-02  0.9096318E-01
         -2   -1    0    0    0  501 -0.00000000000E+00  0.00000000000E+00  0.13366856126E+04  0.13366856126E+04  0.25500000000E-02 0.  1.
          2   -1    0    0  501    0  0.00000000000E+00 -0.00000000000E+00 -0.24585784075E+04  0.24585784075E+04  0.25500000000E-02 0. -1.
    8880023    1    1    2    0    0 -0.64024140311E+03  0.86988864067E+03 -0.20191931781E+04  0.23827644865E+04  0.65864270000E+03 0.  0.
    8880022    1    1    2    0    0  0.64024140311E+03 -0.86988864067E+03  0.89730038326E+03  0.14124995335E+04  0.15294330000E+03 0.  0.
<mgrwt>
<rscale>  0 0.12190794E+04</rscale>
<asrwt>0</asrwt>
<pdfrwt beam="1">  1        2 0.37824283E+00 0.12650792E+04</pdfrwt>
<pdfrwt beam="2">  1       -2 0.20564394E+00 0.12650792E+04</pdfrwt>
<totfact> 0.43440527E-01</totfact>
</mgrwt>
</event>
<event>
 4    1  0.2709578E-007  0.7840062E+03  0.7818608E-02  0.9746509E-01
          2   -1    0    0  501    0  0.00000000000E+00  0.00000000000E+00  0.23408388084E+04  0.23408388084E+04  0.25500000000E-02 0. -1.
         -2   -1    0    0    0  501 -0.00000000000E+00 -0.00000000000E+00 -0.67683833818E+03  0.67683833818E+03  0.25500000000E-02 0.  1.
    8880023    1    1    2    0    0  0.26744372584E+03  0.33064998624E+03  0.21888738244E+04  0.23250450287E+04  0.65864270000E+03 0. -1.
    8880022    1    1    2    0    0 -0.26744372584E+03 -0.33064998624E+03 -0.52487335415E+03  0.69263211794E+03  0.15294330000E+03 0.  0.
<mgrwt>
<rscale>  0 0.68313911E+03</rscale>
<asrwt>0</asrwt>
<pdfrwt beam="1">  1        2 0.36012905E+00 0.78400623E+03</pdfrwt>
<pdfrwt beam="2">  1       -2 0.10412897E+00 0.78400623E+03</pdfrwt>
<totfact> 0.33492476E+00</totfact>
</mgrwt>
</event>
<event>
 4    1  0.2665544E-007  0.8115321E+03  0.7818608E-02  0.9686394E-01
          2   -1    0    0  501    0  0.00000000000E+00  0.00000000000E+00  0.12044298083E+04  0.12044298083E+04  0.25500000000E-02 0. -1.
         -2   -1    0    0    0  501 -0.00000000000E+00 -0.00000000000E+00 -0.79831403626E+03  0.79831403626E+03  0.25500000000E-02 0.  1.
    8880023    1    1    2    0    0 -0.21129686804E+03  0.42441462193E+03  0.96048955903E+03  0.12574277462E+04  0.65864270000E+03 0. -1.
    8880022    1    1    2    0    0  0.21129686804E+03 -0.42441462193E+03 -0.55437378697E+03  0.74531609834E+03  0.15294330000E+03 0.  0.
<mgrwt>
<rscale>  0 0.71832671E+03</rscale>
<asrwt>0</asrwt>
<pdfrwt beam="1">  1        2 0.18529689E+00 0.81153210E+03</pdfrwt>
<pdfrwt beam="2">  1       -2 0.12281754E+00 0.81153210E+03</pdfrwt>
<totfact> 0.95505516E+00</totfact>
</mgrwt>
</event>
<event>
 4    1  0.2665544E-007  0.7872395E+03  0.7818608E-02  0.9739098E-01
          2   -1    0    0  501    0  0.00000000000E+00  0.00000000000E+00  0.11064706960E+04  0.11064706960E+04  0.25500000000E-02 0. -1.
         -2   -1    0    0    0  501 -0.00000000000E+00 -0.00000000000E+00 -0.74955296195E+03  0.74955296195E+03  0.25500000000E-02 0.  1.
    8880023    1    1    2    0    0 -0.29207214775E+03 -0.31722179100E+03  0.86681936681E+03  0.11709491129E+04  0.65864270000E+03 0.  0.
    8880022    1    1    2    0    0  0.29207214775E+03  0.31722179100E+03 -0.50990163273E+03  0.68507454503E+03  0.15294330000E+03 0.  0.
<mgrwt>
<rscale>  0 0.68735869E+03</rscale>
<asrwt>0</asrwt>
<pdfrwt beam="1">  1        2 0.17022626E+00 0.78723949E+03</pdfrwt>
<pdfrwt beam="2">  1       -2 0.11531584E+00 0.78723949E+03</pdfrwt>
<totfact> 0.12819781E+01</totfact>
</mgrwt>
</event>
<event>
 4    1  0.2665544E-007  0.7611645E+03  0.7818608E-02  0.9802102E-01
         -2   -1    0    0    0  501 -0.00000000000E+00  0.00000000000E+00  0.51501937617E+03  0.51501937617E+03  0.25500000000E-02 0.  1.
          2   -1    0    0  501    0  0.00000000000E+00 -0.00000000000E+00 -0.73318658753E+03  0.73318658754E+03  0.25500000000E-02 0. -1.
    8880023    1    1    2    0    0 -0.35101099214E+03 -0.14950745281E+03 -0.31847537715E+03  0.82510482192E+03  0.65864270000E+03 0. -1.
    8880022    1    1    2    0    0  0.35101099214E+03  0.14950745281E+03  0.10030816578E+03  0.42310114179E+03  0.15294330000E+03 0. -1.
<mgrwt>
<rscale>  0 0.65249860E+03</rscale>
<asrwt>0</asrwt>
<pdfrwt beam="1">  1        2 0.11279794E+00 0.76116450E+03</pdfrwt>
<pdfrwt beam="2">  1       -2 0.79233750E-01 0.76116450E+03</pdfrwt>
<totfact> 0.55213559E+01</totfact>
</mgrwt>
</event>
<event>
 4    1  0.2665544E-007  0.7961524E+03  0.7818608E-02  0.9719178E-01
          2   -1    0    0  501    0  0.00000000000E+00  0.00000000000E+00  0.15357090658E+04  0.15357090658E+04  0.25500000000E-02 0. -1.
         -2   -1    0    0    0  501 -0.00000000000E+00 -0.00000000000E+00 -0.59647042992E+03  0.59647042993E+03  0.25500000000E-02 0.  1.
    8880023    1    1    2    0    0  0.36310306691E+03 -0.26116012562E+03  0.13089593248E+04  0.15320682650E+04  0.65864270000E+03 0.  0.
    8880022    1    1    2    0    0 -0.36310306691E+03  0.26116012562E+03 -0.36972068892E+03  0.60011123072E+03  0.15294330000E+03 0.  0.
<mgrwt>
<rscale>  0 0.69886340E+03</rscale>
<asrwt>0</asrwt>
<pdfrwt beam="1">  1        2 0.23626293E+00 0.79615241E+03</pdfrwt>
<pdfrwt beam="2">  1       -2 0.91764683E-01 0.79615241E+03</pdfrwt>
<totfact> 0.12477618E+01</totfact>
</mgrwt>
</event>
<event>
 4    1  0.2665544E-007  0.6640866E+03  0.7818608E-02  0.1020312E+00
         -2   -1    0    0    0  501 -0.00000000000E+00  0.00000000000E+00  0.44578268104E+03  0.44578268105E+03  0.25500000000E-02 0.  1.
          2   -1    0    0  501    0  0.00000000000E+00 -0.00000000000E+00 -0.21083134705E+04  0.21083134705E+04  0.25500000000E-02 0. -1.
    8880023    1    1    2    0    0 -0.58062096299E+02 -0.61883518608E+02 -0.20360712122E+04  0.21416341808E+04  0.65864270000E+03 0. -1.
    8880022    1    1    2    0    0  0.58062096299E+02  0.61883518608E+02  0.37354042273E+03  0.41246197077E+03  0.15294330000E+03 0.  0.
<mgrwt>
<rscale>  0 0.47574066E+03</rscale>
<asrwt>0</asrwt>
<pdfrwt beam="1">  1        2 0.32435591E+00 0.66408658E+03</pdfrwt>
<pdfrwt beam="2">  1       -2 0.68581952E-01 0.66408658E+03</pdfrwt>
<totfact> 0.11891625E+01</totfact>
</mgrwt>
</event>
<event>
 4    1  0.2665544E-007  0.8662459E+03  0.7818608E-02  0.9582548E-01
         -2   -1    0    0    0  501 -0.00000000000E+00  0.00000000000E+00  0.47095260916E+03  0.47095260917E+03  0.25500000000E-02 0.  1.
          2   -1    0    0  501    0  0.00000000000E+00 -0.00000000000E+00 -0.15280218970E+04  0.15280218970E+04  0.25500000000E-02 0. -1.
    8880023    1    1    2    0    0  0.41784963483E+03 -0.37679352797E+03 -0.11162233815E+04  0.14129177343E+04  0.65864270000E+03 0. -1.
    8880022    1    1    2    0    0 -0.41784963483E+03  0.37679352797E+03  0.59154093726E+02  0.58605677188E+03  0.15294330000E+03 0.  0.
<mgrwt>
<rscale>  0 0.78462093E+03</rscale>
<asrwt>0</asrwt>
<pdfrwt beam="1">  1        2 0.23508029E+00 0.86624586E+03</pdfrwt>
<pdfrwt beam="2">  1       -2 0.72454248E-01 0.86624586E+03</pdfrwt>
<totfact> 0.21327223E+01</totfact>
</mgrwt>
</event>
<event>
 4    1  0.3908283E-007  0.1367932E+04  0.7818608E-02  0.9009010E-01
          2   -1    0    0  501    0  0.00000000000E+00  0.00000000000E+00  0.23888061100E+04  0.23888061100E+04  0.25500000000E-02 0. -1.
         -2   -1    0    0    0  501 -0.00000000000E+00 -0.00000000000E+00 -0.21478142960E+04  0.21478142960E+04  0.25500000000E-02 0.  1.
    8880023    1    1    2    0    0 -0.80643387263E+02 -0.11962119543E+04  0.19874556562E+04  0.24127197490E+04  0.65864270000E+03 0.  0.
    8880022    1    1    2    0    0  0.80643387263E+02  0.11962119543E+04 -0.17464638422E+04  0.21239006570E+04  0.15294330000E+03 0.  0.
<mgrwt>
<rscale>  0 0.13262420E+04</rscale>
<asrwt>0</asrwt>
<pdfrwt beam="1">  1        2 0.36750863E+00 0.13679315E+04</pdfrwt>
<pdfrwt beam="2">  1       -2 0.33043297E+00 0.13679315E+04</pdfrwt>
<totfact> 0.79635465E-02</totfact>
</mgrwt>
</event>
<event>
 4    1  0.2665544E-007  0.7790765E+03  0.7818608E-02  0.9758011E-01
         -2   -1    0    0    0  501 -0.00000000000E+00  0.00000000000E+00  0.76979732724E+03  0.76979732724E+03  0.25500000000E-02 0.  1.
          2   -1    0    0  501    0  0.00000000000E+00 -0.00000000000E+00 -0.31820776853E+04  0.31820776853E+04  0.25500000000E-02 0. -1.
    8880023    1    1    2    0    0 -0.23238844348E+03 -0.34517477197E+03 -0.30652057707E+04  0.31626644834E+04  0.65864270000E+03 0. -1.
    8880022    1    1    2    0    0  0.23238844348E+03  0.34517477197E+03  0.65292541260E+03  0.78921052913E+03  0.15294330000E+03 0.  0.
<mgrwt>
<rscale>  0 0.67665441E+03</rscale>
<asrwt>0</asrwt>
<pdfrwt beam="1">  1        2 0.48955041E+00 0.77907652E+03</pdfrwt>
<pdfrwt beam="2">  1       -2 0.11843036E+00 0.77907652E+03</pdfrwt>
<totfact> 0.78080162E-01</totfact>
</mgrwt>
</event>
<event>
 4    1  0.2665544E-007  0.7197319E+03  0.7818608E-02  0.9923494E-01
         -2   -1    0    0    0  501 -0.00000000000E+00  0.00000000000E+00  0.28129830245E+03  0.28129830246E+03  0.25500000000E-02 0.  1.
          2   -1    0    0  501    0  0.00000000000E+00 -0.00000000000E+00 -0.47518608472E+04  0.47518608472E+04  0.25500000000E-02 0. -1.
    8880023    1    1    2    0    0  0.26380980629E+03 -0.12086425241E+03 -0.46178425871E+04  0.46735943499E+04  0.65864270000E+03 0. -1.
    8880022    1    1    2    0    0 -0.26380980629E+03  0.12086425241E+03  0.14728004233E+03  0.35956479985E+03  0.15294330000E+03 0.  0.
<mgrwt>
<rscale>  0 0.59136047E+03</rscale>
<asrwt>0</asrwt>
<pdfrwt beam="1">  1        2 0.73105546E+00 0.71973189E+03</pdfrwt>
<pdfrwt beam="2">  1       -2 0.43276665E-01 0.71973189E+03</pdfrwt>
<totfact> 0.39899344E-01</totfact>
</mgrwt>
</event>
<event>
 4    1  0.2665544E-007  0.1393699E+04  0.7818608E-02  0.8988594E-01
         -2   -1    0    0    0  501 -0.00000000000E+00  0.00000000000E+00  0.20493193288E+04  0.20493193288E+04  0.25500000000E-02 0.  1.
          2   -1    0    0  501    0  0.00000000000E+00 -0.00000000000E+00 -0.12386137212E+04  0.12386137212E+04  0.25500000000E-02 0. -1.
    8880023    1    1    2    0    0  0.10379903452E+04  0.65663069617E+03 -0.50422139079E+03  0.14821056795E+04  0.65864270000E+03 0.  0.
    8880022    1    1    2    0    0 -0.10379903452E+04 -0.65663069617E+03  0.13149269984E+04  0.18058273705E+04  0.15294330000E+03 0. -1.
<mgrwt>
<rscale>  0 0.13529553E+04</rscale>
<asrwt>0</asrwt>
<pdfrwt beam="1">  1        2 0.19055596E+00 0.13936994E+04</pdfrwt>
<pdfrwt beam="2">  1       -2 0.31527989E+00 0.13936994E+04</pdfrwt>
<totfact> 0.43939356E-01</totfact>
</mgrwt>
</event>
<event>
 4    1  0.2665544E-007  0.1021993E+04  0.7818608E-02  0.9353334E-01
         -2   -1    0    0    0  501 -0.00000000000E+00  0.00000000000E+00  0.10666749419E+04  0.10666749419E+04  0.25500000000E-02 0.  1.
          2   -1    0    0  501    0  0.00000000000E+00 -0.00000000000E+00 -0.12717775004E+04  0.12717775004E+04  0.25500000000E-02 0. -1.
    8880023    1    1    2    0    0  0.41536265315E+03 -0.66191603798E+03 -0.83773089470E+03  0.13214621573E+04  0.65864270000E+03 0.  0.
    8880022    1    1    2    0    0 -0.41536265315E+03  0.66191603798E+03  0.63262833619E+03  0.10169902850E+04  0.15294330000E+03 0.  0.
<mgrwt>
<rscale>  0 0.96017712E+03</rscale>
<asrwt>0</asrwt>
<pdfrwt beam="1">  1        2 0.19565808E+00 0.10219928E+04</pdfrwt>
<pdfrwt beam="2">  1       -2 0.16410384E+00 0.10219928E+04</pdfrwt>
<totfact> 0.39916197E+00</totfact>
</mgrwt>
</event>
<event>
 4    1  0.2665544E-007  0.1196535E+04  0.7818608E-02  0.9160498E-01
         -2   -1    0    0    0  501 -0.00000000000E+00  0.00000000000E+00  0.20396425277E+04  0.20396425277E+04  0.25500000000E-02 0.  1.
          2   -1    0    0  501    0  0.00000000000E+00 -0.00000000000E+00 -0.80357886045E+03  0.80357886045E+03  0.25500000000E-02 0. -1.
    8880023    1    1    2    0    0  0.53922673206E+03  0.84090379237E+03 -0.62017350625E+02  0.11981406489E+04  0.65864270000E+03 0.  0.
    8880022    1    1    2    0    0 -0.53922673206E+03 -0.84090379237E+03  0.12980810179E+04  0.16450807392E+04  0.15294330000E+03 0.  0.
<mgrwt>
<rscale>  0 0.11470618E+04</rscale>
<asrwt>0</asrwt>
<pdfrwt beam="1">  1        2 0.12362752E+00 0.11965345E+04</pdfrwt>
<pdfrwt beam="2">  1       -2 0.31379115E+00 0.11965345E+04</pdfrwt>
<totfact> 0.87956541E-01</totfact>
</mgrwt>
</event>
<event>
 4    1  0.2665544E-007  0.7202701E+03  0.7818608E-02  0.9921673E-01
          2   -1    0    0  501    0  0.00000000000E+00  0.00000000000E+00  0.25844584121E+04  0.25844584121E+04  0.25500000000E-02 0. -1.
         -2   -1    0    0    0  501 -0.00000000000E+00 -0.00000000000E+00 -0.34625324497E+03  0.34625324498E+03  0.25500000000E-02 0.  1.
    8880023    1    1    2    0    0 -0.19233818444E+03  0.21905442563E+03  0.24403365480E+04  0.25444118166E+04  0.65864270000E+03 0. -1.
    8880022    1    1    2    0    0  0.19233818444E+03 -0.21905442563E+03 -0.20213138091E+03  0.38629984047E+03  0.15294330000E+03 0.  0.
<mgrwt>
<rscale>  0 0.59222319E+03</rscale>
<asrwt>0</asrwt>
<pdfrwt beam="1">  1        2 0.39760900E+00 0.72027011E+03</pdfrwt>
<pdfrwt beam="2">  1       -2 0.53269728E-01 0.72027011E+03</pdfrwt>
<totfact> 0.10902457E+01</totfact>
</mgrwt>
</event>
<event>
 4    1  0.2665544E-007  0.7460978E+03  0.7818608E-02  0.9842528E-01
          2   -1    0    0  501    0  0.00000000000E+00  0.00000000000E+00  0.30248287223E+04  0.30248287223E+04  0.25500000000E-02 0. -1.
         -2   -1    0    0    0  501 -0.00000000000E+00 -0.00000000000E+00 -0.25765630209E+03  0.25765630210E+03  0.25500000000E-02 0.  1.
    8880023    1    1    2    0    0 -0.19007669211E+02  0.34998622879E+03  0.28009131003E+04  0.28985817314E+04  0.65864270000E+03 0. -1.
    8880022    1    1    2    0    0  0.19007669211E+02 -0.34998622879E+03 -0.33740680150E+02  0.38390329296E+03  0.15294330000E+03 0.  0.
<mgrwt>
<rscale>  0 0.63129347E+03</rscale>
<asrwt>0</asrwt>
<pdfrwt beam="1">  1        2 0.46535825E+00 0.74609775E+03</pdfrwt>
<pdfrwt beam="2">  1       -2 0.39639432E-01 0.74609775E+03</pdfrwt>
<totfact> 0.10762054E+01</totfact>
</mgrwt>
</event>
<event>
 4    1  0.2665544E-007  0.6768140E+03  0.7818608E-02  0.1011186E+00
          2   -1    0    0  501    0  0.00000000000E+00  0.00000000000E+00  0.11643178964E+04  0.11643178964E+04  0.25500000000E-02 0. -1.
         -2   -1    0    0    0  501 -0.00000000000E+00 -0.00000000000E+00 -0.48489363179E+03  0.48489363179E+03  0.25500000000E-02 0.  1.
    8880023    1    1    2    0    0 -0.47032852364E+02 -0.14850886145E+03  0.10322259671E+04  0.12343288154E+04  0.65864270000E+03 0. -1.
    8880022    1    1    2    0    0  0.47032852364E+02  0.14850886145E+03 -0.35280170245E+03  0.41488271282E+03  0.15294330000E+03 0.  0.
<mgrwt>
<rscale>  0 0.51005814E+03</rscale>
<asrwt>0</asrwt>
<pdfrwt beam="1">  1        2 0.17912583E+00 0.67681399E+03</pdfrwt>
<pdfrwt beam="2">  1       -2 0.74599021E-01 0.67681399E+03</pdfrwt>
<totfact> 0.32994944E+01</totfact>
</mgrwt>
</event>
<event>
 4    1  0.2665544E-007  0.6604689E+03  0.7818608E-02  0.1023681E+00
         -2   -1    0    0    0  501 -0.00000000000E+00  0.00000000000E+00  0.25977299119E+03  0.25977299121E+03  0.25500000000E-02 0.  1.
          2   -1    0    0  501    0  0.00000000000E+00 -0.00000000000E+00 -0.20640672295E+04  0.20640672295E+04  0.25500000000E-02 0. -1.
    8880023    1    1    2    0    0  0.41341306702E+02  0.26454126270E+02 -0.19791265638E+04  0.20864230363E+04  0.65864270000E+03 0. -1.
    8880022    1    1    2    0    0 -0.41341306702E+02 -0.26454126270E+02  0.17483232547E+03  0.23741718447E+03  0.15294330000E+03 0.  0.
<mgrwt>
<rscale>  0 0.46381303E+03</rscale>
<asrwt>0</asrwt>
<pdfrwt beam="1">  1        2 0.31754879E+00 0.66046887E+03</pdfrwt>
<pdfrwt beam="2">  1       -2 0.39965077E-01 0.66046887E+03</pdfrwt>
<totfact> 0.38112083E+01</totfact>
</mgrwt>
</event>
<event>
 4    1  0.2665544E-007  0.7388759E+03  0.7818608E-02  0.9863234E-01
         -2   -1    0    0    0  501 -0.00000000000E+00  0.00000000000E+00  0.48185119258E+03  0.48185119258E+03  0.25500000000E-02 0.  1.
          2   -1    0    0  501    0  0.00000000000E+00 -0.00000000000E+00 -0.74558664032E+03  0.74558664033E+03  0.25500000000E-02 0. -1.
    8880023    1    1    2    0    0 -0.33152874196E+03 -0.47075180958E+02 -0.39347685991E+03  0.83711506076E+03  0.65864270000E+03 0.  0.
    8880022    1    1    2    0    0  0.33152874196E+03  0.47075180958E+02  0.12974141217E+03  0.39032277215E+03  0.15294330000E+03 0.  0.
<mgrwt>
<rscale>  0 0.62076705E+03</rscale>
<asrwt>0</asrwt>
<pdfrwt beam="1">  1        2 0.11470564E+00 0.73887589E+03</pdfrwt>
<pdfrwt beam="2">  1       -2 0.74130953E-01 0.73887589E+03</pdfrwt>
<totfact> 0.62774086E+01</totfact>
</mgrwt>
</event>
<event>
 4    1  0.2665544E-007  0.8355520E+03  0.7818608E-02  0.9638625E-01
          2   -1    0    0  501    0  0.00000000000E+00  0.00000000000E+00  0.27048803155E+04  0.27048803155E+04  0.25500000000E-02 0. -1.
         -2   -1    0    0    0  501 -0.00000000000E+00 -0.00000000000E+00 -0.45815703055E+03  0.45815703056E+03  0.25500000000E-02 0.  1.
    8880023    1    1    2    0    0 -0.40362581832E+03 -0.31846989427E+03  0.24506514587E+04  0.25891774086E+04  0.65864270000E+03 0. -1.
    8880022    1    1    2    0    0  0.40362581832E+03  0.31846989427E+03 -0.20392817376E+03  0.57385993748E+03  0.15294330000E+03 0.  0.
<mgrwt>
<rscale>  0 0.74791624E+03</rscale>
<asrwt>0</asrwt>
<pdfrwt beam="1">  1        2 0.41613543E+00 0.83555196E+03</pdfrwt>
<pdfrwt beam="2">  1       -2 0.70485698E-01 0.83555196E+03</pdfrwt>
<totfact> 0.50255077E+00</totfact>
</mgrwt>
</event>
<event>
 4    1  0.2665544E-007  0.1242473E+04  0.7818608E-02  0.9116902E-01
         -2   -1    0    0    0  501 -0.00000000000E+00  0.00000000000E+00  0.12421331699E+04  0.12421331699E+04  0.25500000000E-02 0.  1.
          2   -1    0    0  501    0  0.00000000000E+00 -0.00000000000E+00 -0.17936413139E+04  0.17936413139E+04  0.25500000000E-02 0. -1.
    8880023    1    1    2    0    0  0.55501324624E+03 -0.89548308334E+03 -0.12500424374E+04  0.17624828957E+04  0.65864270000E+03 0. -1.
    8880022    1    1    2    0    0 -0.55501324624E+03  0.89548308334E+03  0.69853429343E+03  0.12732915880E+04  0.15294330000E+03 0.  0.
<mgrwt>
<rscale>  0 0.11953895E+04</rscale>
<asrwt>0</asrwt>
<pdfrwt beam="1">  1        2 0.27594482E+00 0.12424733E+04</pdfrwt>
<pdfrwt beam="2">  1       -2 0.19109741E+00 0.12424733E+04</pdfrwt>
<totfact> 0.12803496E+00</totfact>
</mgrwt>
</event>
<event>
 4    1  0.2665544E-007  0.7104928E+03  0.7818608E-02  0.9956176E-01
         -2   -1    0    0    0  501 -0.00000000000E+00  0.00000000000E+00  0.69157462806E+03  0.69157462806E+03  0.25500000000E-02 0.  1.
          2   -1    0    0  501    0  0.00000000000E+00 -0.00000000000E+00 -0.12988095470E+04  0.12988095470E+04  0.25500000000E-02 0. -1.
    8880023    1    1    2    0    0  0.12630077413E+03  0.23460154996E+03 -0.11586616351E+04  0.13591529582E+04  0.65864270000E+03 0.  0.
    8880022    1    1    2    0    0 -0.12630077413E+03 -0.23460154996E+03  0.55142671619E+03  0.63123121686E+03  0.15294330000E+03 0.  1.
<mgrwt>
<rscale>  0 0.57614336E+03</rscale>
<asrwt>0</asrwt>
<pdfrwt beam="1">  1        2 0.19981685E+00 0.71049277E+03</pdfrwt>
<pdfrwt beam="2">  1       -2 0.10639610E+00 0.71049277E+03</pdfrwt>
<totfact> 0.12100678E+01</totfact>
</mgrwt>
</event>
<event>
 4    1  0.2665544E-007  0.9708947E+03  0.7818608E-02  0.9420668E-01
          2   -1    0    0  501    0  0.00000000000E+00  0.00000000000E+00  0.26038366436E+04  0.26038366436E+04  0.25500000000E-02 0. -1.
         -2   -1    0    0    0  501 -0.00000000000E+00 -0.00000000000E+00 -0.56073830496E+03  0.56073830496E+03  0.25500000000E-02 0.  1.
    8880023    1    1    2    0    0 -0.57331169995E+03  0.42442893007E+03  0.22120445343E+04  0.24157353849E+04  0.65864270000E+03 0.  0.
    8880022    1    1    2    0    0  0.57331169995E+03 -0.42442893007E+03 -0.16894619568E+03  0.74883956362E+03  0.15294330000E+03 0.  0.
<mgrwt>
<rscale>  0 0.90394137E+03</rscale>
<asrwt>0</asrwt>
<pdfrwt beam="1">  1        2 0.40059025E+00 0.97089465E+03</pdfrwt>
<pdfrwt beam="2">  1       -2 0.86267432E-01 0.97089465E+03</pdfrwt>
<totfact> 0.35829317E+00</totfact>
</mgrwt>
</event>
<event>
 4    1  0.2665544E-007  0.1175178E+04  0.7818608E-02  0.9181636E-01
         -2   -1    0    0    0  501 -0.00000000000E+00  0.00000000000E+00  0.13023211987E+04  0.13023211987E+04  0.25500000000E-02 0.  1.
          2   -1    0    0  501    0  0.00000000000E+00 -0.00000000000E+00 -0.28399190960E+04  0.28399190960E+04  0.25500000000E-02 0. -1.
    8880023    1    1    2    0    0  0.97312764955E+03 -0.16018548298E+02 -0.25015874145E+04  0.27638711647E+04  0.65864270000E+03 0.  0.
    8880022    1    1    2    0    0 -0.97312764955E+03  0.16018548298E+02  0.96398951727E+03  0.13783691300E+04  0.15294330000E+03 0.  0.
<mgrwt>
<rscale>  0 0.11244996E+04</rscale>
<asrwt>0</asrwt>
<pdfrwt beam="1">  1        2 0.43691063E+00 0.11751784E+04</pdfrwt>
<pdfrwt beam="2">  1       -2 0.20035711E+00 0.11751784E+04</pdfrwt>
<totfact> 0.28469035E-01</totfact>
</mgrwt>
</event>
<event>
 4    1  0.2665544E-007  0.8008241E+03  0.7818608E-02  0.9709017E-01
          2   -1    0    0  501    0  0.00000000000E+00  0.00000000000E+00  0.27202914594E+04  0.27202914594E+04  0.25500000000E-02 0. -1.
         -2   -1    0    0    0  501 -0.00000000000E+00 -0.00000000000E+00 -0.25809342742E+03  0.25809342743E+03  0.25500000000E-02 0.  1.
    8880023    1    1    2    0    0 -0.14032666272E+03 -0.43337906064E+03  0.23530943708E+04  0.24856331802E+04  0.65864270000E+03 0. -1.
    8880022    1    1    2    0    0  0.14032666272E+03  0.43337906064E+03  0.10910366118E+03  0.49275170661E+03  0.15294330000E+03 0.  0.
<mgrwt>
<rscale>  0 0.70482448E+03</rscale>
<asrwt>0</asrwt>
<pdfrwt beam="1">  1        2 0.41850638E+00 0.80082407E+03</pdfrwt>
<pdfrwt beam="2">  1       -2 0.39706681E-01 0.80082407E+03</pdfrwt>
<totfact> 0.16180044E+01</totfact>
</mgrwt>
</event>
<event>
 4    1  0.2665544E-007  0.7165662E+03  0.7818608E-02  0.9934381E-01
          2   -1    0    0  501    0  0.00000000000E+00  0.00000000000E+00  0.10913374974E+04  0.10913374974E+04  0.25500000000E-02 0. -1.
         -2   -1    0    0    0  501 -0.00000000000E+00 -0.00000000000E+00 -0.11237720910E+04  0.11237720910E+04  0.25500000000E-02 0.  1.
    8880023    1    1    2    0    0 -0.20336915234E+03 -0.19569861510E+03  0.94520295541E+03  0.11861179508E+04  0.65864270000E+03 0. -1.
    8880022    1    1    2    0    0  0.20336915234E+03  0.19569861510E+03 -0.97763754898E+03  0.10289916376E+04  0.15294330000E+03 0.  0.
<mgrwt>
<rscale>  0 0.58623605E+03</rscale>
<asrwt>0</asrwt>
<pdfrwt beam="1">  1        2 0.16789808E+00 0.71656623E+03</pdfrwt>
<pdfrwt beam="2">  1       -2 0.17288801E+00 0.71656623E+03</pdfrwt>
<totfact> 0.46045064E+00</totfact>
</mgrwt>
</event>
<event>
 4    1  0.2665544E-007  0.6835826E+03  0.7818608E-02  0.1007366E+00
          2   -1    0    0  501    0  0.00000000000E+00  0.00000000000E+00  0.20054749672E+04  0.20054749672E+04  0.25500000000E-02 0. -1.
         -2   -1    0    0    0  501 -0.00000000000E+00 -0.00000000000E+00 -0.28695427243E+03  0.28695427244E+03  0.25500000000E-02 0.  1.
    8880023    1    1    2    0    0 -0.11809139745E+03  0.13974755617E+03  0.18826674608E+04  0.20029283392E+04  0.65864270000E+03 0. -1.
    8880022    1    1    2    0    0  0.11809139745E+03 -0.13974755617E+03 -0.16414676598E+03  0.28950090052E+03  0.15294330000E+03 0.  0.
<mgrwt>
<rscale>  0 0.52535203E+03</rscale>
<asrwt>0</asrwt>
<pdfrwt beam="1">  1        2 0.30853461E+00 0.68358259E+03</pdfrwt>
<pdfrwt beam="2">  1       -2 0.44146811E-01 0.68358259E+03</pdfrwt>
<totfact> 0.33620563E+01</totfact>
</mgrwt>
</event>
<event>
 4    1  0.2665544E-007  0.2007260E+04  0.7818608E-02  0.8615799E-01
         -2   -1    0    0    0  501 -0.00000000000E+00  0.00000000000E+00  0.24255508375E+04  0.24255508375E+04  0.25500000000E-02 0.  1.
          2   -1    0    0  501    0  0.00000000000E+00 -0.00000000000E+00 -0.22207417132E+04  0.22207417132E+04  0.25500000000E-02 0. -1.
    8880023    1    1    2    0    0 -0.17203405758E+04  0.79731540789E+03 -0.11476982680E+04  0.23122078360E+04  0.65864270000E+03 0.  0.
    8880022    1    1    2    0    0  0.17203405758E+04 -0.79731540789E+03  0.13525073923E+04  0.23340847147E+04  0.15294330000E+03 0.  0.
<mgrwt>
<rscale>  0 0.19804846E+04</rscale>
<asrwt>0</asrwt>
<pdfrwt beam="1">  1        2 0.34165257E+00 0.20072603E+04</pdfrwt>
<pdfrwt beam="2">  1       -2 0.37316167E+00 0.20072603E+04</pdfrwt>
<totfact> 0.49271028E-02</totfact>
</mgrwt>
</event>
<event>
 4    1  0.2665544E-007  0.9997299E+03  0.7818608E-02  0.9381911E-01
          2   -1    0    0  501    0  0.00000000000E+00  0.00000000000E+00  0.15366839692E+04  0.15366839692E+04  0.25500000000E-02 0. -1.
         -2   -1    0    0    0  501 -0.00000000000E+00 -0.00000000000E+00 -0.54997363719E+03  0.54997363719E+03  0.25500000000E-02 0.  1.
    8880023    1    1    2    0    0  0.64882079610E+03  0.38036994345E+03  0.26762179997E+03  0.10349306032E+04  0.65864270000E+03 0. -1.
    8880022    1    1    2    0    0 -0.64882079610E+03 -0.38036994345E+03  0.71908853201E+03  0.10517270032E+04  0.15294330000E+03 0.  0.
<mgrwt>
<rscale>  0 0.93579397E+03</rscale>
<asrwt>0</asrwt>
<pdfrwt beam="1">  1        2 0.23641291E+00 0.99972993E+03</pdfrwt>
<pdfrwt beam="2">  1       -2 0.84611330E-01 0.99972993E+03</pdfrwt>
<totfact> 0.14692298E+01</totfact>
</mgrwt>
</event>
<event>
 4    1  0.2665544E-007  0.1083721E+04  0.7818608E-02  0.9279400E-01
         -2   -1    0    0    0  501 -0.00000000000E+00  0.00000000000E+00  0.83375705575E+03  0.83375705575E+03  0.25500000000E-02 0.  1.
          2   -1    0    0  501    0  0.00000000000E+00 -0.00000000000E+00 -0.19440180170E+04  0.19440180170E+04  0.25500000000E-02 0. -1.
    8880023    1    1    2    0    0 -0.76822179927E+03 -0.38791409759E+03 -0.14752657539E+04  0.18305358043E+04  0.65864270000E+03 0. -1.
    8880022    1    1    2    0    0  0.76822179927E+03  0.38791409759E+03  0.36500479265E+03  0.94723926843E+03  0.15294330000E+03 0.  0.
<mgrwt>
<rscale>  0 0.10270163E+04</rscale>
<asrwt>0</asrwt>
<pdfrwt beam="1">  1        2 0.29907969E+00 0.10837215E+04</pdfrwt>
<pdfrwt beam="2">  1       -2 0.12827032E+00 0.10837215E+04</pdfrwt>
<totfact> 0.31851143E+00</totfact>
</mgrwt>
</event>
<event>
 4    1  0.2665544E-007  0.9240882E+03  0.7818608E-02  0.9488419E-01
         -2   -1    0    0    0  501 -0.00000000000E+00  0.00000000000E+00  0.51767429961E+03  0.51767429961E+03  0.25500000000E-02 0.  1.
          2   -1    0    0  501    0  0.00000000000E+00 -0.00000000000E+00 -0.19768202054E+04  0.19768202054E+04  0.25500000000E-02 0. -1.
    8880023    1    1    2    0    0 -0.18190353903E+03  0.62212531706E+03 -0.15676468410E+04  0.18197405398E+04  0.65864270000E+03 0.  0.
    8880022    1    1    2    0    0  0.18190353903E+03 -0.62212531706E+03  0.10850093524E+03  0.67475396524E+03  0.15294330000E+03 0.  0.
<mgrwt>
<rscale>  0 0.85143065E+03</rscale>
<asrwt>0</asrwt>
<pdfrwt beam="1">  1        2 0.30412618E+00 0.92408821E+03</pdfrwt>
<pdfrwt beam="2">  1       -2 0.79642201E-01 0.92408821E+03</pdfrwt>
<totfact> 0.97139065E+00</totfact>
</mgrwt>
</event>
<event>
 4    1  0.2665544E-007  0.1141850E+04  0.7818608E-02  0.9215832E-01
          2   -1    0    0  501    0  0.00000000000E+00  0.00000000000E+00  0.13738286207E+04  0.13738286207E+04  0.25500000000E-02 0. -1.
         -2   -1    0    0    0  501 -0.00000000000E+00 -0.00000000000E+00 -0.12511975663E+04  0.12511975663E+04  0.25500000000E-02 0.  1.
    8880023    1    1    2    0    0 -0.86003132601E+03  0.36104981745E+03  0.85732262598E+03  0.14278736442E+04  0.65864270000E+03 0.  0.
    8880022    1    1    2    0    0  0.86003132601E+03 -0.36104981745E+03 -0.73469157164E+03  0.11971525428E+04  0.15294330000E+03 0.  0.
<mgrwt>
<rscale>  0 0.10891499E+04</rscale>
<asrwt>0</asrwt>
<pdfrwt beam="1">  1        2 0.21135825E+00 0.11418498E+04</pdfrwt>
<pdfrwt beam="2">  1       -2 0.19249193E+00 0.11418498E+04</pdfrwt>
<totfact> 0.21815141E+00</totfact>
</mgrwt>
</event>
<event>
 4    1  0.2665544E-007  0.6707427E+03  0.7818608E-02  0.1015136E+00
         -2   -1    0    0    0  501 -0.00000000000E+00  0.00000000000E+00  0.27449874232E+03  0.27449874233E+03  0.25500000000E-02 0.  1.
          2   -1    0    0  501    0  0.00000000000E+00 -0.00000000000E+00 -0.85589622361E+03  0.85589622362E+03  0.25500000000E-02 0. -1.
    8880023    1    1    2    0    0  0.12473441654E+03  0.22955466224E+02 -0.63600698099E+03  0.92433798701E+03  0.65864270000E+03 0.  0.
    8880022    1    1    2    0    0 -0.12473441654E+03 -0.22955466224E+02  0.54609499691E+02  0.20605697894E+03  0.15294330000E+03 0.  0.
<mgrwt>
<rscale>  0 0.49483498E+03</rscale>
<asrwt>0</asrwt>
<pdfrwt beam="1">  1        2 0.13167634E+00 0.67074275E+03</pdfrwt>
<pdfrwt beam="2">  1       -2 0.42230576E-01 0.67074275E+03</pdfrwt>
<totfact> 0.16965414E+02</totfact>
</mgrwt>
</event>
<event>
 4    1  0.2665544E-007  0.1102193E+04  0.7818608E-02  0.9258619E-01
          2   -1    0    0  501    0  0.00000000000E+00  0.00000000000E+00  0.10188185254E+04  0.10188185254E+04  0.25500000000E-02 0. -1.
         -2   -1    0    0    0  501 -0.00000000000E+00 -0.00000000000E+00 -0.14137904372E+04  0.14137904372E+04  0.25500000000E-02 0.  1.
    8880023    1    1    2    0    0 -0.88234215460E+03  0.49911266430E+02 -0.88233434114E+03  0.14118579632E+04  0.65864270000E+03 0.  0.
    8880022    1    1    2    0    0  0.88234215460E+03 -0.49911266430E+02  0.48736242935E+03  0.10207509994E+04  0.15294330000E+03 0.  0.
<mgrwt>
<rscale>  0 0.10468342E+04</rscale>
<asrwt>0</asrwt>
<pdfrwt beam="1">  1        2 0.15674131E+00 0.11021928E+04</pdfrwt>
<pdfrwt beam="2">  1       -2 0.21750622E+00 0.11021928E+04</pdfrwt>
<totfact> 0.24667106E+00</totfact>
</mgrwt>
</event>
<event>
 4    1  0.2665544E-007  0.9057040E+03  0.7818608E-02  0.9516936E-01
         -2   -1    0    0    0  501 -0.00000000000E+00  0.00000000000E+00  0.42491650203E+03  0.42491650204E+03  0.25500000000E-02 0.  1.
          2   -1    0    0  501    0  0.00000000000E+00 -0.00000000000E+00 -0.27029556487E+04  0.27029556487E+04  0.25500000000E-02 0. -1.
    8880023    1    1    2    0    0  0.60922925152E+03  0.12381110985E+03 -0.23157292344E+04  0.24865441008E+04  0.65864270000E+03 0. -1.
    8880022    1    1    2    0    0 -0.60922925152E+03 -0.12381110985E+03  0.37690087808E+02  0.64132804989E+03  0.15294330000E+03 0.  0.
<mgrwt>
<rscale>  0 0.83046616E+03</rscale>
<asrwt>0</asrwt>
<pdfrwt beam="1">  1        2 0.41583932E+00 0.90570397E+03</pdfrwt>
<pdfrwt beam="2">  1       -2 0.65371771E-01 0.90570397E+03</pdfrwt>
<totfact> 0.58696567E+00</totfact>
</mgrwt>
</event>
<event>
 4    1  0.2665544E-007  0.8839936E+03  0.7818608E-02  0.9552231E-01
          2   -1    0    0  501    0  0.00000000000E+00  0.00000000000E+00  0.28299692430E+04  0.28299692430E+04  0.25500000000E-02 0. -1.
         -2   -1    0    0    0  501 -0.00000000000E+00 -0.00000000000E+00 -0.30948979574E+03  0.30948979575E+03  0.25500000000E-02 0.  1.
    8880023    1    1    2    0    0 -0.18577736243E+03 -0.55957244360E+03  0.23442106371E+04  0.25053479330E+04  0.65864270000E+03 0.  0.
    8880022    1    1    2    0    0  0.18577736243E+03  0.55957244360E+03  0.17626881019E+03  0.63411110579E+03  0.15294330000E+03 0.  0.
<mgrwt>
<rscale>  0 0.80540149E+03</rscale>
<asrwt>0</asrwt>
<pdfrwt beam="1">  1        2 0.43537990E+00 0.88399364E+03</pdfrwt>
<pdfrwt beam="2">  1       -2 0.47613813E-01 0.88399364E+03</pdfrwt>
<totfact> 0.95987604E+00</totfact>
</mgrwt>
</event>
<event>
 4    1  0.2665544E-007  0.7791526E+03  0.7818608E-02  0.9757831E-01
         -2   -1    0    0    0  501 -0.00000000000E+00  0.00000000000E+00  0.14880744287E+04  0.14880744287E+04  0.25500000000E-02 0.  1.
          2   -1    0    0  501    0  0.00000000000E+00 -0.00000000000E+00 -0.11570487413E+04  0.11570487413E+04  0.25500000000E-02 0. -1.
    8880023    1    1    2    0    0 -0.38116700442E+03  0.16727320653E+03 -0.98527769933E+03  0.12561253767E+04  0.65864270000E+03 0. -1.
    8880022    1    1    2    0    0  0.38116700442E+03 -0.16727320653E+03  0.13163033868E+04  0.13889977933E+04  0.15294330000E+03 0.  0.
<mgrwt>
<rscale>  0 0.67675501E+03</rscale>
<asrwt>0</asrwt>
<pdfrwt beam="1">  1        2 0.17800750E+00 0.77915263E+03</pdfrwt>
<pdfrwt beam="2">  1       -2 0.22893453E+00 0.77915263E+03</pdfrwt>
<totfact> 0.17919707E+00</totfact>
</mgrwt>
</event>
<event>
 4    1  0.3996822E-007  0.1634170E+04  0.7818608E-02  0.8820279E-01
         -2   -1    0    0    0  501 -0.00000000000E+00  0.00000000000E+00  0.20754445399E+04  0.20754445399E+04  0.25500000000E-02 0.  1.
          2   -1    0    0  501    0  0.00000000000E+00 -0.00000000000E+00 -0.28660085516E+04  0.28660085516E+04  0.25500000000E-02 0. -1.
    8880023    1    1    2    0    0 -0.13216539361E+04 -0.69995274753E+03 -0.22931963676E+04  0.28158946647E+04  0.65864270000E+03 0.  0.
    8880022    1    1    2    0    0  0.13216539361E+04  0.69995274753E+03  0.15026323560E+04  0.21255584269E+04  0.15294330000E+03 0.  0.
<mgrwt>
<rscale>  0 0.16004380E+04</rscale>
<asrwt>0</asrwt>
<pdfrwt beam="1">  1        2 0.44092439E+00 0.16341705E+04</pdfrwt>
<pdfrwt beam="2">  1       -2 0.31929916E+00 0.16341705E+04</pdfrwt>
<totfact> 0.47069421E-02</totfact>
</mgrwt>
</event>
<event>
 4    1  0.2665544E-007  0.7728963E+03  0.7818608E-02  0.9772796E-01
         -2   -1    0    0    0  501 -0.00000000000E+00  0.00000000000E+00  0.15040351029E+04  0.15040351029E+04  0.25500000000E-02 0.  1.
          2   -1    0    0  501    0  0.00000000000E+00 -0.00000000000E+00 -0.82563922513E+03  0.82563922514E+03  0.25500000000E-02 0. -1.
    8880023    1    1    2    0    0  0.19383201549E+03  0.35494731012E+03 -0.60108056609E+03  0.97911515992E+03  0.65864270000E+03 0. -1.
    8880022    1    1    2    0    0 -0.19383201549E+03 -0.35494731012E+03  0.12794764439E+04  0.13505591681E+04  0.15294330000E+03 0.  0.
<mgrwt>
<rscale>  0 0.66843106E+03</rscale>
<asrwt>0</asrwt>
<pdfrwt beam="1">  1        2 0.12702142E+00 0.77289627E+03</pdfrwt>
<pdfrwt beam="2">  1       -2 0.23139001E+00 0.77289627E+03</pdfrwt>
<totfact> 0.28347189E+00</totfact>
</mgrwt>
</event>
<event>
 4    1  0.2665544E-007  0.1178257E+04  0.7818608E-02  0.9178553E-01
         -2   -1    0    0    0  501 -0.00000000000E+00  0.00000000000E+00  0.11058710989E+04  0.11058710989E+04  0.25500000000E-02 0.  1.
          2   -1    0    0  501    0  0.00000000000E+00 -0.00000000000E+00 -0.27041281886E+04  0.27041281886E+04  0.25500000000E-02 0. -1.
    8880023    1    1    2    0    0 -0.98734786856E+02 -0.97197246490E+03 -0.23089672443E+04  0.25922227860E+04  0.65864270000E+03 0. -1.
    8880022    1    1    2    0    0  0.98734786856E+02  0.97197246490E+03  0.71071015468E+03  0.12177765015E+04  0.15294330000E+03 0.  0.
<mgrwt>
<rscale>  0 0.11277560E+04</rscale>
<asrwt>0</asrwt>
<pdfrwt beam="1">  1        2 0.41601972E+00 0.11782569E+04</pdfrwt>
<pdfrwt beam="2">  1       -2 0.17013401E+00 0.11782569E+04</pdfrwt>
<totfact> 0.55151578E-01</totfact>
</mgrwt>
</event>
<event>
 4    1  0.2665544E-007  0.7615948E+03  0.7818608E-02  0.9800996E-01
          2   -1    0    0  501    0  0.00000000000E+00  0.00000000000E+00  0.14801863608E+04  0.14801863608E+04  0.25500000000E-02 0. -1.
         -2   -1    0    0    0  501 -0.00000000000E+00 -0.00000000000E+00 -0.30101381939E+03  0.30101381941E+03  0.25500000000E-02 0.  1.
    8880023    1    1    2    0    0 -0.18085470824E+03 -0.33690945072E+03  0.11352251734E+04  0.13670269946E+04  0.65864270000E+03 0. -1.
    8880022    1    1    2    0    0  0.18085470824E+03  0.33690945072E+03  0.43947368010E+02  0.41417318557E+03  0.15294330000E+03 0.  0.
<mgrwt>
<rscale>  0 0.65309112E+03</rscale>
<asrwt>0</asrwt>
<pdfrwt beam="1">  1        2 0.22772097E+00 0.76159478E+03</pdfrwt>
<pdfrwt beam="2">  1       -2 0.46309820E-01 0.76159478E+03</pdfrwt>
<totfact> 0.58714457E+01</totfact>
</mgrwt>
</event>
<event>
 4    1  0.2665544E-007  0.9047601E+03  0.7818608E-02  0.9518433E-01
          2   -1    0    0  501    0  0.00000000000E+00  0.00000000000E+00  0.15250603684E+04  0.15250603684E+04  0.25500000000E-02 0. -1.
         -2   -1    0    0    0  501 -0.00000000000E+00 -0.00000000000E+00 -0.58622194792E+03  0.58622194793E+03  0.25500000000E-02 0.  1.
    8880023    1    1    2    0    0  0.14446469710E+02 -0.62013859936E+03 -0.80438311362E+02  0.90832874616E+03  0.65864270000E+03 0.  1.
    8880022    1    1    2    0    0 -0.14446469710E+02  0.62013859936E+03  0.10192767318E+04  0.12029535702E+04  0.15294330000E+03 0.  0.
<mgrwt>
<rscale>  0 0.82938371E+03</rscale>
<asrwt>0</asrwt>
<pdfrwt beam="1">  1        2 0.23462467E+00 0.90476007E+03</pdfrwt>
<pdfrwt beam="2">  1       -2 0.90187993E-01 0.90476007E+03</pdfrwt>
<totfact> 0.13002867E+01</totfact>
</mgrwt>
</event>
<event>
 4    1  0.2665544E-007  0.1584882E+04  0.7818608E-02  0.8851913E-01
         -2   -1    0    0    0  501 -0.00000000000E+00  0.00000000000E+00  0.16449660990E+04  0.16449660990E+04  0.25500000000E-02 0.  1.
          2   -1    0    0  501    0  0.00000000000E+00 -0.00000000000E+00 -0.21474497614E+04  0.21474497614E+04  0.25500000000E-02 0. -1.
    8880023    1    1    2    0    0 -0.68266210490E+03  0.12696502345E+04 -0.13769222312E+04  0.20994676241E+04  0.65864270000E+03 0. -1.
    8880022    1    1    2    0    0  0.68266210490E+03 -0.12696502345E+04  0.87443856879E+03  0.16929482364E+04  0.15294330000E+03 0.  0.
<mgrwt>
<rscale>  0 0.15499297E+04</rscale>
<asrwt>0</asrwt>
<pdfrwt beam="1">  1        2 0.33037689E+00 0.15848815E+04</pdfrwt>
<pdfrwt beam="2">  1       -2 0.25307171E+00 0.15848815E+04</pdfrwt>
<totfact> 0.31576679E-01</totfact>
</mgrwt>
</event>
<event>
 4    1  0.2665544E-007  0.1224521E+04  0.7818608E-02  0.9133647E-01
          2   -1    0    0  501    0  0.00000000000E+00  0.00000000000E+00  0.28330309596E+04  0.28330309596E+04  0.25500000000E-02 0. -1.
         -2   -1    0    0    0  501 -0.00000000000E+00 -0.00000000000E+00 -0.65713277087E+03  0.65713277088E+03  0.25500000000E-02 0.  1.
    8880023    1    1    2    0    0 -0.10238901757E+04 -0.13149613864E+03  0.21161318339E+04  0.24448857787E+04  0.65864270000E+03 0.  0.
    8880022    1    1    2    0    0  0.10238901757E+04  0.13149613864E+03  0.59766354866E+02  0.10452779518E+04  0.15294330000E+03 0.  0.
<mgrwt>
<rscale>  0 0.11765353E+04</rscale>
<asrwt>0</asrwt>
<pdfrwt beam="1">  1        2 0.43585091E+00 0.12245213E+04</pdfrwt>
<pdfrwt beam="2">  1       -2 0.10109735E+00 0.12245213E+04</pdfrwt>
<totfact> 0.17498593E+00</totfact>
</mgrwt>
</event>
<event>
 4    1  0.2665544E-007  0.6909623E+03  0.7818608E-02  0.1003699E+00
         -2   -1    0    0    0  501 -0.00000000000E+00  0.00000000000E+00  0.21973088493E+03  0.21973088495E+03  0.25500000000E-02 0.  1.
          2   -1    0    0  501    0  0.00000000000E+00 -0.00000000000E+00 -0.18547775163E+04  0.18547775163E+04  0.25500000000E-02 0. -1.
    8880023    1    1    2    0    0 -0.20882640529E+03  0.32066842058E+01 -0.16756118697E+04  0.18124856122E+04  0.65864270000E+03 0. -1.
    8880022    1    1    2    0    0  0.20882640529E+03 -0.32066842058E+01  0.40565238372E+02  0.26202278899E+03  0.15294330000E+03 0.  0.
<mgrwt>
<rscale>  0 0.54057824E+03</rscale>
<asrwt>0</asrwt>
<pdfrwt beam="1">  1        2 0.28535038E+00 0.69096234E+03</pdfrwt>
<pdfrwt beam="2">  1       -2 0.33804753E-01 0.69096234E+03</pdfrwt>
<totfact> 0.68002126E+01</totfact>
</mgrwt>
</event>
<event>
 4    1  0.2665544E-007  0.1567026E+04  0.7818608E-02  0.8863702E-01
         -2   -1    0    0    0  501 -0.00000000000E+00  0.00000000000E+00  0.10962798668E+04  0.10962798668E+04  0.25500000000E-02 0.  1.
          2   -1    0    0  501    0  0.00000000000E+00 -0.00000000000E+00 -0.32528979474E+04  0.32528979474E+04  0.25500000000E-02 0. -1.
    8880023    1    1    2    0    0  0.34276162706E+03  0.13799543079E+04 -0.24316974449E+04  0.28928743655E+04  0.65864270000E+03 0. -1.
    8880022    1    1    2    0    0 -0.34276162706E+03 -0.13799543079E+04  0.27507936434E+03  0.14563034487E+04  0.15294330000E+03 0.  0.
<mgrwt>
<rscale>  0 0.15316085E+04</rscale>
<asrwt>0</asrwt>
<pdfrwt beam="1">  1        2 0.50044584E+00 0.15670257E+04</pdfrwt>
<pdfrwt beam="2">  1       -2 0.16865844E+00 0.15670257E+04</pdfrwt>
<totfact> 0.24520448E-01</totfact>
</mgrwt>
</event>
<event>
 4    1  0.2665544E-007  0.6725131E+03  0.7818608E-02  0.1013922E+00
         -2   -1    0    0    0  501 -0.00000000000E+00  0.00000000000E+00  0.13719961778E+04  0.13719961778E+04  0.25500000000E-02 0.  1.
          2   -1    0    0  501    0  0.00000000000E+00 -0.00000000000E+00 -0.62583186277E+03  0.62583186278E+03  0.25500000000E-02 0. -1.
    8880023    1    1    2    0    0 -0.38671614896E+02 -0.13026177477E+03 -0.43378304891E+03  0.80027592963E+03  0.65864270000E+03 0. -1.
    8880022    1    1    2    0    0  0.38671614896E+02  0.13026177477E+03  0.11799473640E+04  0.11975521110E+04  0.15294330000E+03 0.  0.
<mgrwt>
<rscale>  0 0.49945265E+03</rscale>
<asrwt>0</asrwt>
<pdfrwt beam="1">  1        2 0.96281826E-01 0.67251307E+03</pdfrwt>
<pdfrwt beam="2">  1       -2 0.21107633E+00 0.67251307E+03</pdfrwt>
<totfact> 0.54836884E+00</totfact>
</mgrwt>
</event>
<event>
 4    1  0.2665544E-007  0.7579706E+03  0.7818608E-02  0.9810390E-01
         -2   -1    0    0    0  501 -0.00000000000E+00  0.00000000000E+00  0.20083447259E+03  0.20083447261E+03  0.25500000000E-02 0.  1.
          2   -1    0    0  501    0  0.00000000000E+00 -0.00000000000E+00 -0.24166210095E+04  0.24166210095E+04  0.25500000000E-02 0. -1.
    8880023    1    1    2    0    0  0.13426582529E+03 -0.35025967955E+03 -0.20392625016E+04  0.21755713989E+04  0.65864270000E+03 0.  0.
    8880022    1    1    2    0    0 -0.13426582529E+03  0.35025967955E+03 -0.17652403533E+03  0.44188408324E+03  0.15294330000E+03 0.  0.
<mgrwt>
<rscale>  0 0.64807921E+03</rscale>
<asrwt>0</asrwt>
<pdfrwt beam="1">  1        2 0.37178783E+00 0.75797055E+03</pdfrwt>
<pdfrwt beam="2">  1       -2 0.30897613E-01 0.75797055E+03</pdfrwt>
<totfact> 0.39196616E+01</totfact>
</mgrwt>
</event>
<event>
 4    1  0.2665544E-007  0.2237225E+04  0.7818608E-02  0.8512860E-01
         -2   -1    0    0    0  501 -0.00000000000E+00  0.00000000000E+00  0.24772054936E+04  0.24772054936E+04  0.25500000000E-02 0.  1.
          2   -1    0    0  501    0  0.00000000000E+00 -0.00000000000E+00 -0.23038641588E+04  0.23038641588E+04  0.25500000000E-02 0. -1.
    8880023    1    1    2    0    0 -0.13706256697E+04  0.16409607108E+04 -0.86582478912E+03  0.23989225816E+04  0.65864270000E+03 0.  0.
    8880022    1    1    2    0    0  0.13706256697E+04 -0.16409607108E+04  0.10391661239E+04  0.23821470708E+04  0.15294330000E+03 0.  0.
<mgrwt>
<rscale>  0 0.22134266E+04</rscale>
<asrwt>0</asrwt>
<pdfrwt beam="1">  1        2 0.35444064E+00 0.22372253E+04</pdfrwt>
<pdfrwt beam="2">  1       -2 0.38110854E+00 0.22372253E+04</pdfrwt>
<totfact> 0.38365468E-02</totfact>
</mgrwt>
</event>
<event>
 4    1  0.2665544E-007  0.7434189E+03  0.7818608E-02  0.9850098E-01
          2   -1    0    0  501    0  0.00000000000E+00  0.00000000000E+00  0.34209918108E+04  0.34209918108E+04  0.25500000000E-02 0. -1.
         -2   -1    0    0    0  501 -0.00000000000E+00 -0.00000000000E+00 -0.29267913769E+03  0.29267913770E+03  0.25500000000E-02 0.  1.
    8880023    1    1    2    0    0  0.32464823074E+03 -0.11603845959E+03  0.32369101936E+04  0.33211834043E+04  0.65864270000E+03 0. -1.
    8880022    1    1    2    0    0 -0.32464823074E+03  0.11603845959E+03 -0.10859752048E+03  0.39248754413E+03  0.15294330000E+03 0.  0.
<mgrwt>
<rscale>  0 0.62741931E+03</rscale>
<asrwt>0</asrwt>
<pdfrwt beam="1">  1        2 0.52630641E+00 0.74341886E+03</pdfrwt>
<pdfrwt beam="2">  1       -2 0.45027562E-01 0.74341886E+03</pdfrwt>
<totfact> 0.46710526E+00</totfact>
</mgrwt>
</event>
<event>
 4    1  0.2665544E-007  0.8908645E+03  0.7818608E-02  0.9540859E-01
          2   -1    0    0  501    0  0.00000000000E+00  0.00000000000E+00  0.31429845747E+04  0.31429845747E+04  0.25500000000E-02 0. -1.
         -2   -1    0    0    0  501 -0.00000000000E+00 -0.00000000000E+00 -0.40765667010E+03  0.40765667011E+03  0.25500000000E-02 0.  1.
    8880023    1    1    2    0    0 -0.15660453474E+03 -0.57905469518E+03  0.27903895173E+04  0.29291488840E+04  0.65864270000E+03 0.  0.
    8880022    1    1    2    0    0  0.15660453474E+03  0.57905469518E+03 -0.55061612685E+02  0.62149236079E+03  0.15294330000E+03 0.  0.
<mgrwt>
<rscale>  0 0.81337326E+03</rscale>
<asrwt>0</asrwt>
<pdfrwt beam="1">  1        2 0.48353608E+00 0.89086448E+03</pdfrwt>
<pdfrwt beam="2">  1       -2 0.62716412E-01 0.89086448E+03</pdfrwt>
<totfact> 0.34758937E+00</totfact>
</mgrwt>
</event>
<event>
 4    1  0.2665544E-007  0.7213869E+03  0.7818608E-02  0.9917921E-01
          2   -1    0    0  501    0  0.00000000000E+00  0.00000000000E+00  0.12760525464E+04  0.12760525464E+04  0.25500000000E-02 0. -1.
         -2   -1    0    0    0  501 -0.00000000000E+00 -0.00000000000E+00 -0.28876538906E+03  0.28876538907E+03  0.25500000000E-02 0.  1.
    8880023    1    1    2    0    0  0.14471924932E+03  0.25621328231E+03  0.99987814792E+03  0.12329458318E+04  0.65864270000E+03 0.  0.
    8880022    1    1    2    0    0 -0.14471924932E+03 -0.25621328231E+03 -0.12590990570E+02  0.33187210370E+03  0.15294330000E+03 0.  0.
<mgrwt>
<rscale>  0 0.59400581E+03</rscale>
<asrwt>0</asrwt>
<pdfrwt beam="1">  1        2 0.19631577E+00 0.72138694E+03</pdfrwt>
<pdfrwt beam="2">  1       -2 0.44425445E-01 0.72138694E+03</pdfrwt>
<totfact> 0.83624694E+01</totfact>
</mgrwt>
</event>
<event>
 4    1  0.2665544E-007  0.8451995E+03  0.7818608E-02  0.9620453E-01
         -2   -1    0    0    0  501 -0.00000000000E+00  0.00000000000E+00  0.90354569312E+03  0.90354569312E+03  0.25500000000E-02 0.  1.
          2   -1    0    0  501    0  0.00000000000E+00 -0.00000000000E+00 -0.12530818295E+04  0.12530818295E+04  0.25500000000E-02 0. -1.
    8880023    1    1    2    0    0 -0.25512710378E+03 -0.46417893502E+03 -0.99647291875E+03  0.13066447133E+04  0.65864270000E+03 0. -1.
    8880022    1    1    2    0    0  0.25512710378E+03  0.46417893502E+03  0.64693678233E+03  0.84998280933E+03  0.15294330000E+03 0.  0.
<mgrwt>
<rscale>  0 0.75957127E+03</rscale>
<asrwt>0</asrwt>
<pdfrwt beam="1">  1        2 0.19278182E+00 0.84519946E+03</pdfrwt>
<pdfrwt beam="2">  1       -2 0.13900703E+00 0.84519946E+03</pdfrwt>
<totfact> 0.65022272E+00</totfact>
</mgrwt>
</event>
<event>
 4    1  0.2665544E-007  0.7584284E+03  0.7818608E-02  0.9809193E-01
          2   -1    0    0  501    0  0.00000000000E+00  0.00000000000E+00  0.23372918134E+04  0.23372918134E+04  0.25500000000E-02 0. -1.
         -2   -1    0    0    0  501 -0.00000000000E+00 -0.00000000000E+00 -0.26961455604E+03  0.26961455605E+03  0.25500000000E-02 0.  1.
    8880023    1    1    2    0    0  0.15975930183E+03 -0.34041220004E+03  0.20661519716E+04  0.22009538107E+04  0.65864270000E+03 0.  0.
    8880022    1    1    2    0    0 -0.15975930183E+03  0.34041220004E+03  0.15252856947E+01  0.40595255877E+03  0.15294330000E+03 0.  0.
<mgrwt>
<rscale>  0 0.64871511E+03</rscale>
<asrwt>0</asrwt>
<pdfrwt beam="1">  1        2 0.35958334E+00 0.75842845E+03</pdfrwt>
<pdfrwt beam="2">  1       -2 0.41479164E-01 0.75842845E+03</pdfrwt>
<totfact> 0.24713764E+01</totfact>
</mgrwt>
</event>
<event>
 4    1  0.2665544E-007  0.9020130E+03  0.7818608E-02  0.9522808E-01
          2   -1    0    0  501    0  0.00000000000E+00  0.00000000000E+00  0.99470390072E+03  0.99470390072E+03  0.25500000000E-02 0. -1.
         -2   -1    0    0    0  501 -0.00000000000E+00 -0.00000000000E+00 -0.63671795835E+03  0.63671795835E+03  0.25500000000E-02 0.  1.
    8880023    1    1    2    0    0 -0.61502611237E+03  0.39498945647E+02  0.41692081705E+03  0.99370541890E+03  0.65864270000E+03 0.  0.
    8880022    1    1    2    0    0  0.61502611237E+03 -0.39498945647E+02 -0.58934874683E+02  0.63771644017E+03  0.15294330000E+03 0.  0.
<mgrwt>
<rscale>  0 0.82622984E+03</rscale>
<asrwt>0</asrwt>
<pdfrwt beam="1">  1        2 0.15303137E+00 0.90201302E+03</pdfrwt>
<pdfrwt beam="2">  1       -2 0.97956608E-01 0.90201302E+03</pdfrwt>
<totfact> 0.22064359E+01</totfact>
</mgrwt>
</event>
<event>
 4    1  0.2665544E-007  0.7488528E+03  0.7818608E-02  0.9834872E-01
         -2   -1    0    0    0  501 -0.00000000000E+00  0.00000000000E+00  0.29059010389E+04  0.29059010389E+04  0.25500000000E-02 0.  1.
          2   -1    0    0  501    0  0.00000000000E+00 -0.00000000000E+00 -0.14720654881E+03  0.14720654883E+03  0.25500000000E-02 0. -1.
    8880023    1    1    2    0    0 -0.33499683649E+03 -0.12143872325E+03  0.98398843036E+03  0.12365329277E+04  0.65864270000E+03 0.  0.
    8880022    1    1    2    0    0  0.33499683649E+03  0.12143872325E+03  0.17747060598E+04  0.18165746601E+04  0.15294330000E+03 0.  0.
<mgrwt>
<rscale>  0 0.63524250E+03</rscale>
<asrwt>0</asrwt>
<pdfrwt beam="1">  1        2 0.22647159E-01 0.74885276E+03</pdfrwt>
<pdfrwt beam="2">  1       -2 0.44706175E+00 0.74885276E+03</pdfrwt>
<totfact> 0.94894405E-01</totfact>
</mgrwt>
</event>
<event>
 4    1  0.2665544E-007  0.1119515E+04  0.7818608E-02  0.9239634E-01
         -2   -1    0    0    0  501 -0.00000000000E+00  0.00000000000E+00  0.77064281270E+03  0.77064281271E+03  0.25500000000E-02 0.  1.
          2   -1    0    0  501    0  0.00000000000E+00 -0.00000000000E+00 -0.15530475763E+04  0.15530475763E+04  0.25500000000E-02 0. -1.
    8880023    1    1    2    0    0 -0.90340849632E+03 -0.57929746088E+02 -0.84626286036E+03  0.14033794219E+04  0.65864270000E+03 0.  0.
    8880022    1    1    2    0    0  0.90340849632E+03  0.57929746088E+02  0.63858096744E+02  0.92031096714E+03  0.15294330000E+03 0.  0.
<mgrwt>
<rscale>  0 0.10653541E+04</rscale>
<asrwt>0</asrwt>
<pdfrwt beam="1">  1        2 0.23893040E+00 0.11195146E+04</pdfrwt>
<pdfrwt beam="2">  1       -2 0.11856043E+00 0.11195146E+04</pdfrwt>
<totfact> 0.63697246E+00</totfact>
</mgrwt>
</event>
<event>
 4    1  0.2665544E-007  0.1221121E+04  0.7818608E-02  0.9136860E-01
          2   -1    0    0  501    0  0.00000000000E+00  0.00000000000E+00  0.19736679574E+04  0.19736679574E+04  0.25500000000E-02 0. -1.
         -2   -1    0    0    0  501 -0.00000000000E+00 -0.00000000000E+00 -0.28246995982E+04  0.28246995982E+04  0.25500000000E-02 0.  1.
    8880023    1    1    2    0    0  0.34264797986E+03 -0.96949408066E+03  0.16714904102E+04  0.20700282143E+04  0.65864270000E+03 0.  0.
    8880022    1    1    2    0    0 -0.34264797986E+03  0.96949408066E+03 -0.25225220509E+04  0.27283393413E+04  0.15294330000E+03 0.  0.
<mgrwt>
<rscale>  0 0.11729597E+04</rscale>
<asrwt>0</asrwt>
<pdfrwt beam="1">  1        2 0.30364123E+00 0.12211210E+04</pdfrwt>
<pdfrwt beam="2">  1       -2 0.43456917E+00 0.12211210E+04</pdfrwt>
<totfact> 0.29768340E-02</totfact>
</mgrwt>
</event>
<event>
 4    1  0.2665544E-007  0.1439012E+04  0.7818608E-02  0.8953948E-01
         -2   -1    0    0    0  501 -0.00000000000E+00  0.00000000000E+00  0.18548540707E+04  0.18548540707E+04  0.25500000000E-02 0.  1.
          2   -1    0    0  501    0  0.00000000000E+00 -0.00000000000E+00 -0.10877380640E+04  0.10877380640E+04  0.25500000000E-02 0. -1.
    8880023    1    1    2    0    0  0.10576647975E+04  0.71992305464E+03 -0.77109251289E+01  0.14390322071E+04  0.65864270000E+03 0.  0.
    8880022    1    1    2    0    0 -0.10576647975E+04 -0.71992305464E+03  0.77482693181E+03  0.15035599276E+04  0.15294330000E+03 0.  0.
<mgrwt>
<rscale>  0 0.13998216E+04</rscale>
<asrwt>0</asrwt>
<pdfrwt beam="1">  1        2 0.16734432E+00 0.14390115E+04</pdfrwt>
<pdfrwt beam="2">  1       -2 0.28536216E+00 0.14390115E+04</pdfrwt>
<totfact> 0.82397526E-01</totfact>
</mgrwt>
</event>
<event>
 4    1  0.2665544E-007  0.8393050E+03  0.7818608E-02  0.9631492E-01
         -2   -1    0    0    0  501 -0.00000000000E+00  0.00000000000E+00  0.73095751993E+03  0.73095751993E+03  0.25500000000E-02 0.  1.
          2   -1    0    0  501    0  0.00000000000E+00 -0.00000000000E+00 -0.19873915633E+04  0.19873915633E+04  0.25500000000E-02 0. -1.
    8880023    1    1    2    0    0 -0.23774332311E+03 -0.46271031239E+03 -0.17779039319E+04  0.19660557770E+04  0.65864270000E+03 0.  0.
    8880022    1    1    2    0    0  0.23774332311E+03  0.46271031239E+03  0.52146988857E+03  0.75229330621E+03  0.15294330000E+03 0.  0.
<mgrwt>
<rscale>  0 0.75246437E+03</rscale>
<asrwt>0</asrwt>
<pdfrwt beam="1">  1        2 0.30575255E+00 0.83930503E+03</pdfrwt>
<pdfrwt beam="2">  1       -2 0.11245500E+00 0.83930503E+03</pdfrwt>
<totfact> 0.43188916E+00</totfact>
</mgrwt>
</event>
<event>
 4    1  0.2665544E-007  0.8225480E+03  0.7818608E-02  0.9664009E-01
          2   -1    0    0  501    0  0.00000000000E+00  0.00000000000E+00  0.39848922719E+03  0.39848922720E+03  0.25500000000E-02 0. -1.
         -2   -1    0    0    0  501 -0.00000000000E+00 -0.00000000000E+00 -0.12642583354E+04  0.12642583354E+04  0.25500000000E-02 0.  1.
    8880023    1    1    2    0    0  0.44658972660E+03  0.20816505097E+03 -0.25059473613E+03  0.85987382818E+03  0.65864270000E+03 0. -1.
    8880022    1    1    2    0    0 -0.44658972660E+03 -0.20816505097E+03 -0.61517437205E+03  0.80287373440E+03  0.15294330000E+03 0.  0.
<mgrwt>
<rscale>  0 0.73200690E+03</rscale>
<asrwt>0</asrwt>
<pdfrwt beam="1">  1        2 0.61306035E-01 0.82254804E+03</pdfrwt>
<pdfrwt beam="2">  1       -2 0.19450128E+00 0.82254804E+03</pdfrwt>
<totfact> 0.11673884E+01</totfact>
</mgrwt>
</event>
<event>
 4    1  0.2841864E-007  0.1154621E+04  0.7818608E-02  0.9202548E-01
         -2   -1    0    0    0  501 -0.00000000000E+00  0.00000000000E+00  0.94426995479E+03  0.94426995479E+03  0.25500000000E-02 0.  1.
          2   -1    0    0  501    0  0.00000000000E+00 -0.00000000000E+00 -0.23275301557E+04  0.23275301557E+04  0.25500000000E-02 0. -1.
    8880023    1    1    2    0    0  0.47928412972E+03 -0.81830723210E+03 -0.18678442773E+04  0.21959035620E+04  0.65864270000E+03 0.  0.
    8880022    1    1    2    0    0 -0.47928412972E+03  0.81830723210E+03  0.48458407634E+03  0.10758965485E+04  0.15294330000E+03 0.  0.
<mgrwt>
<rscale>  0 0.11027170E+04</rscale>
<asrwt>0</asrwt>
<pdfrwt beam="1">  1        2 0.35808156E+00 0.11546212E+04</pdfrwt>
<pdfrwt beam="2">  1       -2 0.14527230E+00 0.11546212E+04</pdfrwt>
<totfact> 0.14000340E+00</totfact>
</mgrwt>
</event>
<event>
 4    1  0.2665544E-007  0.1840975E+04  0.7818608E-02  0.8700203E-01
          2   -1    0    0  501    0  0.00000000000E+00  0.00000000000E+00  0.34914116366E+04  0.34914116366E+04  0.25500000000E-02 0. -1.
         -2   -1    0    0    0  501 -0.00000000000E+00 -0.00000000000E+00 -0.10680658944E+04  0.10680658944E+04  0.25500000000E-02 0.  1.
    8880023    1    1    2    0    0  0.71486090566E+03 -0.15634426035E+04  0.37116252745E+03  0.18780177627E+04  0.65864270000E+03 0.  0.
    8880022    1    1    2    0    0 -0.71486090566E+03  0.15634426035E+04  0.20521832148E+04  0.26814597683E+04  0.15294330000E+03 0.  0.
<mgrwt>
<rscale>  0 0.18115093E+04</rscale>
<asrwt>0</asrwt>
<pdfrwt beam="1">  1        2 0.53714025E+00 0.18409750E+04</pdfrwt>
<pdfrwt beam="2">  1       -2 0.16431783E+00 0.18409750E+04</pdfrwt>
<totfact> 0.17648488E-01</totfact>
</mgrwt>
</event>
<event>
 4    1  0.2665544E-007  0.8504344E+03  0.7818608E-02  0.9610811E-01
          2   -1    0    0  501    0  0.00000000000E+00  0.00000000000E+00  0.25398745052E+04  0.25398745052E+04  0.25500000000E-02 0. -1.
         -2   -1    0    0    0  501 -0.00000000000E+00 -0.00000000000E+00 -0.82829585526E+03  0.82829585527E+03  0.25500000000E-02 0.  1.
    8880023    1    1    2    0    0 -0.88653611392E+02  0.53063068676E+03  0.23619459382E+04  0.25103838770E+04  0.65864270000E+03 0. -1.
    8880022    1    1    2    0    0  0.88653611392E+02 -0.53063068676E+03 -0.65036728828E+03  0.85778648347E+03  0.15294330000E+03 0.  0.
<mgrwt>
<rscale>  0 0.76584771E+03</rscale>
<asrwt>0</asrwt>
<pdfrwt beam="1">  1        2 0.39074992E+00 0.85043436E+03</pdfrwt>
<pdfrwt beam="2">  1       -2 0.12743013E+00 0.85043436E+03</pdfrwt>
<totfact> 0.15563057E+00</totfact>
</mgrwt>
</event>
<event>
 4    1  0.2665544E-007  0.8884162E+03  0.7818608E-02  0.9544889E-01
          2   -1    0    0  501    0  0.00000000000E+00  0.00000000000E+00  0.19931086459E+04  0.19931086459E+04  0.25500000000E-02 0. -1.
         -2   -1    0    0    0  501 -0.00000000000E+00 -0.00000000000E+00 -0.35711863037E+03  0.35711863038E+03  0.25500000000E-02 0.  1.
    8880023    1    1    2    0    0 -0.22446146519E+03 -0.55234967036E+03  0.14616923130E+04  0.17105051102E+04  0.65864270000E+03 0. -1.
    8880022    1    1    2    0    0  0.22446146519E+03  0.55234967036E+03  0.17429770251E+03  0.63972216611E+03  0.15294330000E+03 0.  0.
<mgrwt>
<rscale>  0 0.81053705E+03</rscale>
<asrwt>0</asrwt>
<pdfrwt beam="1">  1        2 0.30663210E+00 0.88841618E+03</pdfrwt>
<pdfrwt beam="2">  1       -2 0.54941328E-01 0.88841618E+03</pdfrwt>
<totfact> 0.21336405E+01</totfact>
</mgrwt>
</event>
<event>
 4    1  0.2665544E-007  0.8725471E+03  0.7818608E-02  0.9571623E-01
          2   -1    0    0  501    0  0.00000000000E+00  0.00000000000E+00  0.12659196275E+04  0.12659196275E+04  0.25500000000E-02 0. -1.
         -2   -1    0    0    0  501 -0.00000000000E+00 -0.00000000000E+00 -0.50842119320E+03  0.50842119320E+03  0.25500000000E-02 0.  1.
    8880023    1    1    2    0    0 -0.36832612775E+03 -0.43802294359E+03  0.79549089181E+03  0.11807388368E+04  0.65864270000E+03 0. -1.
    8880022    1    1    2    0    0  0.36832612775E+03  0.43802294359E+03 -0.37992457479E+02  0.59360198394E+03  0.15294330000E+03 0.  0.
<mgrwt>
<rscale>  0 0.79203187E+03</rscale>
<asrwt>0</asrwt>
<pdfrwt beam="1">  1        2 0.19475686E+00 0.87254710E+03</pdfrwt>
<pdfrwt beam="2">  1       -2 0.78218646E-01 0.87254710E+03</pdfrwt>
<totfact> 0.25350087E+01</totfact>
</mgrwt>
</event>
<event>
 4    1  0.2665544E-007  0.1083035E+04  0.7818608E-02  0.9280184E-01
          2   -1    0    0  501    0  0.00000000000E+00  0.00000000000E+00  0.73452396367E+03  0.73452396367E+03  0.25500000000E-02 0. -1.
         -2   -1    0    0    0  501 -0.00000000000E+00 -0.00000000000E+00 -0.18108988005E+04  0.18108988005E+04  0.25500000000E-02 0.  1.
    8880023    1    1    2    0    0 -0.83267824911E+03 -0.21401371543E+03  0.91821256698E+02  0.10869205520E+04  0.65864270000E+03 0. -1.
    8880022    1    1    2    0    0  0.83267824911E+03  0.21401371543E+03 -0.11681960935E+04  0.14585022122E+04  0.15294330000E+03 0.  0.
<mgrwt>
<rscale>  0 0.10262785E+04</rscale>
<asrwt>0</asrwt>
<pdfrwt beam="1">  1        2 0.11300369E+00 0.10830352E+04</pdfrwt>
<pdfrwt beam="2">  1       -2 0.27859981E+00 0.10830352E+04</pdfrwt>
<totfact> 0.16414587E+00</totfact>
</mgrwt>
</event>
<event>
 4    1  0.2665544E-007  0.1413196E+04  0.7818608E-02  0.8973496E-01
          2   -1    0    0  501    0  0.00000000000E+00  0.00000000000E+00  0.34077265960E+04  0.34077265960E+04  0.25500000000E-02 0. -1.
         -2   -1    0    0    0  501 -0.00000000000E+00 -0.00000000000E+00 -0.65033822659E+03  0.65033822659E+03  0.25500000000E-02 0.  1.
    8880023    1    1    2    0    0 -0.87461658633E+03  0.89350959412E+03  0.23352570087E+04  0.27295693930E+04  0.65864270000E+03 0.  0.
    8880022    1    1    2    0    0  0.87461658633E+03 -0.89350959412E+03  0.42213136069E+03  0.13284954296E+04  0.15294330000E+03 0.  0.
<mgrwt>
<rscale>  0 0.13731371E+04</rscale>
<asrwt>0</asrwt>
<pdfrwt beam="1">  1        2 0.52426563E+00 0.14131963E+04</pdfrwt>
<pdfrwt beam="2">  1       -2 0.10005203E+00 0.14131963E+04</pdfrwt>
<totfact> 0.75427216E-01</totfact>
</mgrwt>
</event>
<event>
 4    1  0.2665544E-007  0.1813643E+04  0.7818608E-02  0.8715027E-01
          2   -1    0    0  501    0  0.00000000000E+00  0.00000000000E+00  0.29899069465E+04  0.29899069465E+04  0.25500000000E-02 0. -1.
         -2   -1    0    0    0  501 -0.00000000000E+00 -0.00000000000E+00 -0.13924032022E+04  0.13924032022E+04  0.25500000000E-02 0.  1.
    8880023    1    1    2    0    0 -0.10205941245E+04 -0.13468026569E+04  0.19352854412E+04  0.26522876369E+04  0.65864270000E+03 0.  0.
    8880022    1    1    2    0    0  0.10205941245E+04  0.13468026569E+04 -0.33778169696E+03  0.17300225118E+04  0.15294330000E+03 0.  0.
<mgrwt>
<rscale>  0 0.17836793E+04</rscale>
<asrwt>0</asrwt>
<pdfrwt beam="1">  1        2 0.45998568E+00 0.18136427E+04</pdfrwt>
<pdfrwt beam="2">  1       -2 0.21421588E+00 0.18136427E+04</pdfrwt>
<totfact> 0.17266352E-01</totfact>
</mgrwt>
</event>
<event>
 4    1  0.2665544E-007  0.9560404E+03  0.7818608E-02  0.9441476E-01
          2   -1    0    0  501    0  0.00000000000E+00  0.00000000000E+00  0.46303130941E+04  0.46303130941E+04  0.25500000000E-02 0. -1.
         -2   -1    0    0    0  501 -0.00000000000E+00 -0.00000000000E+00 -0.30841109386E+03  0.30841109387E+03  0.25500000000E-02 0.  1.
    8880023    1    1    2    0    0 -0.69296441573E+03 -0.18380305895E+01  0.40776425429E+04  0.41882194276E+04  0.65864270000E+03 0. -1.
    8880022    1    1    2    0    0  0.69296441573E+03  0.18380305895E+01  0.24425945735E+03  0.75050476038E+03  0.15294330000E+03 0.  0.
<mgrwt>
<rscale>  0 0.88739573E+03</rscale>
<asrwt>0</asrwt>
<pdfrwt beam="1">  1        2 0.71235581E+00 0.95604041E+03</pdfrwt>
<pdfrwt beam="2">  1       -2 0.47447864E-01 0.95604041E+03</pdfrwt>
<totfact> 0.41854452E-01</totfact>
</mgrwt>
</event>
<event>
 4    1  0.2665544E-007  0.1063217E+04  0.7818608E-02  0.9303159E-01
         -2   -1    0    0    0  501 -0.00000000000E+00  0.00000000000E+00  0.58986801436E+03  0.58986801437E+03  0.25500000000E-02 0.  1.
          2   -1    0    0  501    0  0.00000000000E+00 -0.00000000000E+00 -0.33325395230E+04  0.33325395230E+04  0.25500000000E-02 0. -1.
    8880023    1    1    2    0    0  0.94078620641E+02 -0.82931841101E+03 -0.28734582819E+04  0.30638525614E+04  0.65864270000E+03 0.  0.
    8880022    1    1    2    0    0 -0.94078620641E+02  0.82931841101E+03  0.13078677328E+03  0.85855497598E+03  0.15294330000E+03 0.  0.
<mgrwt>
<rscale>  0 0.10049254E+04</rscale>
<asrwt>0</asrwt>
<pdfrwt beam="1">  1        2 0.51269838E+00 0.10632168E+04</pdfrwt>
<pdfrwt beam="2">  1       -2 0.90748928E-01 0.10632168E+04</pdfrwt>
<totfact> 0.11186474E+00</totfact>
</mgrwt>
</event>
<event>
 4    1  0.2665544E-007  0.6845588E+03  0.7818608E-02  0.1006854E+00
         -2   -1    0    0    0  501 -0.00000000000E+00  0.00000000000E+00  0.16608335549E+03  0.16608335551E+03  0.25500000000E-02 0.  1.
          2   -1    0    0  501    0  0.00000000000E+00 -0.00000000000E+00 -0.13817193471E+04  0.13817193471E+04  0.25500000000E-02 0. -1.
    8880023    1    1    2    0    0  0.50564016943E+02 -0.17959333258E+03 -0.10561523216E+04  0.12586017708E+04  0.65864270000E+03 0.  0.
    8880022    1    1    2    0    0 -0.50564016943E+02  0.17959333258E+03 -0.15948367001E+03  0.28920093176E+03  0.15294330000E+03 0.  0.
<mgrwt>
<rscale>  0 0.52744286E+03</rscale>
<asrwt>0</asrwt>
<pdfrwt beam="1">  1        2 0.21257220E+00 0.68455876E+03</pdfrwt>
<pdfrwt beam="2">  1       -2 0.25551286E-01 0.68455876E+03</pdfrwt>
<totfact> 0.20791835E+02</totfact>
</mgrwt>
</event>
<event>
 4    1  0.2665544E-007  0.8087469E+03  0.7818608E-02  0.9692193E-01
          2   -1    0    0  501    0  0.00000000000E+00  0.00000000000E+00  0.16771552440E+04  0.16771552440E+04  0.25500000000E-02 0. -1.
         -2   -1    0    0    0  501 -0.00000000000E+00 -0.00000000000E+00 -0.69101140454E+03  0.69101140454E+03  0.25500000000E-02 0.  1.
    8880023    1    1    2    0    0  0.38080730744E+03 -0.27431218558E+03  0.14694733221E+04  0.16773262745E+04  0.65864270000E+03 0.  0.
    8880022    1    1    2    0    0 -0.38080730744E+03  0.27431218558E+03 -0.48332948265E+03  0.69084037402E+03  0.15294330000E+03 0.  0.
<mgrwt>
<rscale>  0 0.71483525E+03</rscale>
<asrwt>0</asrwt>
<pdfrwt beam="1">  1        2 0.25802388E+00 0.80874692E+03</pdfrwt>
<pdfrwt beam="2">  1       -2 0.10630945E+00 0.80874692E+03</pdfrwt>
<totfact> 0.73486514E+00</totfact>
</mgrwt>
</event>
<event>
 4    1  0.2665544E-007  0.6873333E+03  0.7818608E-02  0.1005447E+00
          2   -1    0    0  501    0  0.00000000000E+00  0.00000000000E+00  0.22159862760E+04  0.22159862760E+04  0.25500000000E-02 0. -1.
         -2   -1    0    0    0  501 -0.00000000000E+00 -0.00000000000E+00 -0.19114989392E+03  0.19114989394E+03  0.25500000000E-02 0.  1.
    8880023    1    1    2    0    0  0.18774306816E+03  0.58046148177E+02  0.20448913273E+04  0.21573148962E+04  0.65864270000E+03 0. -1.
    8880022    1    1    2    0    0 -0.18774306816E+03 -0.58046148177E+02 -0.20054945175E+02  0.24982127372E+03  0.15294330000E+03 0.  0.
<mgrwt>
<rscale>  0 0.53325127E+03</rscale>
<asrwt>0</asrwt>
<pdfrwt beam="1">  1        2 0.34092096E+00 0.68733327E+03</pdfrwt>
<pdfrwt beam="2">  1       -2 0.29407676E-01 0.68733327E+03</pdfrwt>
<totfact> 0.56072451E+01</totfact>
</mgrwt>
</event>
<event>
 4    1  0.2665544E-007  0.2038748E+04  0.7818608E-02  0.8600834E-01
          2   -1    0    0  501    0  0.00000000000E+00  0.00000000000E+00  0.15936694237E+04  0.15936694237E+04  0.25500000000E-02 0. -1.
         -2   -1    0    0    0  501 -0.00000000000E+00 -0.00000000000E+00 -0.34336462039E+04  0.34336462039E+04  0.25500000000E-02 0.  1.
    8880023    1    1    2    0    0  0.65503506294E+03 -0.18148308530E+04  0.38875625004E+03  0.20754815313E+04  0.65864270000E+03 0.  0.
    8880022    1    1    2    0    0 -0.65503506294E+03  0.18148308530E+04 -0.22287330302E+04  0.29518340962E+04  0.15294330000E+03 0.  0.
<mgrwt>
<rscale>  0 0.20124248E+04</rscale>
<asrwt>0</asrwt>
<pdfrwt beam="1">  1        2 0.24517991E+00 0.20387477E+04</pdfrwt>
<pdfrwt beam="2">  1       -2 0.52825326E+00 0.20387477E+04</pdfrwt>
<totfact> 0.10998552E-02</totfact>
</mgrwt>
</event>
<event>
 4    1  0.2665544E-007  0.7738667E+03  0.7818608E-02  0.9770446E-01
         -2   -1    0    0    0  501 -0.00000000000E+00  0.00000000000E+00  0.81356975300E+03  0.81356975300E+03  0.25500000000E-02 0.  1.
          2   -1    0    0  501    0  0.00000000000E+00 -0.00000000000E+00 -0.11852027890E+04  0.11852027890E+04  0.25500000000E-02 0. -1.
    8880023    1    1    2    0    0  0.30291362834E+03  0.27074497118E+03 -0.98168531161E+03  0.12500303048E+04  0.65864270000E+03 0. -1.
    8880022    1    1    2    0    0 -0.30291362834E+03 -0.27074497118E+03  0.61005227565E+03  0.74874223715E+03  0.15294330000E+03 0.  0.
<mgrwt>
<rscale>  0 0.66972958E+03</rscale>
<asrwt>0</asrwt>
<pdfrwt beam="1">  1        2 0.18233889E+00 0.77386673E+03</pdfrwt>
<pdfrwt beam="2">  1       -2 0.12516458E+00 0.77386673E+03</pdfrwt>
<totfact> 0.93932352E+00</totfact>
</mgrwt>
</event>
<event>
 4    1  0.2665544E-007  0.1159886E+04  0.7818608E-02  0.9197138E-01
         -2   -1    0    0    0  501 -0.00000000000E+00  0.00000000000E+00  0.74327268040E+03  0.74327268040E+03  0.25500000000E-02 0.  1.
          2   -1    0    0  501    0  0.00000000000E+00 -0.00000000000E+00 -0.20405760641E+04  0.20405760641E+04  0.25500000000E-02 0. -1.
    8880023    1    1    2    0    0 -0.41670647622E+03 -0.85899938490E+03 -0.13924705659E+04  0.18122661818E+04  0.65864270000E+03 0.  0.
    8880022    1    1    2    0    0  0.41670647622E+03  0.85899938490E+03  0.95167182182E+02  0.97158256271E+03  0.15294330000E+03 0.  0.
<mgrwt>
<rscale>  0 0.11083015E+04</rscale>
<asrwt>0</asrwt>
<pdfrwt beam="1">  1        2 0.31393478E+00 0.11598855E+04</pdfrwt>
<pdfrwt beam="2">  1       -2 0.11434964E+00 0.11598855E+04</pdfrwt>
<totfact> 0.37216473E+00</totfact>
</mgrwt>
</event>
<event>
 4    1  0.2665544E-007  0.6802075E+03  0.7818608E-02  0.1009207E+00
          2   -1    0    0  501    0  0.00000000000E+00  0.00000000000E+00  0.16714198277E+04  0.16714198277E+04  0.25500000000E-02 0. -1.
         -2   -1    0    0    0  501 -0.00000000000E+00 -0.00000000000E+00 -0.24503194360E+03  0.24503194362E+03  0.25500000000E-02 0.  1.
    8880023    1    1    2    0    0 -0.16861867794E+03 -0.20969435276E+02  0.15232050488E+04  0.16681833840E+04  0.65864270000E+03 0. -1.
    8880022    1    1    2    0    0  0.16861867794E+03  0.20969435276E+02 -0.96817164656E+02  0.24826838734E+03  0.15294330000E+03 0.  0.
<mgrwt>
<rscale>  0 0.51791201E+03</rscale>
<asrwt>0</asrwt>
<pdfrwt beam="1">  1        2 0.25714152E+00 0.68020746E+03</pdfrwt>
<pdfrwt beam="2">  1       -2 0.37697221E-01 0.68020746E+03</pdfrwt>
<totfact> 0.69595930E+01</totfact>
</mgrwt>
</event>
<event>
 4    1  0.2665544E-007  0.1007041E+04  0.7818608E-02  0.9372404E-01
         -2   -1    0    0    0  501 -0.00000000000E+00  0.00000000000E+00  0.88093728962E+03  0.88093728963E+03  0.25500000000E-02 0.  1.
          2   -1    0    0  501    0  0.00000000000E+00 -0.00000000000E+00 -0.20099455578E+04  0.20099455578E+04  0.25500000000E-02 0. -1.
    8880023    1    1    2    0    0  0.75681974884E+03  0.86859329614E+02 -0.16657719259E+04  0.19465166300E+04  0.65864270000E+03 0.  0.
    8880022    1    1    2    0    0 -0.75681974884E+03 -0.86859329614E+02  0.53676365774E+03  0.94436621745E+03  0.15294330000E+03 0.  0.
<mgrwt>
<rscale>  0 0.94381964E+03</rscale>
<asrwt>0</asrwt>
<pdfrwt beam="1">  1        2 0.30922239E+00 0.10070407E+04</pdfrwt>
<pdfrwt beam="2">  1       -2 0.13552881E+00 0.10070407E+04</pdfrwt>
<totfact> 0.25698313E+00</totfact>
</mgrwt>
</event>
<event>
 4    1  0.2665544E-007  0.7580046E+03  0.7818608E-02  0.9810301E-01
         -2   -1    0    0    0  501 -0.00000000000E+00  0.00000000000E+00  0.74179200436E+03  0.74179200437E+03  0.25500000000E-02 0.  1.
          2   -1    0    0  501    0  0.00000000000E+00 -0.00000000000E+00 -0.81518896281E+03  0.81518896282E+03  0.25500000000E-02 0. -1.
    8880023    1    1    2    0    0 -0.29518000471E+03  0.23158050304E+03 -0.54622619184E+03  0.93430938317E+03  0.65864270000E+03 0. -1.
    8880022    1    1    2    0    0  0.29518000471E+03 -0.23158050304E+03  0.47282923339E+03  0.62267158401E+03  0.15294330000E+03 0.  0.
<mgrwt>
<rscale>  0 0.64812652E+03</rscale>
<asrwt>0</asrwt>
<pdfrwt beam="1">  1        2 0.12541369E+00 0.75800460E+03</pdfrwt>
<pdfrwt beam="2">  1       -2 0.11412185E+00 0.75800460E+03</pdfrwt>
<totfact> 0.20460893E+01</totfact>
</mgrwt>
</event>
<event>
 4    1  0.2665544E-007  0.6694139E+03  0.7818608E-02  0.1016087E+00
          2   -1    0    0  501    0  0.00000000000E+00  0.00000000000E+00  0.26200913724E+04  0.26200913724E+04  0.25500000000E-02 0. -1.
         -2   -1    0    0    0  501 -0.00000000000E+00 -0.00000000000E+00 -0.10625699787E+03  0.10625699790E+03  0.25500000000E-02 0.  1.
    8880023    1    1    2    0    0 -0.16632696453E+02 -0.11844062780E+03  0.24196728851E+04  0.25105640613E+04  0.65864270000E+03 0. -1.
    8880022    1    1    2    0    0  0.16632696453E+02  0.11844062780E+03  0.94161489500E+02  0.21578430903E+03  0.15294330000E+03 0.  0.
<mgrwt>
<rscale>  0 0.49125691E+03</rscale>
<asrwt>0</asrwt>
<pdfrwt beam="1">  1        2 0.40309097E+00 0.66941395E+03</pdfrwt>
<pdfrwt beam="2">  1       -2 0.16347231E-01 0.66941395E+03</pdfrwt>
<totfact> 0.94369465E+01</totfact>
</mgrwt>
</event>
<event>
 4    1  0.2665544E-007  0.1172639E+04  0.7818608E-02  0.9184189E-01
          2   -1    0    0  501    0  0.00000000000E+00  0.00000000000E+00  0.15039775331E+04  0.15039775331E+04  0.25500000000E-02 0. -1.
         -2   -1    0    0    0  501 -0.00000000000E+00 -0.00000000000E+00 -0.14217689688E+04  0.14217689688E+04  0.25500000000E-02 0.  1.
    8880023    1    1    2    0    0  0.41544556305E+03  0.87674265449E+03 -0.94390231036E+03  0.15053353367E+04  0.65864270000E+03 0.  1.
    8880022    1    1    2    0    0 -0.41544556305E+03 -0.87674265449E+03  0.10261108747E+04  0.14204111652E+04  0.15294330000E+03 0.  0.
<mgrwt>
<rscale>  0 0.11218127E+04</rscale>
<asrwt>0</asrwt>
<pdfrwt beam="1">  1        2 0.23138116E+00 0.11726393E+04</pdfrwt>
<pdfrwt beam="2">  1       -2 0.21873369E+00 0.11726393E+04</pdfrwt>
<totfact> 0.12376056E+00</totfact>
</mgrwt>
</event>
<event>
 4    1  0.2665544E-007  0.6603526E+03  0.7818608E-02  0.1023798E+00
         -2   -1    0    0    0  501 -0.00000000000E+00  0.00000000000E+00  0.69305014097E+03  0.69305014098E+03  0.25500000000E-02 0.  1.
          2   -1    0    0  501    0  0.00000000000E+00 -0.00000000000E+00 -0.17067568387E+04  0.17067568387E+04  0.25500000000E-02 0. -1.
    8880023    1    1    2    0    0  0.39877330027E+02 -0.25791098742E+02 -0.16323025821E+04  0.17608172274E+04  0.65864270000E+03 0. -1.
    8880022    1    1    2    0    0 -0.39877330027E+02  0.25791098742E+02  0.61859588446E+03  0.63898975227E+03  0.15294330000E+03 0.  0.
<mgrwt>
<rscale>  0 0.46340592E+03</rscale>
<asrwt>0</asrwt>
<pdfrwt beam="1">  1        2 0.26257797E+00 0.66035262E+03</pdfrwt>
<pdfrwt beam="2">  1       -2 0.10662310E+00 0.66035262E+03</pdfrwt>
<totfact> 0.71903630E+00</totfact>
</mgrwt>
</event>
<event>
 4    1  0.2665544E-007  0.6728107E+03  0.7818608E-02  0.1013723E+00
         -2   -1    0    0    0  501 -0.00000000000E+00  0.00000000000E+00  0.24670125857E+03  0.24670125858E+03  0.25500000000E-02 0.  1.
          2   -1    0    0  501    0  0.00000000000E+00 -0.00000000000E+00 -0.22819263305E+04  0.22819263305E+04  0.25500000000E-02 0. -1.
    8880023    1    1    2    0    0 -0.12834659104E+03 -0.48899299808E+02 -0.21772096885E+04  0.22787971000E+04  0.65864270000E+03 0.  0.
    8880022    1    1    2    0    0  0.12834659104E+03  0.48899299808E+02  0.14198461653E+03  0.24983048913E+03  0.15294330000E+03 0.  1.
<mgrwt>
<rscale>  0 0.50021331E+03</rscale>
<asrwt>0</asrwt>
<pdfrwt beam="1">  1        2 0.35106557E+00 0.67281067E+03</pdfrwt>
<pdfrwt beam="2">  1       -2 0.37954041E-01 0.67281067E+03</pdfrwt>
<totfact> 0.31932431E+01</totfact>
</mgrwt>
</event>
<event>
 4    1  0.2665544E-007  0.8557570E+03  0.7818608E-02  0.9601156E-01
          2   -1    0    0  501    0  0.00000000000E+00  0.00000000000E+00  0.33248521924E+04  0.33248521924E+04  0.25500000000E-02 0. -1.
         -2   -1    0    0    0  501 -0.00000000000E+00 -0.00000000000E+00 -0.40453053773E+03  0.40453053773E+03  0.25500000000E-02 0.  1.
    8880023    1    1    2    0    0 -0.53378592142E+03 -0.11654371923E+03  0.30325889984E+04  0.31510182621E+04  0.65864270000E+03 0.  0.
    8880022    1    1    2    0    0  0.53378592142E+03  0.11654371923E+03 -0.11226734376E+03  0.57836446803E+03  0.15294330000E+03 0.  0.
<mgrwt>
<rscale>  0 0.77219720E+03</rscale>
<asrwt>0</asrwt>
<pdfrwt beam="1">  1        2 0.51151571E+00 0.85575701E+03</pdfrwt>
<pdfrwt beam="2">  1       -2 0.62235469E-01 0.85575701E+03</pdfrwt>
<totfact> 0.27150069E+00</totfact>
</mgrwt>
</event>
<event>
 4    1  0.2665544E-007  0.7869614E+03  0.7818608E-02  0.9739732E-01
          2   -1    0    0  501    0  0.00000000000E+00  0.00000000000E+00  0.18776152980E+04  0.18776152981E+04  0.25500000000E-02 0. -1.
         -2   -1    0    0    0  501 -0.00000000000E+00 -0.00000000000E+00 -0.19229595057E+04  0.19229595057E+04  0.25500000000E-02 0.  1.
    8880023    1    1    2    0    0  0.14484305942E+03 -0.40560879730E+03  0.17654962085E+04  0.19329472514E+04  0.65864270000E+03 0. -1.
    8880022    1    1    2    0    0 -0.14484305942E+03  0.40560879730E+03 -0.18108404162E+04  0.18676275524E+04  0.15294330000E+03 0.  0.
<mgrwt>
<rscale>  0 0.68699675E+03</rscale>
<asrwt>0</asrwt>
<pdfrwt beam="1">  1        2 0.28886389E+00 0.78696138E+03</pdfrwt>
<pdfrwt beam="2">  1       -2 0.29583992E+00 0.78696138E+03</pdfrwt>
<totfact> 0.27729758E-01</totfact>
</mgrwt>
</event>
<event>
 4    1  0.2665544E-007  0.8377317E+03  0.7818608E-02  0.9634472E-01
         -2   -1    0    0    0  501 -0.00000000000E+00  0.00000000000E+00  0.25795666813E+03  0.25795666814E+03  0.25500000000E-02 0.  1.
          2   -1    0    0  501    0  0.00000000000E+00 -0.00000000000E+00 -0.24272831851E+04  0.24272831851E+04  0.25500000000E-02 0. -1.
    8880023    1    1    2    0    0  0.41669108878E+03  0.30716892178E+03 -0.19115413941E+04  0.20870517285E+04  0.65864270000E+03 0.  0.
    8880022    1    1    2    0    0 -0.41669108878E+03 -0.30716892178E+03 -0.25778512291E+03  0.59818812475E+03  0.15294330000E+03 0.  0.
<mgrwt>
<rscale>  0 0.75055999E+03</rscale>
<asrwt>0</asrwt>
<pdfrwt beam="1">  1        2 0.37342817E+00 0.83773171E+03</pdfrwt>
<pdfrwt beam="2">  1       -2 0.39685643E-01 0.83773171E+03</pdfrwt>
<totfact> 0.23732280E+01</totfact>
</mgrwt>
</event>
<event>
 4    1  0.2665544E-007  0.6631212E+03  0.7818608E-02  0.1021165E+00
         -2   -1    0    0    0  501 -0.00000000000E+00  0.00000000000E+00  0.76906074047E+03  0.76906074047E+03  0.25500000000E-02 0.  1.
          2   -1    0    0  501    0  0.00000000000E+00 -0.00000000000E+00 -0.14606900283E+04  0.14606900283E+04  0.25500000000E-02 0. -1.
    8880023    1    1    2    0    0 -0.14026738726E+02 -0.75648944003E+02 -0.13743106489E+04  0.15259290541E+04  0.65864270000E+03 0. -1.
    8880022    1    1    2    0    0  0.14026738726E+02  0.75648944003E+02  0.68268136114E+03  0.70382171463E+03  0.15294330000E+03 0.  0.
<mgrwt>
<rscale>  0 0.47268717E+03</rscale>
<asrwt>0</asrwt>
<pdfrwt beam="1">  1        2 0.22472154E+00 0.66312119E+03</pdfrwt>
<pdfrwt beam="2">  1       -2 0.11831704E+00 0.66312119E+03</pdfrwt>
<totfact> 0.76252622E+00</totfact>
</mgrwt>
</event>
<event>
 4    1  0.2665544E-007  0.8892116E+03  0.7818608E-02  0.9543577E-01
          2   -1    0    0  501    0  0.00000000000E+00  0.00000000000E+00  0.10375043633E+04  0.10375043633E+04  0.25500000000E-02 0. -1.
         -2   -1    0    0    0  501 -0.00000000000E+00 -0.00000000000E+00 -0.10112926546E+04  0.10112926546E+04  0.25500000000E-02 0.  1.
    8880023    1    1    2    0    0 -0.53052088961E+03 -0.27465385080E+03  0.70275066656E+03  0.11333824852E+04  0.65864270000E+03 0. -1.
    8880022    1    1    2    0    0  0.53052088961E+03  0.27465385080E+03 -0.67653895792E+03  0.91541453269E+03  0.15294330000E+03 0.  0.
<mgrwt>
<rscale>  0 0.81145908E+03</rscale>
<asrwt>0</asrwt>
<pdfrwt beam="1">  1        2 0.15961606E+00 0.88921165E+03</pdfrwt>
<pdfrwt beam="2">  1       -2 0.15558348E+00 0.88921165E+03</pdfrwt>
<totfact> 0.64944698E+00</totfact>
</mgrwt>
</event>
<event>
 4    1  0.2665544E-007  0.8106726E+03  0.7818608E-02  0.9688178E-01
         -2   -1    0    0    0  501 -0.00000000000E+00  0.00000000000E+00  0.36720398393E+03  0.36720398394E+03  0.25500000000E-02 0.  1.
          2   -1    0    0  501    0  0.00000000000E+00 -0.00000000000E+00 -0.24850670476E+04  0.24850670476E+04  0.25500000000E-02 0. -1.
    8880023    1    1    2    0    0 -0.35088591163E+03  0.31663694955E+03 -0.22037610026E+04  0.23481381228E+04  0.65864270000E+03 0.  0.
    8880022    1    1    2    0    0  0.35088591163E+03 -0.31663694955E+03  0.85897938897E+02  0.50413290879E+03  0.15294330000E+03 0.  0.
<mgrwt>
<rscale>  0 0.71725075E+03</rscale>
<asrwt>0</asrwt>
<pdfrwt beam="1">  1        2 0.38231800E+00 0.81067261E+03</pdfrwt>
<pdfrwt beam="2">  1       -2 0.56492922E-01 0.81067261E+03</pdfrwt>
<totfact> 0.10836141E+01</totfact>
</mgrwt>
</event>
<event>
 4    1  0.2665544E-007  0.6918471E+03  0.7818608E-02  0.1003287E+00
          2   -1    0    0  501    0  0.00000000000E+00  0.00000000000E+00  0.89603064075E+03  0.89603064075E+03  0.25500000000E-02 0. -1.
         -2   -1    0    0    0  501 -0.00000000000E+00 -0.00000000000E+00 -0.42136297043E+03  0.42136297044E+03  0.25500000000E-02 0.  1.
    8880023    1    1    2    0    0 -0.47115574091E+02 -0.20645181239E+03  0.69130254581E+03  0.97803458235E+03  0.65864270000E+03 0.  0.
    8880022    1    1    2    0    0  0.47115574091E+02  0.20645181239E+03 -0.21663487549E+03  0.33935902884E+03  0.15294330000E+03 0.  1.
<mgrwt>
<rscale>  0 0.54232249E+03</rscale>
<asrwt>0</asrwt>
<pdfrwt beam="1">  1        2 0.13785087E+00 0.69184712E+03</pdfrwt>
<pdfrwt beam="2">  1       -2 0.64825073E-01 0.69184712E+03</pdfrwt>
<totfact> 0.66002396E+01</totfact>
</mgrwt>
</event>
<event>
 4    1  0.2665544E-007  0.1308585E+04  0.7818608E-02  0.9058181E-01
         -2   -1    0    0    0  501 -0.00000000000E+00  0.00000000000E+00  0.74248732952E+03  0.74248732953E+03  0.25500000000E-02 0.  1.
          2   -1    0    0  501    0  0.00000000000E+00 -0.00000000000E+00 -0.25517456776E+04  0.25517456777E+04  0.25500000000E-02 0. -1.
    8880023    1    1    2    0    0  0.21819496672E+02  0.11305348718E+04 -0.17037944656E+04  0.21483274830E+04  0.65864270000E+03 0.  0.
    8880022    1    1    2    0    0 -0.21819496672E+02 -0.11305348718E+04 -0.10546388250E+03  0.11459055242E+04  0.15294330000E+03 0.  0.
<mgrwt>
<rscale>  0 0.12645236E+04</rscale>
<asrwt>0</asrwt>
<pdfrwt beam="1">  1        2 0.39257625E+00 0.13085853E+04</pdfrwt>
<pdfrwt beam="2">  1       -2 0.11422882E+00 0.13085853E+04</pdfrwt>
<totfact> 0.18881526E+00</totfact>
</mgrwt>
</event>
<event>
 4    1  0.2665544E-007  0.1011083E+04  0.7818608E-02  0.9367200E-01
         -2   -1    0    0    0  501 -0.00000000000E+00  0.00000000000E+00  0.20755549440E+04  0.20755549440E+04  0.25500000000E-02 0.  1.
          2   -1    0    0  501    0  0.00000000000E+00 -0.00000000000E+00 -0.73920078028E+03  0.73920078028E+03  0.25500000000E-02 0. -1.
    8880023    1    1    2    0    0  0.96309645054E+02  0.76105328617E+03 -0.25395023642E+03  0.10424867294E+04  0.65864270000E+03 0. -1.
    8880022    1    1    2    0    0 -0.96309645054E+02 -0.76105328617E+03  0.15903044002E+04  0.17722689949E+04  0.15294330000E+03 0.  0.
<mgrwt>
<rscale>  0 0.94824876E+03</rscale>
<asrwt>0</asrwt>
<pdfrwt beam="1">  1        2 0.11372320E+00 0.10110825E+04</pdfrwt>
<pdfrwt beam="2">  1       -2 0.31931614E+00 0.10110825E+04</pdfrwt>
<totfact> 0.92977720E-01</totfact>
</mgrwt>
</event>
<event>
 4    1  0.2665544E-007  0.6664226E+03  0.7818608E-02  0.1018369E+00
          2   -1    0    0  501    0  0.00000000000E+00  0.00000000000E+00  0.91162147782E+03  0.91162147782E+03  0.25500000000E-02 0. -1.
         -2   -1    0    0    0  501 -0.00000000000E+00 -0.00000000000E+00 -0.19572107715E+04  0.19572107715E+04  0.25500000000E-02 0.  1.
    8880023    1    1    2    0    0  0.86664651190E+02  0.52897092144E+02  0.78461932875E+03  0.10294399261E+04  0.65864270000E+03 0. -1.
    8880022    1    1    2    0    0 -0.86664651190E+02 -0.52897092144E+02 -0.18302086225E+04  0.18393923233E+04  0.15294330000E+03 0.  0.
<mgrwt>
<rscale>  0 0.48279955E+03</rscale>
<asrwt>0</asrwt>
<pdfrwt beam="1">  1        2 0.14024946E+00 0.66642259E+03</pdfrwt>
<pdfrwt beam="2">  1       -2 0.30110935E+00 0.66642259E+03</pdfrwt>
<totfact> 0.95810026E-01</totfact>
</mgrwt>
</event>
<event>
 4    1  0.2665544E-007  0.8245407E+03  0.7818608E-02  0.9660049E-01
         -2   -1    0    0    0  501 -0.00000000000E+00  0.00000000000E+00  0.17305046993E+04  0.17305046993E+04  0.25500000000E-02 0.  1.
          2   -1    0    0  501    0  0.00000000000E+00 -0.00000000000E+00 -0.43490127787E+03  0.43490127787E+03  0.25500000000E-02 0. -1.
    8880023    1    1    2    0    0 -0.40962493564E+03 -0.27975801330E+03  0.61798555500E+02  0.82685331325E+03  0.65864270000E+03 0. -1.
    8880022    1    1    2    0    0  0.40962493564E+03  0.27975801330E+03  0.12338048660E+04  0.13385526640E+04  0.15294330000E+03 0.  0.
<mgrwt>
<rscale>  0 0.73446076E+03</rscale>
<asrwt>0</asrwt>
<pdfrwt beam="1">  1        2 0.66907890E-01 0.82454068E+03</pdfrwt>
<pdfrwt beam="2">  1       -2 0.26623149E+00 0.82454068E+03</pdfrwt>
<totfact> 0.37794050E+00</totfact>
</mgrwt>
</event>
<event>
 4    1  0.2665544E-007  0.7145448E+03  0.7818608E-02  0.9941496E-01
         -2   -1    0    0    0  501 -0.00000000000E+00  0.00000000000E+00  0.54276277044E+03  0.54276277045E+03  0.25500000000E-02 0.  1.
          2   -1    0    0  501    0  0.00000000000E+00 -0.00000000000E+00 -0.20145720843E+04  0.20145720843E+04  0.25500000000E-02 0. -1.
    8880023    1    1    2    0    0  0.35582510869E+02 -0.27476883360E+03 -0.18971049671E+04  0.20272102726E+04  0.65864270000E+03 0. -1.
    8880022    1    1    2    0    0 -0.35582510869E+02  0.27476883360E+03  0.42529565318E+03  0.53012458218E+03  0.15294330000E+03 0.  0.
<mgrwt>
<rscale>  0 0.58291675E+03</rscale>
<asrwt>0</asrwt>
<pdfrwt beam="1">  1        2 0.30993416E+00 0.71454477E+03</pdfrwt>
<pdfrwt beam="2">  1       -2 0.83501966E-01 0.71454477E+03</pdfrwt>
<totfact> 0.85709938E+00</totfact>
</mgrwt>
</event>
<event>
 4    1  0.2665544E-007  0.8354665E+03  0.7818608E-02  0.9638789E-01
         -2   -1    0    0    0  501 -0.00000000000E+00  0.00000000000E+00  0.33837693835E+03  0.33837693836E+03  0.25500000000E-02 0.  1.
          2   -1    0    0  501    0  0.00000000000E+00 -0.00000000000E+00 -0.33613390809E+04  0.33613390809E+04  0.25500000000E-02 0. -1.
    8880023    1    1    2    0    0 -0.51229314863E+03  0.41830659705E+02 -0.30504011587E+04  0.31627443004E+04  0.65864270000E+03 0. -1.
    8880022    1    1    2    0    0  0.51229314863E+03 -0.41830659705E+02  0.27439016204E+02  0.53697171885E+03  0.15294330000E+03 0.  0.
<mgrwt>
<rscale>  0 0.74781246E+03</rscale>
<asrwt>0</asrwt>
<pdfrwt beam="1">  1        2 0.51712906E+00 0.83546650E+03</pdfrwt>
<pdfrwt beam="2">  1       -2 0.52057993E-01 0.83546650E+03</pdfrwt>
<totfact> 0.37472774E+00</totfact>
</mgrwt>
</event>
<event>
 4    1  0.2665544E-007  0.6698092E+03  0.7818608E-02  0.1015800E+00
          2   -1    0    0  501    0  0.00000000000E+00  0.00000000000E+00  0.25810490838E+04  0.25810490838E+04  0.25500000000E-02 0. -1.
         -2   -1    0    0    0  501 -0.00000000000E+00 -0.00000000000E+00 -0.96731340679E+03  0.96731340679E+03  0.25500000000E-02 0.  1.
    8880023    1    1    2    0    0 -0.13540955945E+02 -0.12104033605E+03  0.25270725536E+04  0.26143335705E+04  0.65864270000E+03 0. -1.
    8880022    1    1    2    0    0  0.13540955945E+02  0.12104033605E+03 -0.91333687658E+03  0.93402892010E+03  0.15294330000E+03 0.  0.
<mgrwt>
<rscale>  0 0.49233176E+03</rscale>
<asrwt>0</asrwt>
<pdfrwt beam="1">  1        2 0.39708448E+00 0.66980917E+03</pdfrwt>
<pdfrwt beam="2">  1       -2 0.14881745E+00 0.66980917E+03</pdfrwt>
<totfact> 0.10264730E+00</totfact>
</mgrwt>
</event>
<event>
 4    1  0.2665544E-007  0.1263786E+04  0.7818608E-02  0.9097482E-01
         -2   -1    0    0    0  501 -0.00000000000E+00  0.00000000000E+00  0.10638618235E+04  0.10638618235E+04  0.25500000000E-02 0.  1.
          2   -1    0    0  501    0  0.00000000000E+00 -0.00000000000E+00 -0.21065655059E+04  0.21065655059E+04  0.25500000000E-02 0. -1.
    8880023    1    1    2    0    0  0.41977043672E+03  0.99354743110E+03 -0.15236918535E+04  0.19795935916E+04  0.65864270000E+03 0. -1.
    8880022    1    1    2    0    0 -0.41977043672E+03 -0.99354743110E+03  0.48098817101E+03  0.11908337378E+04  0.15294330000E+03 0.  0.
<mgrwt>
<rscale>  0 0.12177251E+04</rscale>
<asrwt>0</asrwt>
<pdfrwt beam="1">  1        2 0.32408700E+00 0.12637856E+04</pdfrwt>
<pdfrwt beam="2">  1       -2 0.16367105E+00 0.12637856E+04</pdfrwt>
<totfact> 0.13321971E+00</totfact>
</mgrwt>
</event>
<event>
 4    1  0.2665544E-007  0.1440285E+04  0.7818608E-02  0.8952996E-01
         -2   -1    0    0    0  501 -0.00000000000E+00  0.00000000000E+00  0.11011993212E+04  0.11011993213E+04  0.25500000000E-02 0.  1.
          2   -1    0    0  501    0  0.00000000000E+00 -0.00000000000E+00 -0.21373668974E+04  0.21373668974E+04  0.25500000000E-02 0. -1.
    8880023    1    1    2    0    0  0.11968705936E+04  0.45619361949E+03 -0.12786960343E+04  0.19260024898E+04  0.65864270000E+03 0. -1.
    8880022    1    1    2    0    0 -0.11968705936E+04 -0.45619361949E+03  0.24252845814E+03  0.13125637289E+04  0.15294330000E+03 0.  0.
<mgrwt>
<rscale>  0 0.14011373E+04</rscale>
<asrwt>0</asrwt>
<pdfrwt beam="1">  1        2 0.32882568E+00 0.14402854E+04</pdfrwt>
<pdfrwt beam="2">  1       -2 0.16941528E+00 0.14402854E+04</pdfrwt>
<totfact> 0.11417302E+00</totfact>
</mgrwt>
</event>
<event>
 4    1  0.2665544E-007  0.6911719E+03  0.7818608E-02  0.1003600E+00
         -2   -1    0    0    0  501 -0.00000000000E+00  0.00000000000E+00  0.74347417683E+03  0.74347417683E+03  0.25500000000E-02 0.  1.
          2   -1    0    0  501    0  0.00000000000E+00 -0.00000000000E+00 -0.96464155809E+03  0.96464155810E+03  0.25500000000E-02 0. -1.
    8880023    1    1    2    0    0  0.20737235988E+02  0.20851469380E+03 -0.80991624257E+03  0.10647454798E+04  0.65864270000E+03 0. -1.
    8880022    1    1    2    0    0 -0.20737235988E+02 -0.20851469380E+03  0.58874886131E+03  0.64337025514E+03  0.15294330000E+03 0.  0.
<mgrwt>
<rscale>  0 0.54099281E+03</rscale>
<asrwt>0</asrwt>
<pdfrwt beam="1">  1        2 0.14840639E+00 0.69117192E+03</pdfrwt>
<pdfrwt beam="2">  1       -2 0.11438064E+00 0.69117192E+03</pdfrwt>
<totfact> 0.16232605E+01</totfact>
</mgrwt>
</event>
<event>
 4    1  0.2665544E-007  0.7604804E+03  0.7818608E-02  0.9803865E-01
          2   -1    0    0  501    0  0.00000000000E+00  0.00000000000E+00  0.32079111452E+04  0.32079111452E+04  0.25500000000E-02 0. -1.
         -2   -1    0    0    0  501 -0.00000000000E+00 -0.00000000000E+00 -0.16916246300E+03  0.16916246302E+03  0.25500000000E-02 0.  1.
    8880023    1    1    2    0    0 -0.18837995929E+03 -0.33020172938E+03  0.28029912735E+04  0.29043227225E+04  0.65864270000E+03 0. -1.
    8880022    1    1    2    0    0  0.18837995929E+03  0.33020172938E+03  0.23575740872E+03  0.47275088569E+03  0.15294330000E+03 0.  0.
<mgrwt>
<rscale>  0 0.65155514E+03</rscale>
<asrwt>0</asrwt>
<pdfrwt beam="1">  1        2 0.49352476E+00 0.76048037E+03</pdfrwt>
<pdfrwt beam="2">  1       -2 0.26024996E-01 0.76048037E+03</pdfrwt>
<totfact> 0.18175549E+01</totfact>
</mgrwt>
</event>
<event>
 4    1  0.2665544E-007  0.8855854E+03  0.7818608E-02  0.9549579E-01
         -2   -1    0    0    0  501 -0.00000000000E+00  0.00000000000E+00  0.51617391728E+03  0.51617391729E+03  0.25500000000E-02 0.  1.
          2   -1    0    0  501    0  0.00000000000E+00 -0.00000000000E+00 -0.16149829710E+04  0.16149829710E+04  0.25500000000E-02 0. -1.
    8880023    1    1    2    0    0 -0.14884633373E+03 -0.57297127688E+03 -0.12202988710E+04  0.15077767925E+04  0.65864270000E+03 0.  0.
    8880022    1    1    2    0    0  0.14884633373E+03  0.57297127688E+03  0.12148981722E+03  0.62338009584E+03  0.15294330000E+03 0.  0.
<mgrwt>
<rscale>  0 0.80725174E+03</rscale>
<asrwt>0</asrwt>
<pdfrwt beam="1">  1        2 0.24845892E+00 0.88558541E+03</pdfrwt>
<pdfrwt beam="2">  1       -2 0.79411373E-01 0.88558541E+03</pdfrwt>
<totfact> 0.15525505E+01</totfact>
</mgrwt>
</event>
<event>
 4    1  0.2665544E-007  0.7013388E+03  0.7818608E-02  0.9991692E-01
          2   -1    0    0  501    0  0.00000000000E+00  0.00000000000E+00  0.17232174539E+04  0.17232174539E+04  0.25500000000E-02 0. -1.
         -2   -1    0    0    0  501 -0.00000000000E+00 -0.00000000000E+00 -0.22588710308E+03  0.22588710309E+03  0.25500000000E-02 0.  1.
    8880023    1    1    2    0    0 -0.12444986743E+03 -0.20634477975E+03  0.15084083742E+04  0.16634818806E+04  0.65864270000E+03 0.  1.
    8880022    1    1    2    0    0  0.12444986743E+03  0.20634477975E+03 -0.11078023364E+02  0.28562267636E+03  0.15294330000E+03 0.  0.
<mgrwt>
<rscale>  0 0.56016034E+03</rscale>
<asrwt>0</asrwt>
<pdfrwt beam="1">  1        2 0.26511039E+00 0.70133882E+03</pdfrwt>
<pdfrwt beam="2">  1       -2 0.34751860E-01 0.70133882E+03</pdfrwt>
<totfact> 0.76008462E+01</totfact>
</mgrwt>
</event>
<event>
 4    1  0.2665544E-007  0.1261569E+04  0.7818608E-02  0.9099479E-01
         -2   -1    0    0    0  501 -0.00000000000E+00  0.00000000000E+00  0.28579416133E+04  0.28579416133E+04  0.25500000000E-02 0.  1.
          2   -1    0    0  501    0  0.00000000000E+00 -0.00000000000E+00 -0.88675752527E+03  0.88675752527E+03  0.25500000000E-02 0. -1.
    8880023    1    1    2    0    0 -0.38689185266E+03  0.10040225348E+04 -0.23692642078E+03  0.12836241238E+04  0.65864270000E+03 0. -1.
    8880022    1    1    2    0    0  0.38689185266E+03 -0.10040225348E+04  0.22081105088E+04  0.24610750148E+04  0.15294330000E+03 0.  0.
<mgrwt>
<rscale>  0 0.12154046E+04</rscale>
<asrwt>0</asrwt>
<pdfrwt beam="1">  1        2 0.13642424E+00 0.12615692E+04</pdfrwt>
<pdfrwt beam="2">  1       -2 0.43968332E+00 0.12615692E+04</pdfrwt>
<totfact> 0.11900803E-01</totfact>
</mgrwt>
</event>
<event>
 4    1  0.2665544E-007  0.6588920E+03  0.7818608E-02  0.1025321E+00
          2   -1    0    0  501    0  0.00000000000E+00  0.00000000000E+00  0.90412890492E+03  0.90412890492E+03  0.25500000000E-02 0. -1.
         -2   -1    0    0    0  501 -0.00000000000E+00 -0.00000000000E+00 -0.47805689002E+03  0.47805689003E+03  0.25500000000E-02 0.  1.
    8880023    1    1    2    0    0  0.11726668237E+02  0.13818766146E+02  0.76516215324E+03  0.10097582879E+04  0.65864270000E+03 0. -1.
    8880022    1    1    2    0    0 -0.11726668237E+02 -0.13818766146E+02 -0.33909013834E+03  0.37242750701E+03  0.15294330000E+03 0.  0.
<mgrwt>
<rscale>  0 0.45814221E+03</rscale>
<asrwt>0</asrwt>
<pdfrwt beam="1">  1        2 0.13909675E+00 0.65889201E+03</pdfrwt>
<pdfrwt beam="2">  1       -2 0.73547215E-01 0.65889201E+03</pdfrwt>
<totfact> 0.49689141E+01</totfact>
</mgrwt>
</event>
<event>
 4    1  0.2665544E-007  0.1781083E+04  0.7818608E-02  0.8733074E-01
         -2   -1    0    0    0  501 -0.00000000000E+00  0.00000000000E+00  0.37300542807E+04  0.37300542807E+04  0.25500000000E-02 0.  1.
          2   -1    0    0  501    0  0.00000000000E+00 -0.00000000000E+00 -0.12680969624E+04  0.12680969624E+04  0.25500000000E-02 0. -1.
    8880023    1    1    2    0    0 -0.45261604727E+03  0.15917237202E+04 -0.26900119258E+03  0.18012821921E+04  0.65864270000E+03 0.  0.
    8880022    1    1    2    0    0  0.45261604727E+03 -0.15917237202E+04  0.27309585110E+04  0.31968690510E+04  0.15294330000E+03 0.  0.
<mgrwt>
<rscale>  0 0.17505029E+04</rscale>
<asrwt>0</asrwt>
<pdfrwt beam="1">  1        2 0.19509184E+00 0.17810828E+04</pdfrwt>
<pdfrwt beam="2">  1       -2 0.57385451E+00 0.17810828E+04</pdfrwt>
<totfact> 0.10063230E-02</totfact>
</mgrwt>
</event>
<event>
 4    1  0.2665544E-007  0.7089550E+03  0.7818608E-02  0.9961902E-01
         -2   -1    0    0    0  501 -0.00000000000E+00  0.00000000000E+00  0.38199078246E+03  0.38199078246E+03  0.25500000000E-02 0.  1.
          2   -1    0    0  501    0  0.00000000000E+00 -0.00000000000E+00 -0.17506834828E+04  0.17506834828E+04  0.25500000000E-02 0. -1.
    8880023    1    1    2    0    0  0.22863486086E+03 -0.12858088179E+03 -0.16006127916E+04  0.17505937443E+04  0.65864270000E+03 0.  0.
    8880022    1    1    2    0    0 -0.22863486086E+03  0.12858088179E+03  0.23192009124E+03  0.38208052096E+03  0.15294330000E+03 0.  0.
<mgrwt>
<rscale>  0 0.57352787E+03</rscale>
<asrwt>0</asrwt>
<pdfrwt beam="1">  1        2 0.26933592E+00 0.70895497E+03</pdfrwt>
<pdfrwt beam="2">  1       -2 0.58767814E-01 0.70895497E+03</pdfrwt>
<totfact> 0.25706428E+01</totfact>
</mgrwt>
</event>
<event>
 4    1  0.2665544E-007  0.7730329E+03  0.7818608E-02  0.9772465E-01
         -2   -1    0    0    0  501 -0.00000000000E+00  0.00000000000E+00  0.15322717727E+04  0.15322717727E+04  0.25500000000E-02 0.  1.
          2   -1    0    0  501    0  0.00000000000E+00 -0.00000000000E+00 -0.67158434491E+03  0.67158434491E+03  0.25500000000E-02 0. -1.
    8880023    1    1    2    0    0  0.37064791022E+03 -0.16244934084E+03 -0.40043653366E+03  0.87059134239E+03  0.65864270000E+03 0. -1.
    8880022    1    1    2    0    0 -0.37064791022E+03  0.16244934084E+03  0.12611239614E+04  0.13332647752E+04  0.15294330000E+03 0.  0.
<mgrwt>
<rscale>  0 0.66861404E+03</rscale>
<asrwt>0</asrwt>
<pdfrwt beam="1">  1        2 0.10332067E+00 0.77303290E+03</pdfrwt>
<pdfrwt beam="2">  1       -2 0.23573412E+00 0.77303290E+03</pdfrwt>
<totfact> 0.34808983E+00</totfact>
</mgrwt>
</event>
<event>
 4    1  0.2665544E-007  0.7566685E+03  0.7818608E-02  0.9813810E-01
          2   -1    0    0  501    0  0.00000000000E+00  0.00000000000E+00  0.11639350502E+04  0.11639350502E+04  0.25500000000E-02 0. -1.
         -2   -1    0    0    0  501 -0.00000000000E+00 -0.00000000000E+00 -0.60098581903E+03  0.60098581904E+03  0.25500000000E-02 0.  1.
    8880023    1    1    2    0    0 -0.14281202911E+02  0.37220034804E+03  0.94449117495E+03  0.12102110715E+04  0.65864270000E+03 0. -1.
    8880022    1    1    2    0    0  0.14281202911E+02 -0.37220034804E+03 -0.38154194376E+03  0.55470979773E+03  0.15294330000E+03 0.  0.
<mgrwt>
<rscale>  0 0.64626664E+03</rscale>
<asrwt>0</asrwt>
<pdfrwt beam="1">  1        2 0.17906693E+00 0.75666853E+03</pdfrwt>
<pdfrwt beam="2">  1       -2 0.92459357E-01 0.75666853E+03</pdfrwt>
<totfact> 0.20121173E+01</totfact>
</mgrwt>
</event>
<event>
 4    1  0.2665544E-007  0.8622924E+03  0.7818608E-02  0.9589499E-01
          2   -1    0    0  501    0  0.00000000000E+00  0.00000000000E+00  0.14572393967E+04  0.14572393967E+04  0.25500000000E-02 0. -1.
         -2   -1    0    0    0  501 -0.00000000000E+00 -0.00000000000E+00 -0.74803088553E+03  0.74803088554E+03  0.25500000000E-02 0.  1.
    8880023    1    1    2    0    0 -0.42184904096E+03  0.36301710994E+03  0.11792704995E+04  0.14608994328E+04  0.65864270000E+03 0.  0.
    8880022    1    1    2    0    0  0.42184904096E+03 -0.36301710994E+03 -0.47006198840E+03  0.74437084939E+03  0.15294330000E+03 0.  0.
<mgrwt>
<rscale>  0 0.77995150E+03</rscale>
<asrwt>0</asrwt>
<pdfrwt beam="1">  1        2 0.22419068E+00 0.86229243E+03</pdfrwt>
<pdfrwt beam="2">  1       -2 0.11508167E+00 0.86229243E+03</pdfrwt>
<totfact> 0.79747990E+00</totfact>
</mgrwt>
</event>
<event>
 4    1  0.2665544E-007  0.7031233E+03  0.7818608E-02  0.9984483E-01
         -2   -1    0    0    0  501 -0.00000000000E+00  0.00000000000E+00  0.23569252741E+03  0.23569252742E+03  0.25500000000E-02 0.  1.
          2   -1    0    0  501    0  0.00000000000E+00 -0.00000000000E+00 -0.17514717096E+04  0.17514717096E+04  0.25500000000E-02 0. -1.
    8880023    1    1    2    0    0 -0.23060795286E+03 -0.85977322910E+02 -0.15434706766E+04  0.16960790264E+04  0.65864270000E+03 0. -1.
    8880022    1    1    2    0    0  0.23060795286E+03  0.85977322910E+02  0.27691494398E+02  0.29108521064E+03  0.15294330000E+03 0.  0.
<mgrwt>
<rscale>  0 0.56335883E+03</rscale>
<asrwt>0</asrwt>
<pdfrwt beam="1">  1        2 0.26945718E+00 0.70312327E+03</pdfrwt>
<pdfrwt beam="2">  1       -2 0.36260390E-01 0.70312327E+03</pdfrwt>
<totfact> 0.67635718E+01</totfact>
</mgrwt>
</event>
<event>
 4    1  0.2665544E-007  0.1236321E+04  0.7818608E-02  0.9122600E-01
          2   -1    0    0  501    0  0.00000000000E+00  0.00000000000E+00  0.72749091707E+03  0.72749091708E+03  0.25500000000E-02 0. -1.
         -2   -1    0    0    0  501 -0.00000000000E+00 -0.00000000000E+00 -0.18243869199E+04  0.18243869199E+04  0.25500000000E-02 0.  1.
    8880023    1    1    2    0    0 -0.21868808632E+03  0.10231591208E+04 -0.47014597909E+03  0.13226966824E+04  0.65864270000E+03 0.  0.
    8880022    1    1    2    0    0  0.21868808632E+03 -0.10231591208E+04 -0.62675002377E+03  0.12291811546E+04  0.15294330000E+03 0.  0.
<mgrwt>
<rscale>  0 0.11889321E+04</rscale>
<asrwt>0</asrwt>
<pdfrwt beam="1">  1        2 0.11192168E+00 0.12363209E+04</pdfrwt>
<pdfrwt beam="2">  1       -2 0.28067491E+00 0.12363209E+04</pdfrwt>
<totfact> 0.15888288E+00</totfact>
</mgrwt>
</event>
<event>
 4    1  0.2665544E-007  0.1589133E+04  0.7818608E-02  0.8849132E-01
          2   -1    0    0  501    0  0.00000000000E+00  0.00000000000E+00  0.12713309442E+04  0.12713309442E+04  0.25500000000E-02 0. -1.
         -2   -1    0    0    0  501 -0.00000000000E+00 -0.00000000000E+00 -0.19169376615E+04  0.19169376615E+04  0.25500000000E-02 0.  1.
    8880023    1    1    2    0    0  0.12087045464E+04  0.79408295685E+03  0.19177168414E+02  0.15892490028E+04  0.65864270000E+03 0.  0.
    8880022    1    1    2    0    0 -0.12087045464E+04 -0.79408295685E+03 -0.66478388570E+03  0.15990196029E+04  0.15294330000E+03 0.  0.
<mgrwt>
<rscale>  0 0.15542903E+04</rscale>
<asrwt>0</asrwt>
<pdfrwt beam="1">  1        2 0.19558938E+00 0.15891333E+04</pdfrwt>
<pdfrwt beam="2">  1       -2 0.29491349E+00 0.15891333E+04</pdfrwt>
<totfact> 0.54878129E-01</totfact>
</mgrwt>
</event>
<event>
 4    1  0.2665544E-007  0.1149540E+04  0.7818608E-02  0.9207806E-01
         -2   -1    0    0    0  501 -0.00000000000E+00  0.00000000000E+00  0.52790345750E+03  0.52790345750E+03  0.25500000000E-02 0.  1.
          2   -1    0    0  501    0  0.00000000000E+00 -0.00000000000E+00 -0.35949573538E+04  0.35949573538E+04  0.25500000000E-02 0. -1.
    8880023    1    1    2    0    0  0.94205579914E+03  0.12746861855E+02 -0.29440183320E+04  0.31604882149E+04  0.65864270000E+03 0.  0.
    8880022    1    1    2    0    0 -0.94205579914E+03 -0.12746861855E+02 -0.12303556429E+03  0.96237259638E+03  0.15294330000E+03 0.  0.
<mgrwt>
<rscale>  0 0.10973223E+04</rscale>
<asrwt>0</asrwt>
<pdfrwt beam="1">  1        2 0.55307035E+00 0.11495398E+04</pdfrwt>
<pdfrwt beam="2">  1       -2 0.81215919E-01 0.11495398E+04</pdfrwt>
<totfact> 0.94234086E-01</totfact>
</mgrwt>
</event>
<event>
 4    1  0.2665544E-007  0.7338093E+03  0.7818608E-02  0.9878361E-01
         -2   -1    0    0    0  501 -0.00000000000E+00  0.00000000000E+00  0.51104167130E+03  0.51104167131E+03  0.25500000000E-02 0.  1.
          2   -1    0    0  501    0  0.00000000000E+00 -0.00000000000E+00 -0.21866561069E+04  0.21866561069E+04  0.25500000000E-02 0. -1.
    8880023    1    1    2    0    0  0.84931676103E+02  0.31217379694E+03 -0.20514521191E+04  0.21787454813E+04  0.65864270000E+03 0. -1.
    8880022    1    1    2    0    0 -0.84931676103E+02 -0.31217379694E+03  0.37583768350E+03  0.51895229690E+03  0.15294330000E+03 0.  1.
<mgrwt>
<rscale>  0 0.61321538E+03</rscale>
<asrwt>0</asrwt>
<pdfrwt beam="1">  1        2 0.33640863E+00 0.73380929E+03</pdfrwt>
<pdfrwt beam="2">  1       -2 0.78621797E-01 0.73380929E+03</pdfrwt>
<totfact> 0.78774467E+00</totfact>
</mgrwt>
</event>
<event>
 4    1  0.2665544E-007  0.7762203E+03  0.7818608E-02  0.9764792E-01
          2   -1    0    0  501    0  0.00000000000E+00  0.00000000000E+00  0.18460555419E+04  0.18460555419E+04  0.25500000000E-02 0. -1.
         -2   -1    0    0    0  501 -0.00000000000E+00 -0.00000000000E+00 -0.21475737553E+03  0.21475737555E+03  0.25500000000E-02 0.  1.
    8880023    1    1    2    0    0 -0.18623828926E+03 -0.36609167503E+03  0.12890923491E+04  0.15047515096E+04  0.65864270000E+03 0. -1.
    8880022    1    1    2    0    0  0.18623828926E+03  0.36609167503E+03  0.34220581728E+03  0.55606140786E+03  0.15294330000E+03 0.  0.
<mgrwt>
<rscale>  0 0.67286747E+03</rscale>
<asrwt>0</asrwt>
<pdfrwt beam="1">  1        2 0.28400853E+00 0.77622034E+03</pdfrwt>
<pdfrwt beam="2">  1       -2 0.33039598E-01 0.77622034E+03</pdfrwt>
<totfact> 0.71111233E+01</totfact>
</mgrwt>
</event>
<event>
 4    1  0.2665544E-007  0.8810686E+03  0.7818608E-02  0.9557133E-01
          2   -1    0    0  501    0  0.00000000000E+00  0.00000000000E+00  0.14452244011E+04  0.14452244011E+04  0.25500000000E-02 0. -1.
         -2   -1    0    0    0  501 -0.00000000000E+00 -0.00000000000E+00 -0.71285868284E+03  0.71285868285E+03  0.25500000000E-02 0.  1.
    8880023    1    1    2    0    0 -0.19991056678E+03  0.55000677237E+03  0.11309922182E+04  0.14336754474E+04  0.65864270000E+03 0. -1.
    8880022    1    1    2    0    0  0.19991056678E+03 -0.55000677237E+03 -0.39862650002E+03  0.72440763656E+03  0.15294330000E+03 0.  0.
<mgrwt>
<rscale>  0 0.80199592E+03</rscale>
<asrwt>0</asrwt>
<pdfrwt beam="1">  1        2 0.22234221E+00 0.88106861E+03</pdfrwt>
<pdfrwt beam="2">  1       -2 0.10967057E+00 0.88106861E+03</pdfrwt>
<totfact> 0.90886366E+00</totfact>
</mgrwt>
</event>
<event>
 4    1  0.2665544E-007  0.7166874E+03  0.7818608E-02  0.9933958E-01
          2   -1    0    0  501    0  0.00000000000E+00  0.00000000000E+00  0.10008114302E+04  0.10008114302E+04  0.25500000000E-02 0. -1.
         -2   -1    0    0    0  501 -0.00000000000E+00 -0.00000000000E+00 -0.54273883095E+03  0.54273883096E+03  0.25500000000E-02 0.  1.
    8880023    1    1    2    0    0 -0.24779081673E+03  0.13575831280E+03  0.80019430704E+03  0.10742214593E+04  0.65864270000E+03 0.  0.
    8880022    1    1    2    0    0  0.24779081673E+03 -0.13575831280E+03 -0.34212170776E+03  0.46932880189E+03  0.15294330000E+03 0.  0.
<mgrwt>
<rscale>  0 0.58643380E+03</rscale>
<asrwt>0</asrwt>
<pdfrwt beam="1">  1        2 0.15397099E+00 0.71668739E+03</pdfrwt>
<pdfrwt beam="2">  1       -2 0.83498282E-01 0.71668739E+03</pdfrwt>
<totfact> 0.32179542E+01</totfact>
</mgrwt>
</event>
<event>
 4    1  0.2665544E-007  0.7574073E+03  0.7818608E-02  0.9811866E-01
          2   -1    0    0  501    0  0.00000000000E+00  0.00000000000E+00  0.43095112774E+03  0.43095112775E+03  0.25500000000E-02 0. -1.
         -2   -1    0    0    0  501 -0.00000000000E+00 -0.00000000000E+00 -0.10966647251E+04  0.10966647251E+04  0.25500000000E-02 0.  1.
    8880023    1    1    2    0    0  0.20694098242E+03  0.31149807800E+03 -0.80017354980E+03  0.11017910595E+04  0.65864270000E+03 0.  1.
    8880022    1    1    2    0    0 -0.20694098242E+03 -0.31149807800E+03  0.13445995242E+03  0.42582479334E+03  0.15294330000E+03 0.  0.
<mgrwt>
<rscale>  0 0.64729591E+03</rscale>
<asrwt>0</asrwt>
<pdfrwt beam="1">  1        2 0.66300174E-01 0.75740731E+03</pdfrwt>
<pdfrwt beam="2">  1       -2 0.16871765E+00 0.75740731E+03</pdfrwt>
<totfact> 0.16129779E+01</totfact>
</mgrwt>
</event>
<event>
 4    1  0.2665544E-007  0.7965999E+03  0.7818608E-02  0.9718197E-01
         -2   -1    0    0    0  501 -0.00000000000E+00  0.00000000000E+00  0.16262313317E+04  0.16262313317E+04  0.25500000000E-02 0.  1.
          2   -1    0    0  501    0  0.00000000000E+00 -0.00000000000E+00 -0.66319626278E+03  0.66319626279E+03  0.25500000000E-02 0. -1.
    8880023    1    1    2    0    0  0.42244038085E+03 -0.14934953327E+03 -0.36741480475E+03  0.87724854145E+03  0.65864270000E+03 0. -1.
    8880022    1    1    2    0    0 -0.42244038085E+03  0.14934953327E+03  0.13304498737E+04  0.14121790530E+04  0.15294330000E+03 0.  0.
<mgrwt>
<rscale>  0 0.69943635E+03</rscale>
<asrwt>0</asrwt>
<pdfrwt beam="1">  1        2 0.10203019E+00 0.79659988E+03</pdfrwt>
<pdfrwt beam="2">  1       -2 0.25018944E+00 0.79659988E+03</pdfrwt>
<totfact> 0.28771064E+00</totfact>
</mgrwt>
</event>
<event>
 4    1  0.2665544E-007  0.1177516E+04  0.7818608E-02  0.9179294E-01
          2   -1    0    0  501    0  0.00000000000E+00  0.00000000000E+00  0.40079858692E+04  0.40079858692E+04  0.25500000000E-02 0. -1.
         -2   -1    0    0    0  501 -0.00000000000E+00 -0.00000000000E+00 -0.34463859352E+03  0.34463859353E+03  0.25500000000E-02 0.  1.
    8880023    1    1    2    0    0  0.86646228822E+02 -0.97222800752E+03  0.28114198958E+04  0.30480529694E+04  0.65864270000E+03 0. -1.
    8880022    1    1    2    0    0 -0.86646228822E+02  0.97222800752E+03  0.85192737989E+03  0.13045714933E+04  0.15294330000E+03 0. -1.
<mgrwt>
<rscale>  0 0.11269730E+04</rscale>
<asrwt>0</asrwt>
<pdfrwt beam="1">  1        2 0.61661315E+00 0.11775165E+04</pdfrwt>
<pdfrwt beam="2">  1       -2 0.53021328E-01 0.11775165E+04</pdfrwt>
<totfact> 0.11582790E+00</totfact>
</mgrwt>
</event>
<event>
 4    1  0.2665544E-007  0.7144552E+03  0.7818608E-02  0.9941815E-01
         -2   -1    0    0    0  501 -0.00000000000E+00  0.00000000000E+00  0.23187626282E+03  0.23187626283E+03  0.25500000000E-02 0.  1.
          2   -1    0    0  501    0  0.00000000000E+00 -0.00000000000E+00 -0.14849879097E+04  0.14849879097E+04  0.25500000000E-02 0. -1.
    8880023    1    1    2    0    0 -0.23227646765E+03 -0.15061091498E+03 -0.11993941905E+04  0.13960632634E+04  0.65864270000E+03 0. -1.
    8880022    1    1    2    0    0  0.23227646765E+03  0.15061091498E+03 -0.53717456411E+02  0.32080090909E+03  0.15294330000E+03 0.  0.
<mgrwt>
<rscale>  0 0.58276875E+03</rscale>
<asrwt>0</asrwt>
<pdfrwt beam="1">  1        2 0.22845967E+00 0.71445519E+03</pdfrwt>
<pdfrwt beam="2">  1       -2 0.35673272E-01 0.71445519E+03</pdfrwt>
<totfact> 0.97664539E+01</totfact>
</mgrwt>
</event>
<event>
 4    1  0.2665544E-007  0.7729810E+03  0.7818608E-02  0.9772591E-01
         -2   -1    0    0    0  501 -0.00000000000E+00  0.00000000000E+00  0.23302628732E+03  0.23302628734E+03  0.25500000000E-02 0.  1.
          2   -1    0    0  501    0  0.00000000000E+00 -0.00000000000E+00 -0.26029003064E+04  0.26029003064E+04  0.25500000000E-02 0. -1.
    8880023    1    1    2    0    0 -0.70273501109E+02  0.39843573108E+03 -0.22616040280E+04  0.23900527991E+04  0.65864270000E+03 0. -1.
    8880022    1    1    2    0    0  0.70273501109E+02 -0.39843573108E+03 -0.10826999108E+03  0.44587379464E+03  0.15294330000E+03 0.  0.
<mgrwt>
<rscale>  0 0.66854452E+03</rscale>
<asrwt>0</asrwt>
<pdfrwt beam="1">  1        2 0.40044618E+00 0.77298098E+03</pdfrwt>
<pdfrwt beam="2">  1       -2 0.35850200E-01 0.77298098E+03</pdfrwt>
<totfact> 0.23149535E+01</totfact>
</mgrwt>
</event>
<event>
 4    1  0.2665544E-007  0.1975562E+04  0.7818608E-02  0.8631174E-01
          2   -1    0    0  501    0  0.00000000000E+00  0.00000000000E+00  0.15458581147E+04  0.15458581147E+04  0.25500000000E-02 0. -1.
         -2   -1    0    0    0  501 -0.00000000000E+00 -0.00000000000E+00 -0.28527951142E+04  0.28527951142E+04  0.25500000000E-02 0.  1.
    8880023    1    1    2    0    0  0.15824078402E+04  0.98235515597E+03 -0.15540971799E+04  0.25135760335E+04  0.65864270000E+03 0.  0.
    8880022    1    1    2    0    0 -0.15824078402E+04 -0.98235515597E+03  0.24716018045E+03  0.18850771955E+04  0.15294330000E+03 0.  0.
<mgrwt>
<rscale>  0 0.19483141E+04</rscale>
<asrwt>0</asrwt>
<pdfrwt beam="1">  1        2 0.23782432E+00 0.19755623E+04</pdfrwt>
<pdfrwt beam="2">  1       -2 0.43889156E+00 0.19755623E+04</pdfrwt>
<totfact> 0.43883894E-02</totfact>
</mgrwt>
</event>
<event>
 4    1  0.2665544E-007  0.9366236E+03  0.7818608E-02  0.9469627E-01
         -2   -1    0    0    0  501 -0.00000000000E+00  0.00000000000E+00  0.48712685311E+03  0.48712685312E+03  0.25500000000E-02 0.  1.
          2   -1    0    0  501    0  0.00000000000E+00 -0.00000000000E+00 -0.18371817676E+04  0.18371817676E+04  0.25500000000E-02 0. -1.
    8880023    1    1    2    0    0 -0.65758677691E+03  0.10503936890E+03 -0.13475008383E+04  0.16410430688E+04  0.65864270000E+03 0. -1.
    8880022    1    1    2    0    0  0.65758677691E+03 -0.10503936890E+03 -0.25540762365E+01  0.68326555197E+03  0.15294330000E+03 0.  0.
<mgrwt>
<rscale>  0 0.86560640E+03</rscale>
<asrwt>0</asrwt>
<pdfrwt beam="1">  1        2 0.28264334E+00 0.93662364E+03</pdfrwt>
<pdfrwt beam="2">  1       -2 0.74942594E-01 0.93662364E+03</pdfrwt>
<totfact> 0.13259430E+01</totfact>
</mgrwt>
</event>
<event>
 4    1  0.2665544E-007  0.9598055E+03  0.7818608E-02  0.9436144E-01
          2   -1    0    0  501    0  0.00000000000E+00  0.00000000000E+00  0.57493548830E+03  0.57493548830E+03  0.25500000000E-02 0. -1.
         -2   -1    0    0    0  501 -0.00000000000E+00 -0.00000000000E+00 -0.17860085763E+04  0.17860085763E+04  0.25500000000E-02 0.  1.
    8880023    1    1    2    0    0 -0.44005595366E+03 -0.54200286022E+03 -0.59466504969E+01  0.95982389622E+03  0.65864270000E+03 0.  0.
    8880022    1    1    2    0    0  0.44005595366E+03  0.54200286022E+03 -0.12051264375E+04  0.14011201684E+04  0.15294330000E+03 0.  0.
<mgrwt>
<rscale>  0 0.89159911E+03</rscale>
<asrwt>0</asrwt>
<pdfrwt beam="1">  1        2 0.88451614E-01 0.95980547E+03</pdfrwt>
<pdfrwt beam="2">  1       -2 0.27477055E+00 0.95980547E+03</pdfrwt>
<totfact> 0.23835722E+00</totfact>
</mgrwt>
</event>
<event>
 4    1  0.2665544E-007  0.9003417E+03  0.7818608E-02  0.9525483E-01
          2   -1    0    0  501    0  0.00000000000E+00  0.00000000000E+00  0.34303040655E+04  0.34303040655E+04  0.25500000000E-02 0. -1.
         -2   -1    0    0    0  501 -0.00000000000E+00 -0.00000000000E+00 -0.26870335045E+03  0.26870335046E+03  0.25500000000E-02 0.  1.
    8880023    1    1    2    0    0 -0.32172577455E+03 -0.52277854726E+03  0.28596386939E+04  0.29980241075E+04  0.65864270000E+03 0. -1.
    8880022    1    1    2    0    0  0.32172577455E+03  0.52277854726E+03  0.30196202120E+03  0.70098330847E+03  0.15294330000E+03 0.  0.
<mgrwt>
<rscale>  0 0.82430830E+03</rscale>
<asrwt>0</asrwt>
<pdfrwt beam="1">  1        2 0.52773904E+00 0.90034165E+03</pdfrwt>
<pdfrwt beam="2">  1       -2 0.41338981E-01 0.90034165E+03</pdfrwt>
<totfact> 0.52967872E+00</totfact>
</mgrwt>
</event>
<event>
 4    1  0.2665544E-007  0.7823874E+03  0.7818608E-02  0.9750259E-01
         -2   -1    0    0    0  501 -0.00000000000E+00  0.00000000000E+00  0.94644049549E+03  0.94644049549E+03  0.25500000000E-02 0.  1.
          2   -1    0    0  501    0  0.00000000000E+00 -0.00000000000E+00 -0.16183142162E+04  0.16183142162E+04  0.25500000000E-02 0. -1.
    8880023    1    1    2    0    0 -0.29016989112E+03  0.30679190931E+03 -0.14606973104E+04  0.16570355096E+04  0.65864270000E+03 0. -1.
    8880022    1    1    2    0    0  0.29016989112E+03 -0.30679190931E+03  0.78882358963E+03  0.90771920212E+03  0.15294330000E+03 0.  0.
<mgrwt>
<rscale>  0 0.68101663E+03</rscale>
<asrwt>0</asrwt>
<pdfrwt beam="1">  1        2 0.24897142E+00 0.78238740E+03</pdfrwt>
<pdfrwt beam="2">  1       -2 0.14560623E+00 0.78238740E+03</pdfrwt>
<totfact> 0.36129608E+00</totfact>
</mgrwt>
</event>
<event>
 4    1  0.2665544E-007  0.1093924E+04  0.7818608E-02  0.9267851E-01
          2   -1    0    0  501    0  0.00000000000E+00  0.00000000000E+00  0.22085223143E+04  0.22085223143E+04  0.25500000000E-02 0. -1.
         -2   -1    0    0    0  501 -0.00000000000E+00 -0.00000000000E+00 -0.60509972959E+03  0.60509972959E+03  0.25500000000E-02 0.  1.
    8880023    1    1    2    0    0 -0.81332235140E+03 -0.31838152344E+03  0.14044318892E+03  0.11029027778E+04  0.65864270000E+03 0.  0.
    8880022    1    1    2    0    0  0.81332235140E+03  0.31838152344E+03  0.14629793958E+04  0.17107192661E+04  0.15294330000E+03 0.  0.
<mgrwt>
<rscale>  0 0.10379720E+04</rscale>
<asrwt>0</asrwt>
<pdfrwt beam="1">  1        2 0.33977267E+00 0.10939242E+04</pdfrwt>
<pdfrwt beam="2">  1       -2 0.93092265E-01 0.10939242E+04</pdfrwt>
<totfact> 0.49547226E+00</totfact>
</mgrwt>
</event>
<event>
 4    1  0.2665544E-007  0.1190454E+04  0.7818608E-02  0.9166458E-01
         -2   -1    0    0    0  501 -0.00000000000E+00  0.00000000000E+00  0.13970789133E+04  0.13970789133E+04  0.25500000000E-02 0.  1.
          2   -1    0    0  501    0  0.00000000000E+00 -0.00000000000E+00 -0.18691183035E+04  0.18691183035E+04  0.25500000000E-02 0. -1.
    8880023    1    1    2    0    0  0.92317667076E+03  0.36209872210E+03 -0.14424997685E+04  0.18702904690E+04  0.65864270000E+03 0.  0.
    8880022    1    1    2    0    0 -0.92317667076E+03 -0.36209872210E+03  0.97046037822E+03  0.13959067478E+04  0.15294330000E+03 0.  0.
<mgrwt>
<rscale>  0 0.11406446E+04</rscale>
<asrwt>0</asrwt>
<pdfrwt beam="1">  1        2 0.28755666E+00 0.11904541E+04</pdfrwt>
<pdfrwt beam="2">  1       -2 0.21493522E+00 0.11904541E+04</pdfrwt>
<totfact> 0.81737943E-01</totfact>
</mgrwt>
</event>
<event>
 4    1  0.2665544E-007  0.6611632E+03  0.7818608E-02  0.1022995E+00
          2   -1    0    0  501    0  0.00000000000E+00  0.00000000000E+00  0.17812903765E+04  0.17812903765E+04  0.25500000000E-02 0. -1.
         -2   -1    0    0    0  501 -0.00000000000E+00 -0.00000000000E+00 -0.14290827465E+03  0.14290827467E+03  0.25500000000E-02 0.  1.
    8880023    1    1    2    0    0 -0.57612294361E+02  0.27189417955E+01  0.16317475650E+04  0.17606069667E+04  0.65864270000E+03 0. -1.
    8880022    1    1    2    0    0  0.57612294361E+02 -0.27189417955E+01  0.66345367775E+01  0.16359168438E+03  0.15294330000E+03 0.  0.
<mgrwt>
<rscale>  0 0.46621093E+03</rscale>
<asrwt>0</asrwt>
<pdfrwt beam="1">  1        2 0.27404465E+00 0.66116320E+03</pdfrwt>
<pdfrwt beam="2">  1       -2 0.21985890E-01 0.66116320E+03</pdfrwt>
<totfact> 0.16410783E+02</totfact>
</mgrwt>
</event>
<event>
 4    1  0.2665544E-007  0.1525195E+04  0.7818608E-02  0.8892046E-01
         -2   -1    0    0    0  501 -0.00000000000E+00  0.00000000000E+00  0.26981757948E+04  0.26981757948E+04  0.25500000000E-02 0.  1.
          2   -1    0    0  501    0  0.00000000000E+00 -0.00000000000E+00 -0.91441252703E+03  0.91441252703E+03  0.25500000000E-02 0. -1.
    8880023    1    1    2    0    0  0.13597053358E+04  0.20883571204E+03  0.24816066909E+03  0.15452523673E+04  0.65864270000E+03 0.  0.
    8880022    1    1    2    0    0 -0.13597053358E+04 -0.20883571204E+03  0.15356025987E+04  0.20673359545E+04  0.15294330000E+03 0.  0.
<mgrwt>
<rscale>  0 0.14886341E+04</rscale>
<asrwt>0</asrwt>
<pdfrwt beam="1">  1        2 0.14067885E+00 0.15251955E+04</pdfrwt>
<pdfrwt beam="2">  1       -2 0.41510397E+00 0.15251955E+04</pdfrwt>
<totfact> 0.16065335E-01</totfact>
</mgrwt>
</event>
<event>
 4    1  0.2665544E-007  0.7643493E+03  0.7818608E-02  0.9793975E-01
          2   -1    0    0  501    0  0.00000000000E+00  0.00000000000E+00  0.13252538545E+04  0.13252538545E+04  0.25500000000E-02 0. -1.
         -2   -1    0    0    0  501 -0.00000000000E+00 -0.00000000000E+00 -0.35352051479E+03  0.35352051480E+03  0.25500000000E-02 0.  1.
    8880023    1    1    2    0    0 -0.16380743416E+03 -0.35154899360E+03  0.10025976785E+04  0.12607267275E+04  0.65864270000E+03 0. -1.
    8880022    1    1    2    0    0  0.16380743416E+03  0.35154899360E+03 -0.30864338740E+02  0.41804764179E+03  0.15294330000E+03 0.  0.
<mgrwt>
<rscale>  0 0.65686876E+03</rscale>
<asrwt>0</asrwt>
<pdfrwt beam="1">  1        2 0.20388521E+00 0.76434925E+03</pdfrwt>
<pdfrwt beam="2">  1       -2 0.54387771E-01 0.76434925E+03</pdfrwt>
<totfact> 0.51757815E+01</totfact>
</mgrwt>
</event>
<event>
 4    1  0.2665544E-007  0.7204012E+03  0.7818608E-02  0.9921231E-01
         -2   -1    0    0    0  501 -0.00000000000E+00  0.00000000000E+00  0.58948522200E+03  0.58948522200E+03  0.25500000000E-02 0.  1.
          2   -1    0    0  501    0  0.00000000000E+00 -0.00000000000E+00 -0.26968456334E+04  0.26968456334E+04  0.25500000000E-02 0. -1.
    8880023    1    1    2    0    0  0.25384634224E+03  0.14397808569E+03 -0.25976071997E+04  0.26956522448E+04  0.65864270000E+03 0. -1.
    8880022    1    1    2    0    0 -0.25384634224E+03 -0.14397808569E+03  0.49024678828E+03  0.59067861064E+03  0.15294330000E+03 0.  0.
<mgrwt>
<rscale>  0 0.59243294E+03</rscale>
<asrwt>0</asrwt>
<pdfrwt beam="1">  1        2 0.41489932E+00 0.72040118E+03</pdfrwt>
<pdfrwt beam="2">  1       -2 0.90690036E-01 0.72040118E+03</pdfrwt>
<totfact> 0.29431718E+00</totfact>
</mgrwt>
</event>
<event>
 4    1  0.2665544E-007  0.9623257E+03  0.7818608E-02  0.9432598E-01
         -2   -1    0    0    0  501 -0.00000000000E+00  0.00000000000E+00  0.41114963765E+03  0.41114963766E+03  0.25500000000E-02 0.  1.
          2   -1    0    0  501    0  0.00000000000E+00 -0.00000000000E+00 -0.32043118836E+04  0.32043118836E+04  0.25500000000E-02 0. -1.
    8880023    1    1    2    0    0 -0.53119685635E+03  0.45835617529E+03 -0.27299469708E+04  0.28945951622E+04  0.65864270000E+03 0. -1.
    8880022    1    1    2    0    0  0.53119685635E+03 -0.45835617529E+03 -0.63215275201E+02  0.72086635908E+03  0.15294330000E+03 0.  0.
<mgrwt>
<rscale>  0 0.89440899E+03</rscale>
<asrwt>0</asrwt>
<pdfrwt beam="1">  1        2 0.49297104E+00 0.96232567E+03</pdfrwt>
<pdfrwt beam="2">  1       -2 0.63253792E-01 0.96232567E+03</pdfrwt>
<totfact> 0.30832916E+00</totfact>
</mgrwt>
</event>
<event>
 4    1  0.2665544E-007  0.1353144E+04  0.7818608E-02  0.9020974E-01
         -2   -1    0    0    0  501 -0.00000000000E+00  0.00000000000E+00  0.24336829010E+04  0.24336829010E+04  0.25500000000E-02 0.  1.
          2   -1    0    0  501    0  0.00000000000E+00 -0.00000000000E+00 -0.72424883488E+03  0.72424883488E+03  0.25500000000E-02 0. -1.
    8880023    1    1    2    0    0  0.63945144009E+03  0.99412765610E+03  0.45508105700E+03  0.14276193175E+04  0.65864270000E+03 0.  0.
    8880022    1    1    2    0    0 -0.63945144009E+03 -0.99412765610E+03  0.12543530091E+04  0.17303124184E+04  0.15294330000E+03 0.  0.
<mgrwt>
<rscale>  0 0.13108897E+04</rscale>
<asrwt>0</asrwt>
<pdfrwt beam="1">  1        2 0.11142290E+00 0.13531438E+04</pdfrwt>
<pdfrwt beam="2">  1       -2 0.37441275E+00 0.13531438E+04</pdfrwt>
<totfact> 0.41426058E-01</totfact>
</mgrwt>
</event>
<event>
 4    1  0.2665544E-007  0.8332738E+03  0.7818608E-02  0.9642996E-01
          2   -1    0    0  501    0  0.00000000000E+00  0.00000000000E+00  0.20745205253E+04  0.20745205253E+04  0.25500000000E-02 0. -1.
         -2   -1    0    0    0  501 -0.00000000000E+00 -0.00000000000E+00 -0.35679943461E+03  0.35679943462E+03  0.25500000000E-02 0.  1.
    8880023    1    1    2    0    0  0.28974274915E+03 -0.42021926959E+03  0.17056771717E+04  0.18983360913E+04  0.65864270000E+03 0. -1.
    8880022    1    1    2    0    0 -0.28974274915E+03  0.42021926959E+03  0.12043919008E+02  0.53298386863E+03  0.15294330000E+03 0.  0.
<mgrwt>
<rscale>  0 0.74514639E+03</rscale>
<asrwt>0</asrwt>
<pdfrwt beam="1">  1        2 0.31915700E+00 0.83327385E+03</pdfrwt>
<pdfrwt beam="2">  1       -2 0.54892222E-01 0.83327385E+03</pdfrwt>
<totfact> 0.19414558E+01</totfact>
</mgrwt>
</event>
<event>
 4    1  0.2665544E-007  0.7335198E+03  0.7818608E-02  0.9879242E-01
          2   -1    0    0  501    0  0.00000000000E+00  0.00000000000E+00  0.99997673499E+03  0.99997673499E+03  0.25500000000E-02 0. -1.
         -2   -1    0    0    0  501 -0.00000000000E+00 -0.00000000000E+00 -0.86129833724E+03  0.86129833725E+03  0.25500000000E-02 0.  1.
    8880023    1    1    2    0    0 -0.30183977379E+03 -0.11460286260E+03  0.81494471928E+03  0.10964425051E+04  0.65864270000E+03 0. -1.
    8880022    1    1    2    0    0  0.30183977379E+03  0.11460286260E+03 -0.67626632154E+03  0.76483256718E+03  0.15294330000E+03 0.  0.
<mgrwt>
<rscale>  0 0.61277936E+03</rscale>
<asrwt>0</asrwt>
<pdfrwt beam="1">  1        2 0.15384257E+00 0.73351978E+03</pdfrwt>
<pdfrwt beam="2">  1       -2 0.13250744E+00 0.73351978E+03</pdfrwt>
<totfact> 0.10623941E+01</totfact>
</mgrwt>
</event>
<event>
 4    1  0.2665544E-007  0.1314134E+04  0.7818608E-02  0.9053450E-01
          2   -1    0    0  501    0  0.00000000000E+00  0.00000000000E+00  0.10383449565E+04  0.10383449565E+04  0.25500000000E-02 0. -1.
         -2   -1    0    0    0  501 -0.00000000000E+00 -0.00000000000E+00 -0.31248584804E+04  0.31248584804E+04  0.25500000000E-02 0.  1.
    8880023    1    1    2    0    0 -0.71445831924E+03  0.88469586277E+03  0.44204592892E+03  0.13864891882E+04  0.65864270000E+03 0.  0.
    8880022    1    1    2    0    0  0.71445831924E+03 -0.88469586277E+03 -0.25285594528E+04  0.27767142487E+04  0.15294330000E+03 0.  0.
<mgrwt>
<rscale>  0 0.12703064E+04</rscale>
<asrwt>0</asrwt>
<pdfrwt beam="1">  1        2 0.15974538E+00 0.13141338E+04</pdfrwt>
<pdfrwt beam="2">  1       -2 0.48074745E+00 0.13141338E+04</pdfrwt>
<totfact> 0.50201227E-02</totfact>
</mgrwt>
</event>
<event>
 4    1  0.2665544E-007  0.1064806E+04  0.7818608E-02  0.9301291E-01
          2   -1    0    0  501    0  0.00000000000E+00  0.00000000000E+00  0.17886898107E+04  0.17886898107E+04  0.25500000000E-02 0. -1.
         -2   -1    0    0    0  501 -0.00000000000E+00 -0.00000000000E+00 -0.64050084332E+03  0.64050084333E+03  0.25500000000E-02 0.  1.
    8880023    1    1    2    0    0  0.95500589441E+02  0.83119245733E+03  0.11652607622E+04  0.15784942553E+04  0.65864270000E+03 0.  1.
    8880022    1    1    2    0    0 -0.95500589441E+02 -0.83119245733E+03 -0.17071794821E+02  0.85069639878E+03  0.15294330000E+03 0.  0.
<mgrwt>
<rscale>  0 0.10066410E+04</rscale>
<asrwt>0</asrwt>
<pdfrwt beam="1">  1        2 0.27518304E+00 0.10648058E+04</pdfrwt>
<pdfrwt beam="2">  1       -2 0.98538594E-01 0.10648058E+04</pdfrwt>
<totfact> 0.74211620E+00</totfact>
</mgrwt>
</event>
<event>
 4    1  0.2665544E-007  0.1141783E+04  0.7818608E-02  0.9215902E-01
          2   -1    0    0  501    0  0.00000000000E+00  0.00000000000E+00  0.60551046744E+03  0.60551046744E+03  0.25500000000E-02 0. -1.
         -2   -1    0    0    0  501 -0.00000000000E+00 -0.00000000000E+00 -0.21430429131E+04  0.21430429131E+04  0.25500000000E-02 0.  1.
    8880023    1    1    2    0    0  0.40095608166E+03 -0.84207648713E+03 -0.28028353781E+03  0.11756817841E+04  0.65864270000E+03 0. -1.
    8880022    1    1    2    0    0 -0.40095608166E+03  0.84207648713E+03 -0.12572489078E+04  0.15728715964E+04  0.15294330000E+03 0.  0.
<mgrwt>
<rscale>  0 0.10890790E+04</rscale>
<asrwt>0</asrwt>
<pdfrwt beam="1">  1        2 0.93155457E-01 0.11417832E+04</pdfrwt>
<pdfrwt beam="2">  1       -2 0.32969891E+00 0.11417832E+04</pdfrwt>
<totfact> 0.10155842E+00</totfact>
</mgrwt>
</event>
<event>
 4    1  0.2665544E-007  0.7780068E+03  0.7818608E-02  0.9760540E-01
         -2   -1    0    0    0  501 -0.00000000000E+00  0.00000000000E+00  0.43251722471E+03  0.43251722472E+03  0.25500000000E-02 0.  1.
          2   -1    0    0  501    0  0.00000000000E+00 -0.00000000000E+00 -0.97649154250E+03  0.97649154250E+03  0.25500000000E-02 0. -1.
    8880023    1    1    2    0    0  0.28059859632E+03 -0.30454676990E+03 -0.57355506665E+03  0.96657122244E+03  0.65864270000E+03 0. -1.
    8880022    1    1    2    0    0 -0.28059859632E+03  0.30454676990E+03  0.29580748860E+02  0.44243754478E+03  0.15294330000E+03 0.  0.
<mgrwt>
<rscale>  0 0.67523868E+03</rscale>
<asrwt>0</asrwt>
<pdfrwt beam="1">  1        2 0.15022947E+00 0.77800676E+03</pdfrwt>
<pdfrwt beam="2">  1       -2 0.66541112E-01 0.77800676E+03</pdfrwt>
<totfact> 0.54831319E+01</totfact>
</mgrwt>
</event>
<event>
 4    1  0.2665544E-007  0.1795303E+04  0.7818608E-02  0.8725139E-01
          2   -1    0    0  501    0  0.00000000000E+00  0.00000000000E+00  0.41907273584E+04  0.41907273584E+04  0.25500000000E-02 0. -1.
         -2   -1    0    0    0  501 -0.00000000000E+00 -0.00000000000E+00 -0.11392889097E+04  0.11392889097E+04  0.25500000000E-02 0.  1.
    8880023    1    1    2    0    0 -0.15372420668E+04 -0.65283103676E+03  0.31759884212E+04  0.36482892144E+04  0.65864270000E+03 0.  0.
    8880022    1    1    2    0    0  0.15372420668E+04  0.65283103676E+03 -0.12454997240E+03  0.16817270537E+04  0.15294330000E+03 0.  0.
<mgrwt>
<rscale>  0 0.17649953E+04</rscale>
<asrwt>0</asrwt>
<pdfrwt beam="1">  1        2 0.64472730E+00 0.17953027E+04</pdfrwt>
<pdfrwt beam="2">  1       -2 0.17527521E+00 0.17953027E+04</pdfrwt>
<totfact> 0.42787337E-02</totfact>
</mgrwt>
</event>
